PROCAR new format
# of k-points:   10         # of bands:  252         # of ions:   37

 k-point     1 :    0.00000000 0.00000000 0.00000000     weight = 0.01562500

band     1 # energy   -8.84494565 # occ.  2.00000000
 
ion      s      p      d    tot
    1  0.007  0.001  0.000  0.008
    2  0.007  0.001  0.000  0.008
    3  0.007  0.001  0.000  0.008
    4  0.007  0.001  0.000  0.008
    5  0.007  0.001  0.000  0.008
    6  0.007  0.001  0.000  0.008
    7  0.007  0.001  0.000  0.008
    8  0.007  0.001  0.000  0.008
    9  0.007  0.001  0.000  0.008
   10  0.025  0.000  0.000  0.025
   11  0.025  0.000  0.000  0.025
   12  0.025  0.000  0.000  0.025
   13  0.025  0.000  0.000  0.025
   14  0.025  0.000  0.000  0.025
   15  0.025  0.000  0.000  0.025
   16  0.025  0.000  0.000  0.025
   17  0.025  0.000  0.000  0.025
   18  0.025  0.000  0.000  0.025
   19  0.025  0.000  0.000  0.025
   20  0.024  0.000  0.000  0.025
   21  0.024  0.000  0.000  0.025
   22  0.024  0.000  0.000  0.024
   23  0.024  0.000  0.000  0.025
   24  0.024  0.000  0.000  0.024
   25  0.025  0.000  0.000  0.025
   26  0.025  0.000  0.000  0.025
   27  0.024  0.000  0.000  0.024
   28  0.007  0.001  0.000  0.007
   29  0.006  0.001  0.000  0.007
   30  0.006  0.001  0.000  0.007
   31  0.006  0.001  0.000  0.007
   32  0.006  0.001  0.000  0.007
   33  0.006  0.001  0.000  0.007
   34  0.006  0.001  0.000  0.007
   35  0.007  0.001  0.000  0.007
   36  0.008  0.001  0.000  0.009
   37  0.000  0.000  0.000  0.000
tot    0.565  0.016  0.001  0.582
 
band     2 # energy   -7.54317928 # occ.  2.00000000
 
ion      s      p      d    tot
    1  0.018  0.001  0.001  0.019
    2  0.018  0.001  0.001  0.019
    3  0.018  0.001  0.001  0.019
    4  0.018  0.001  0.001  0.019
    5  0.018  0.001  0.001  0.019
    6  0.018  0.001  0.001  0.019
    7  0.018  0.001  0.001  0.019
    8  0.018  0.001  0.001  0.019
    9  0.018  0.001  0.001  0.019
   10  0.009  0.002  0.001  0.012
   11  0.010  0.002  0.001  0.013
   12  0.009  0.002  0.001  0.012
   13  0.010  0.002  0.001  0.013
   14  0.010  0.002  0.001  0.013
   15  0.009  0.002  0.001  0.012
   16  0.009  0.002  0.001  0.012
   17  0.009  0.002  0.001  0.012
   18  0.009  0.002  0.001  0.012
   19  0.011  0.002  0.001  0.014
   20  0.009  0.002  0.001  0.012
   21  0.009  0.002  0.001  0.012
   22  0.011  0.002  0.001  0.014
   23  0.009  0.002  0.001  0.012
   24  0.011  0.002  0.001  0.014
   25  0.011  0.002  0.001  0.014
   26  0.011  0.002  0.001  0.014
   27  0.011  0.002  0.001  0.014
   28  0.020  0.001  0.001  0.021
   29  0.018  0.001  0.001  0.020
   30  0.018  0.001  0.001  0.020
   31  0.018  0.001  0.001  0.020
   32  0.018  0.001  0.001  0.020
   33  0.018  0.001  0.001  0.020
   34  0.018  0.001  0.001  0.020
   35  0.020  0.001  0.001  0.021
   36  0.019  0.001  0.001  0.021
   37  0.001  0.000  0.000  0.001
tot    0.511  0.054  0.020  0.585
 
band     3 # energy   -5.96640224 # occ.  2.00000000
 
ion      s      p      d    tot
    1  0.015  0.000  0.005  0.021
    2  0.014  0.000  0.005  0.020
    3  0.014  0.000  0.005  0.020
    4  0.014  0.000  0.005  0.020
    5  0.006  0.000  0.006  0.012
    6  0.014  0.000  0.005  0.020
    7  0.014  0.000  0.005  0.020
    8  0.014  0.000  0.005  0.020
    9  0.025  0.000  0.004  0.028
   10  0.003  0.003  0.003  0.009
   11  0.012  0.005  0.001  0.018
   12  0.003  0.003  0.003  0.009
   13  0.012  0.005  0.001  0.018
   14  0.012  0.005  0.001  0.018
   15  0.000  0.002  0.004  0.006
   16  0.003  0.003  0.003  0.009
   17  0.000  0.002  0.004  0.006
   18  0.000  0.002  0.004  0.006
   19  0.001  0.003  0.005  0.009
   20  0.019  0.004  0.003  0.027
   21  0.019  0.004  0.003  0.027
   22  0.000  0.004  0.004  0.008
   23  0.019  0.004  0.003  0.027
   24  0.000  0.004  0.004  0.008
   25  0.001  0.003  0.005  0.009
   26  0.001  0.003  0.005  0.009
   27  0.000  0.004  0.004  0.008
   28  0.021  0.000  0.005  0.026
   29  0.016  0.000  0.007  0.024
   30  0.016  0.000  0.007  0.024
   31  0.016  0.000  0.007  0.024
   32  0.016  0.000  0.007  0.024
   33  0.016  0.000  0.007  0.024
   34  0.016  0.000  0.007  0.024
   35  0.027  0.000  0.005  0.032
   36  0.003  0.002  0.018  0.023
   37  0.000  0.000  0.000  0.000
tot    0.383  0.071  0.179  0.633
 
band     4 # energy   -5.88625979 # occ.  2.00000000
 
ion      s      p      d    tot
    1  0.000  0.003  0.005  0.008
    2  0.009  0.002  0.002  0.014
    3  0.003  0.001  0.002  0.007
    4  0.009  0.002  0.002  0.014
    5  0.000  0.002  0.003  0.004
    6  0.001  0.001  0.002  0.004
    7  0.003  0.001  0.002  0.007
    8  0.001  0.001  0.002  0.004
    9  0.000  0.000  0.003  0.003
   10  0.060  0.004  0.004  0.068
   11  0.003  0.010  0.003  0.016
   12  0.015  0.004  0.011  0.030
   13  0.004  0.010  0.003  0.016
   14  0.014  0.000  0.006  0.020
   15  0.004  0.003  0.009  0.016
   16  0.015  0.004  0.011  0.029
   17  0.004  0.003  0.009  0.016
   18  0.016  0.004  0.002  0.022
   19  0.010  0.009  0.006  0.025
   20  0.056  0.005  0.004  0.065
   21  0.014  0.001  0.015  0.031
   22  0.000  0.007  0.005  0.012
   23  0.014  0.001  0.015  0.030
   24  0.000  0.002  0.004  0.006
   25  0.042  0.001  0.007  0.050
   26  0.011  0.009  0.006  0.025
   27  0.000  0.007  0.005  0.012
   28  0.000  0.003  0.005  0.008
   29  0.010  0.003  0.003  0.015
   30  0.007  0.002  0.003  0.012
   31  0.010  0.003  0.003  0.015
   32  0.000  0.001  0.003  0.004
   33  0.007  0.002  0.003  0.012
   34  0.000  0.001  0.003  0.004
   35  0.000  0.000  0.003  0.003
   36  0.000  0.003  0.012  0.015
   37  0.000  0.000  0.000  0.000
tot    0.344  0.113  0.187  0.645
 
band     5 # energy   -5.88616152 # occ.  2.00000000
 
ion      s      p      d    tot
    1  0.000  0.003  0.005  0.008
    2  0.000  0.001  0.002  0.003
    3  0.006  0.002  0.002  0.010
    4  0.000  0.001  0.002  0.003
    5  0.000  0.002  0.003  0.004
    6  0.008  0.002  0.002  0.012
    7  0.006  0.002  0.002  0.010
    8  0.008  0.002  0.002  0.012
    9  0.000  0.000  0.003  0.003
   10  0.000  0.004  0.013  0.017
   11  0.011  0.003  0.005  0.019
   12  0.045  0.004  0.007  0.055
   13  0.010  0.003  0.005  0.019
   14  0.000  0.013  0.002  0.015
   15  0.012  0.003  0.005  0.020
   16  0.045  0.004  0.007  0.056
   17  0.012  0.003  0.005  0.020
   18  0.000  0.003  0.012  0.014
   19  0.032  0.004  0.006  0.042
   20  0.000  0.000  0.019  0.019
   21  0.041  0.003  0.008  0.053
   22  0.000  0.003  0.005  0.008
   23  0.042  0.004  0.008  0.053
   24  0.000  0.009  0.006  0.014
   25  0.000  0.012  0.005  0.017
   26  0.032  0.004  0.006  0.042
   27  0.000  0.003  0.005  0.008
   28  0.000  0.003  0.005  0.008
   29  0.002  0.001  0.003  0.006
   30  0.004  0.002  0.003  0.009
   31  0.002  0.001  0.003  0.006
   32  0.011  0.003  0.003  0.017
   33  0.004  0.002  0.003  0.009
   34  0.011  0.003  0.003  0.017
   35  0.000  0.000  0.003  0.003
   36  0.000  0.003  0.012  0.015
   37  0.000  0.000  0.000  0.000
tot    0.344  0.113  0.187  0.645
 
band     6 # energy   -5.84866357 # occ.  2.00000000
 
ion      s      p      d    tot
    1  0.000  0.000  0.002  0.002
    2  0.010  0.002  0.002  0.014
    3  0.004  0.001  0.002  0.008
    4  0.010  0.002  0.002  0.014
    5  0.000  0.002  0.005  0.007
    6  0.001  0.001  0.002  0.004
    7  0.004  0.001  0.002  0.007
    8  0.001  0.001  0.002  0.004
    9  0.000  0.003  0.004  0.007
   10  0.000  0.009  0.005  0.014
   11  0.037  0.004  0.006  0.046
   12  0.000  0.003  0.005  0.008
   13  0.035  0.004  0.006  0.045
   14  0.000  0.000  0.017  0.017
   15  0.032  0.003  0.006  0.042
   16  0.000  0.003  0.005  0.008
   17  0.032  0.004  0.006  0.041
   18  0.000  0.011  0.005  0.016
   19  0.017  0.003  0.005  0.025
   20  0.000  0.014  0.001  0.015
   21  0.008  0.004  0.005  0.018
   22  0.046  0.004  0.006  0.056
   23  0.009  0.004  0.005  0.018
   24  0.000  0.005  0.012  0.017
   25  0.000  0.002  0.014  0.016
   26  0.016  0.003  0.005  0.025
   27  0.048  0.004  0.006  0.058
   28  0.000  0.001  0.004  0.005
   29  0.011  0.003  0.003  0.016
   30  0.005  0.002  0.003  0.010
   31  0.011  0.002  0.003  0.016
   32  0.001  0.001  0.003  0.005
   33  0.005  0.002  0.003  0.010
   34  0.001  0.001  0.003  0.005
   35  0.000  0.004  0.006  0.009
   36  0.000  0.002  0.007  0.009
   37  0.000  0.000  0.000  0.000
tot    0.342  0.116  0.180  0.639
 
band     7 # energy   -5.84857935 # occ.  2.00000000
 
ion      s      p      d    tot
    1  0.000  0.000  0.002  0.003
    2  0.000  0.001  0.002  0.003
    3  0.006  0.002  0.003  0.010
    4  0.000  0.001  0.002  0.003
    5  0.000  0.002  0.005  0.007
    6  0.009  0.002  0.002  0.013
    7  0.006  0.002  0.003  0.010
    8  0.009  0.002  0.002  0.013
    9  0.000  0.003  0.004  0.007
   10  0.000  0.002  0.004  0.006
   11  0.013  0.001  0.013  0.027
   12  0.000  0.007  0.005  0.012
   13  0.014  0.001  0.013  0.028
   14  0.045  0.005  0.002  0.052
   15  0.009  0.009  0.005  0.023
   16  0.000  0.007  0.005  0.013
   17  0.010  0.008  0.005  0.023
   18  0.046  0.001  0.007  0.053
   19  0.007  0.002  0.011  0.020
   20  0.011  0.000  0.008  0.020
   21  0.003  0.011  0.002  0.015
   22  0.019  0.005  0.010  0.034
   23  0.003  0.011  0.002  0.015
   24  0.057  0.004  0.005  0.065
   25  0.019  0.005  0.002  0.026
   26  0.007  0.002  0.011  0.020
   27  0.017  0.005  0.010  0.032
   28  0.000  0.001  0.004  0.005
   29  0.000  0.001  0.003  0.005
   30  0.006  0.002  0.003  0.010
   31  0.001  0.001  0.003  0.005
   32  0.010  0.003  0.003  0.015
   33  0.006  0.002  0.003  0.010
   34  0.010  0.003  0.003  0.016
   35  0.000  0.004  0.006  0.010
   36  0.000  0.002  0.007  0.009
   37  0.000  0.000  0.000  0.000
tot    0.342  0.116  0.180  0.639
 
band     8 # energy   -5.84809571 # occ.  2.00000000
 
ion      s      p      d    tot
    1  0.021  0.003  0.001  0.025
    2  0.000  0.002  0.004  0.006
    3  0.000  0.002  0.004  0.006
    4  0.000  0.002  0.004  0.006
    5  0.002  0.000  0.001  0.003
    6  0.000  0.002  0.004  0.006
    7  0.000  0.002  0.004  0.006
    8  0.000  0.002  0.004  0.006
    9  0.008  0.001  0.000  0.010
   10  0.031  0.006  0.006  0.042
   11  0.005  0.000  0.012  0.017
   12  0.030  0.006  0.005  0.042
   13  0.005  0.000  0.012  0.017
   14  0.009  0.000  0.012  0.021
   15  0.011  0.007  0.004  0.023
   16  0.030  0.006  0.005  0.042
   17  0.011  0.007  0.004  0.023
   18  0.007  0.008  0.003  0.018
   19  0.022  0.010  0.002  0.033
   20  0.000  0.003  0.009  0.012
   21  0.000  0.003  0.011  0.014
   22  0.020  0.002  0.009  0.032
   23  0.000  0.003  0.011  0.014
   24  0.029  0.002  0.009  0.039
   25  0.027  0.008  0.002  0.037
   26  0.022  0.010  0.002  0.033
   27  0.020  0.002  0.009  0.032
   28  0.018  0.003  0.001  0.022
   29  0.000  0.002  0.004  0.006
   30  0.000  0.002  0.004  0.006
   31  0.000  0.002  0.004  0.006
   32  0.000  0.002  0.004  0.006
   33  0.000  0.002  0.004  0.006
   34  0.000  0.002  0.004  0.006
   35  0.013  0.002  0.001  0.016
   36  0.000  0.000  0.000  0.000
   37  0.000  0.000  0.000  0.000
tot    0.344  0.114  0.181  0.639
 
band     9 # energy   -5.78786020 # occ.  2.00000000
 
ion      s      p      d    tot
    1  0.000  0.000  0.001  0.002
    2  0.002  0.002  0.006  0.010
    3  0.002  0.002  0.006  0.010
    4  0.002  0.002  0.006  0.010
    5  0.037  0.003  0.000  0.039
    6  0.002  0.002  0.006  0.010
    7  0.002  0.002  0.006  0.010
    8  0.002  0.002  0.006  0.010
    9  0.003  0.002  0.004  0.010
   10  0.002  0.004  0.009  0.015
   11  0.017  0.009  0.004  0.030
   12  0.002  0.004  0.009  0.015
   13  0.017  0.009  0.004  0.030
   14  0.017  0.009  0.004  0.030
   15  0.029  0.002  0.010  0.041
   16  0.002  0.004  0.009  0.015
   17  0.029  0.002  0.010  0.041
   18  0.029  0.002  0.010  0.041
   19  0.008  0.001  0.009  0.018
   20  0.018  0.005  0.006  0.029
   21  0.018  0.005  0.006  0.029
   22  0.010  0.007  0.004  0.021
   23  0.018  0.005  0.006  0.029
   24  0.010  0.007  0.004  0.021
   25  0.008  0.001  0.009  0.019
   26  0.008  0.001  0.009  0.018
   27  0.010  0.007  0.004  0.021
   28  0.001  0.000  0.003  0.004
   29  0.003  0.001  0.003  0.007
   30  0.003  0.001  0.003  0.007
   31  0.003  0.001  0.003  0.007
   32  0.003  0.001  0.003  0.007
   33  0.003  0.001  0.003  0.007
   34  0.003  0.001  0.003  0.007
   35  0.000  0.001  0.002  0.003
   36  0.027  0.002  0.001  0.029
   37  0.002  0.000  0.000  0.002
tot    0.356  0.107  0.188  0.651
 
band    10 # energy   -5.14355642 # occ.  2.00000000
 
ion      s      p      d    tot
    1  0.000  0.004  0.010  0.013
    2  0.017  0.003  0.005  0.025
    3  0.000  0.001  0.005  0.007
    4  0.017  0.003  0.005  0.025
    5  0.000  0.000  0.010  0.010
    6  0.012  0.003  0.005  0.020
    7  0.001  0.001  0.005  0.007
    8  0.012  0.003  0.005  0.020
    9  0.000  0.005  0.008  0.013
   10  0.000  0.004  0.017  0.022
   11  0.004  0.002  0.009  0.015
   12  0.007  0.002  0.009  0.017
   13  0.004  0.002  0.009  0.015
   14  0.000  0.002  0.014  0.017
   15  0.019  0.004  0.009  0.032
   16  0.007  0.002  0.009  0.017
   17  0.019  0.004  0.009  0.032
   18  0.000  0.000  0.021  0.021
   19  0.009  0.004  0.010  0.023
   20  0.000  0.003  0.018  0.020
   21  0.000  0.001  0.012  0.014
   22  0.008  0.003  0.009  0.020
   23  0.000  0.001  0.013  0.014
   24  0.000  0.002  0.028  0.030
   25  0.000  0.000  0.014  0.014
   26  0.009  0.005  0.010  0.023
   27  0.008  0.003  0.009  0.020
   28  0.000  0.004  0.008  0.012
   29  0.022  0.003  0.008  0.034
   30  0.000  0.002  0.009  0.011
   31  0.022  0.003  0.008  0.033
   32  0.017  0.002  0.009  0.028
   33  0.000  0.002  0.009  0.011
   34  0.017  0.002  0.009  0.029
   35  0.000  0.006  0.010  0.015
   36  0.000  0.000  0.028  0.028
   37  0.000  0.000  0.000  0.000
tot    0.230  0.092  0.383  0.705
 
band    11 # energy   -5.14353238 # occ.  2.00000000
 
ion      s      p      d    tot
    1  0.000  0.004  0.010  0.013
    2  0.002  0.002  0.005  0.009
    3  0.019  0.004  0.005  0.028
    4  0.003  0.002  0.005  0.009
    5  0.000  0.000  0.010  0.010
    6  0.008  0.002  0.005  0.015
    7  0.019  0.004  0.005  0.028
    8  0.008  0.002  0.005  0.015
    9  0.000  0.005  0.008  0.013
   10  0.009  0.001  0.006  0.016
   11  0.001  0.002  0.013  0.016
   12  0.002  0.004  0.015  0.020
   13  0.001  0.002  0.013  0.016
   14  0.005  0.002  0.007  0.014
   15  0.007  0.001  0.017  0.025
   16  0.002  0.003  0.014  0.020
   17  0.006  0.001  0.017  0.025
   18  0.026  0.005  0.005  0.035
   19  0.003  0.002  0.012  0.017
   20  0.000  0.001  0.011  0.012
   21  0.000  0.002  0.016  0.018
   22  0.003  0.002  0.022  0.027
   23  0.000  0.002  0.016  0.018
   24  0.010  0.003  0.003  0.016
   25  0.012  0.006  0.008  0.026
   26  0.003  0.002  0.012  0.017
   27  0.003  0.002  0.022  0.026
   28  0.000  0.004  0.008  0.012
   29  0.004  0.002  0.009  0.015
   30  0.026  0.003  0.009  0.038
   31  0.005  0.002  0.009  0.015
   32  0.009  0.003  0.009  0.020
   33  0.026  0.003  0.009  0.038
   34  0.009  0.003  0.009  0.020
   35  0.000  0.005  0.010  0.015
   36  0.000  0.000  0.028  0.028
   37  0.000  0.000  0.000  0.000
tot    0.230  0.092  0.383  0.705
 
band    12 # energy   -5.13495837 # occ.  2.00000000
 
ion      s      p      d    tot
    1  0.005  0.000  0.009  0.015
    2  0.005  0.001  0.010  0.015
    3  0.005  0.001  0.010  0.015
    4  0.005  0.001  0.010  0.015
    5  0.000  0.002  0.009  0.011
    6  0.005  0.001  0.010  0.015
    7  0.005  0.001  0.010  0.015
    8  0.005  0.001  0.010  0.015
    9  0.017  0.000  0.007  0.023
   10  0.008  0.000  0.025  0.033
   11  0.011  0.000  0.021  0.033
   12  0.008  0.000  0.025  0.033
   13  0.011  0.000  0.021  0.033
   14  0.011  0.000  0.021  0.033
   15  0.002  0.000  0.021  0.023
   16  0.008  0.000  0.025  0.033
   17  0.002  0.000  0.021  0.023
   18  0.002  0.000  0.021  0.023
   19  0.004  0.000  0.019  0.023
   20  0.010  0.001  0.028  0.040
   21  0.010  0.001  0.028  0.040
   22  0.003  0.000  0.019  0.021
   23  0.010  0.001  0.028  0.040
   24  0.003  0.000  0.019  0.021
   25  0.004  0.000  0.019  0.023
   26  0.004  0.000  0.019  0.023
   27  0.003  0.000  0.019  0.021
   28  0.003  0.000  0.006  0.009
   29  0.004  0.000  0.008  0.012
   30  0.003  0.000  0.008  0.012
   31  0.004  0.000  0.008  0.012
   32  0.004  0.000  0.008  0.012
   33  0.003  0.000  0.008  0.012
   34  0.004  0.000  0.008  0.012
   35  0.010  0.000  0.006  0.016
   36  0.000  0.002  0.019  0.021
   37  0.001  0.000  0.000  0.001
tot    0.202  0.017  0.561  0.780
 
band    13 # energy   -5.09340853 # occ.  2.00000000
 
ion      s      p      d    tot
    1  0.034  0.003  0.000  0.038
    2  0.000  0.003  0.010  0.013
    3  0.000  0.003  0.010  0.013
    4  0.000  0.003  0.010  0.013
    5  0.000  0.000  0.001  0.001
    6  0.000  0.003  0.010  0.013
    7  0.000  0.003  0.010  0.013
    8  0.000  0.003  0.010  0.013
    9  0.027  0.004  0.001  0.031
   10  0.008  0.003  0.011  0.022
   11  0.002  0.000  0.015  0.017
   12  0.008  0.003  0.011  0.022
   13  0.001  0.000  0.015  0.017
   14  0.001  0.000  0.015  0.017
   15  0.008  0.003  0.016  0.027
   16  0.008  0.003  0.011  0.022
   17  0.008  0.003  0.016  0.027
   18  0.007  0.003  0.016  0.027
   19  0.004  0.003  0.019  0.026
   20  0.000  0.000  0.015  0.015
   21  0.000  0.000  0.015  0.015
   22  0.012  0.003  0.010  0.025
   23  0.000  0.000  0.015  0.015
   24  0.012  0.003  0.010  0.025
   25  0.004  0.003  0.019  0.026
   26  0.004  0.003  0.019  0.026
   27  0.012  0.003  0.010  0.025
   28  0.039  0.003  0.000  0.042
   29  0.000  0.003  0.012  0.015
   30  0.000  0.003  0.012  0.015
   31  0.000  0.003  0.012  0.015
   32  0.000  0.003  0.012  0.015
   33  0.000  0.003  0.012  0.015
   34  0.000  0.003  0.012  0.015
   35  0.027  0.004  0.001  0.032
   36  0.000  0.000  0.000  0.000
   37  0.000  0.000  0.000  0.000
tot    0.226  0.090  0.389  0.706
 
band    14 # energy   -5.08552649 # occ.  2.00000000
 
ion      s      p      d    tot
    1  0.000  0.003  0.009  0.012
    2  0.020  0.004  0.005  0.029
    3  0.001  0.002  0.005  0.008
    4  0.020  0.004  0.005  0.029
    5  0.000  0.006  0.010  0.016
    6  0.011  0.003  0.006  0.020
    7  0.001  0.002  0.005  0.008
    8  0.012  0.003  0.006  0.021
    9  0.000  0.001  0.013  0.013
   10  0.016  0.005  0.009  0.030
   11  0.005  0.002  0.022  0.029
   12  0.004  0.001  0.016  0.021
   13  0.004  0.002  0.023  0.029
   14  0.018  0.004  0.005  0.026
   15  0.000  0.003  0.015  0.018
   16  0.004  0.001  0.016  0.022
   17  0.000  0.003  0.015  0.018
   18  0.000  0.000  0.009  0.009
   19  0.001  0.003  0.018  0.021
   20  0.021  0.005  0.005  0.031
   21  0.005  0.002  0.026  0.033
   22  0.002  0.002  0.013  0.016
   23  0.006  0.002  0.025  0.033
   24  0.008  0.003  0.009  0.020
   25  0.003  0.000  0.007  0.010
   26  0.001  0.003  0.019  0.022
   27  0.002  0.002  0.013  0.016
   28  0.000  0.002  0.012  0.014
   29  0.016  0.003  0.007  0.026
   30  0.000  0.001  0.005  0.007
   31  0.015  0.003  0.007  0.025
   32  0.011  0.003  0.007  0.021
   33  0.000  0.001  0.005  0.007
   34  0.012  0.003  0.007  0.022
   35  0.000  0.001  0.010  0.011
   36  0.000  0.008  0.013  0.021
   37  0.000  0.000  0.000  0.000
tot    0.219  0.094  0.400  0.713
 
band    15 # energy   -5.08547954 # occ.  2.00000000
 
ion      s      p      d    tot
    1  0.000  0.003  0.009  0.012
    2  0.002  0.002  0.005  0.009
    3  0.021  0.004  0.006  0.030
    4  0.002  0.002  0.005  0.009
    5  0.000  0.006  0.010  0.016
    6  0.010  0.003  0.005  0.018
    7  0.021  0.004  0.006  0.030
    8  0.010  0.003  0.005  0.017
    9  0.000  0.001  0.013  0.013
   10  0.000  0.000  0.019  0.019
   11  0.013  0.003  0.011  0.027
   12  0.012  0.004  0.011  0.027
   13  0.014  0.003  0.010  0.027
   14  0.000  0.002  0.028  0.030
   15  0.000  0.001  0.011  0.012
   16  0.012  0.004  0.011  0.027
   17  0.000  0.001  0.011  0.012
   18  0.000  0.004  0.018  0.021
   19  0.002  0.001  0.011  0.014
   20  0.000  0.001  0.033  0.033
   21  0.016  0.004  0.011  0.032
   22  0.006  0.003  0.010  0.019
   23  0.016  0.004  0.012  0.032
   24  0.000  0.001  0.014  0.015
   25  0.000  0.003  0.022  0.025
   26  0.002  0.001  0.011  0.014
   27  0.006  0.003  0.011  0.019
   28  0.000  0.002  0.012  0.014
   29  0.003  0.002  0.006  0.010
   30  0.018  0.004  0.007  0.029
   31  0.003  0.002  0.006  0.010
   32  0.007  0.002  0.006  0.015
   33  0.018  0.004  0.007  0.029
   34  0.006  0.002  0.006  0.014
   35  0.000  0.001  0.010  0.011
   36  0.000  0.008  0.013  0.021
   37  0.000  0.000  0.000  0.000
tot    0.219  0.094  0.400  0.713
 
band    16 # energy   -4.96837549 # occ.  2.00000000
 
ion      s      p      d    tot
    1  0.011  0.002  0.001  0.013
    2  0.000  0.003  0.011  0.014
    3  0.000  0.003  0.011  0.014
    4  0.000  0.003  0.011  0.014
    5  0.045  0.003  0.000  0.049
    6  0.000  0.003  0.011  0.014
    7  0.000  0.003  0.011  0.014
    8  0.000  0.003  0.011  0.014
    9  0.005  0.001  0.001  0.007
   10  0.002  0.001  0.024  0.027
   11  0.004  0.004  0.019  0.027
   12  0.002  0.001  0.024  0.027
   13  0.004  0.004  0.019  0.027
   14  0.004  0.004  0.019  0.027
   15  0.005  0.001  0.010  0.016
   16  0.002  0.001  0.024  0.027
   17  0.005  0.001  0.010  0.016
   18  0.005  0.001  0.010  0.016
   19  0.011  0.001  0.020  0.032
   20  0.009  0.004  0.012  0.025
   21  0.009  0.004  0.012  0.025
   22  0.003  0.001  0.017  0.021
   23  0.009  0.004  0.012  0.025
   24  0.003  0.001  0.017  0.021
   25  0.011  0.001  0.020  0.032
   26  0.011  0.001  0.020  0.032
   27  0.003  0.001  0.017  0.021
   28  0.003  0.002  0.005  0.010
   29  0.001  0.002  0.009  0.012
   30  0.001  0.002  0.009  0.012
   31  0.001  0.002  0.009  0.012
   32  0.001  0.002  0.009  0.012
   33  0.001  0.002  0.009  0.012
   34  0.001  0.002  0.009  0.012
   35  0.003  0.001  0.002  0.006
   36  0.050  0.003  0.003  0.055
   37  0.006  0.000  0.000  0.006
tot    0.229  0.079  0.436  0.744
 
band    17 # energy   -4.50052626 # occ.  2.00000000
 
ion      s      p      d    tot
    1  0.000  0.001  0.028  0.029
    2  0.015  0.001  0.008  0.024
    3  0.007  0.001  0.008  0.016
    4  0.015  0.001  0.008  0.024
    5  0.000  0.001  0.013  0.014
    6  0.002  0.001  0.008  0.010
    7  0.007  0.001  0.008  0.015
    8  0.001  0.001  0.008  0.010
    9  0.000  0.003  0.004  0.007
   10  0.000  0.000  0.059  0.059
   11  0.000  0.003  0.016  0.019
   12  0.000  0.000  0.019  0.019
   13  0.000  0.003  0.016  0.019
   14  0.000  0.000  0.006  0.006
   15  0.000  0.005  0.015  0.020
   16  0.000  0.000  0.018  0.019
   17  0.000  0.005  0.015  0.020
   18  0.000  0.000  0.028  0.028
   19  0.004  0.003  0.014  0.021
   20  0.000  0.000  0.064  0.064
   21  0.000  0.000  0.026  0.026
   22  0.003  0.002  0.015  0.019
   23  0.000  0.000  0.026  0.026
   24  0.000  0.000  0.018  0.018
   25  0.000  0.000  0.018  0.018
   26  0.004  0.003  0.014  0.021
   27  0.003  0.002  0.015  0.019
   28  0.000  0.001  0.007  0.008
   29  0.009  0.000  0.020  0.030
   30  0.000  0.001  0.016  0.017
   31  0.009  0.000  0.020  0.030
   32  0.011  0.000  0.018  0.030
   33  0.000  0.001  0.016  0.017
   34  0.011  0.000  0.018  0.030
   35  0.000  0.001  0.009  0.010
   36  0.000  0.000  0.047  0.047
   37  0.000  0.000  0.000  0.000
tot    0.100  0.045  0.665  0.810
 
band    18 # energy   -4.50045817 # occ.  2.00000000
 
ion      s      p      d    tot
    1  0.000  0.001  0.028  0.029
    2  0.001  0.001  0.008  0.009
    3  0.009  0.001  0.008  0.018
    4  0.001  0.001  0.008  0.009
    5  0.000  0.001  0.013  0.014
    6  0.014  0.001  0.008  0.023
    7  0.009  0.001  0.008  0.018
    8  0.014  0.001  0.008  0.023
    9  0.000  0.003  0.004  0.007
   10  0.000  0.000  0.005  0.006
   11  0.000  0.001  0.009  0.010
   12  0.000  0.000  0.045  0.046
   13  0.000  0.001  0.009  0.010
   14  0.000  0.005  0.019  0.024
   15  0.000  0.002  0.024  0.025
   16  0.000  0.000  0.046  0.046
   17  0.000  0.002  0.024  0.025
   18  0.000  0.006  0.011  0.017
   19  0.001  0.001  0.016  0.019
   20  0.000  0.000  0.013  0.014
   21  0.000  0.000  0.051  0.051
   22  0.001  0.001  0.017  0.018
   23  0.000  0.000  0.051  0.051
   24  0.003  0.003  0.014  0.020
   25  0.005  0.004  0.013  0.022
   26  0.001  0.001  0.016  0.019
   27  0.001  0.001  0.017  0.018
   28  0.000  0.001  0.007  0.008
   29  0.004  0.001  0.016  0.021
   30  0.014  0.000  0.020  0.034
   31  0.004  0.001  0.016  0.021
   32  0.003  0.001  0.018  0.021
   33  0.014  0.000  0.020  0.034
   34  0.003  0.001  0.018  0.021
   35  0.000  0.001  0.009  0.010
   36  0.000  0.000  0.047  0.047
   37  0.000  0.000  0.000  0.000
tot    0.100  0.045  0.665  0.810
 
band    19 # energy   -4.41188344 # occ.  2.00000000
 
ion      s      p      d    tot
    1  0.005  0.000  0.001  0.006
    2  0.000  0.001  0.016  0.017
    3  0.000  0.001  0.016  0.017
    4  0.000  0.001  0.016  0.017
    5  0.009  0.000  0.000  0.009
    6  0.000  0.001  0.016  0.017
    7  0.000  0.001  0.016  0.017
    8  0.000  0.001  0.016  0.017
    9  0.027  0.001  0.001  0.030
   10  0.000  0.002  0.012  0.014
   11  0.000  0.000  0.014  0.014
   12  0.000  0.002  0.012  0.014
   13  0.000  0.000  0.014  0.014
   14  0.000  0.000  0.014  0.014
   15  0.000  0.003  0.036  0.039
   16  0.000  0.002  0.012  0.014
   17  0.000  0.003  0.036  0.039
   18  0.000  0.003  0.036  0.039
   19  0.000  0.002  0.029  0.031
   20  0.000  0.000  0.013  0.014
   21  0.000  0.000  0.013  0.014
   22  0.001  0.003  0.030  0.035
   23  0.000  0.000  0.013  0.014
   24  0.001  0.003  0.030  0.035
   25  0.000  0.002  0.029  0.031
   26  0.000  0.002  0.029  0.031
   27  0.001  0.003  0.030  0.035
   28  0.023  0.001  0.001  0.025
   29  0.000  0.001  0.024  0.026
   30  0.000  0.001  0.024  0.026
   31  0.000  0.001  0.024  0.026
   32  0.000  0.001  0.024  0.026
   33  0.000  0.001  0.024  0.026
   34  0.000  0.001  0.024  0.026
   35  0.024  0.000  0.005  0.029
   36  0.000  0.000  0.004  0.004
   37  0.001  0.000  0.000  0.001
tot    0.096  0.049  0.658  0.804
 
band    20 # energy   -4.39400325 # occ.  2.00000000
 
ion      s      p      d    tot
    1  0.000  0.002  0.002  0.004
    2  0.014  0.001  0.010  0.025
    3  0.008  0.001  0.009  0.018
    4  0.014  0.001  0.010  0.025
    5  0.000  0.002  0.021  0.023
    6  0.001  0.001  0.009  0.011
    7  0.008  0.001  0.009  0.018
    8  0.001  0.001  0.009  0.011
    9  0.000  0.000  0.031  0.031
   10  0.001  0.007  0.021  0.029
   11  0.000  0.001  0.040  0.041
   12  0.000  0.002  0.011  0.013
   13  0.000  0.001  0.041  0.041
   14  0.001  0.002  0.004  0.008
   15  0.000  0.000  0.030  0.030
   16  0.000  0.002  0.011  0.013
   17  0.000  0.000  0.030  0.030
   18  0.000  0.001  0.011  0.012
   19  0.000  0.000  0.046  0.047
   20  0.001  0.007  0.022  0.030
   21  0.000  0.002  0.016  0.018
   22  0.000  0.001  0.023  0.023
   23  0.000  0.002  0.016  0.018
   24  0.000  0.003  0.015  0.017
   25  0.001  0.001  0.003  0.005
   26  0.000  0.000  0.046  0.047
   27  0.000  0.001  0.023  0.023
   28  0.000  0.001  0.033  0.035
   29  0.012  0.001  0.013  0.026
   30  0.000  0.001  0.011  0.012
   31  0.012  0.001  0.013  0.026
   32  0.010  0.001  0.012  0.024
   33  0.000  0.001  0.011  0.012
   34  0.010  0.001  0.012  0.024
   35  0.000  0.000  0.030  0.030
   36  0.000  0.003  0.000  0.003
   37  0.000  0.000  0.000  0.000
tot    0.096  0.052  0.654  0.802
 
band    21 # energy   -4.39392153 # occ.  2.00000000
 
ion      s      p      d    tot
    1  0.000  0.002  0.002  0.004
    2  0.001  0.001  0.009  0.011
    3  0.008  0.001  0.010  0.018
    4  0.001  0.001  0.009  0.011
    5  0.000  0.002  0.021  0.023
    6  0.014  0.001  0.010  0.025
    7  0.008  0.001  0.010  0.018
    8  0.014  0.001  0.010  0.025
    9  0.000  0.000  0.031  0.031
   10  0.000  0.000  0.007  0.007
   11  0.001  0.002  0.017  0.019
   12  0.001  0.005  0.018  0.024
   13  0.001  0.002  0.016  0.019
   14  0.000  0.000  0.053  0.053
   15  0.000  0.001  0.017  0.018
   16  0.001  0.005  0.018  0.024
   17  0.000  0.001  0.017  0.018
   18  0.000  0.000  0.036  0.036
   19  0.000  0.001  0.017  0.019
   20  0.000  0.000  0.014  0.014
   21  0.001  0.005  0.020  0.026
   22  0.000  0.002  0.017  0.019
   23  0.001  0.005  0.020  0.026
   24  0.000  0.000  0.025  0.025
   25  0.000  0.000  0.061  0.061
   26  0.000  0.001  0.017  0.019
   27  0.000  0.002  0.017  0.019
   28  0.000  0.001  0.033  0.035
   29  0.003  0.001  0.011  0.015
   30  0.015  0.001  0.013  0.029
   31  0.003  0.001  0.011  0.015
   32  0.004  0.001  0.012  0.017
   33  0.015  0.001  0.013  0.029
   34  0.004  0.001  0.012  0.017
   35  0.000  0.000  0.030  0.030
   36  0.000  0.003  0.000  0.003