PROCAR new format
# of k-points:   10         # of bands:  252         # of ions:   37

 k-point     1 :    0.00000000 0.00000000 0.00000000     weight = 0.01562500

band     1 # energy  -14.36753636 # occ.  2.00000000
 
ion      s      p      d    tot
    1  0.000  0.000  0.000  0.000
    2  0.000  0.000  0.000  0.000
    3  0.000  0.000  0.000  0.000
    4  0.000  0.000  0.000  0.000
    5  0.000  0.000  0.000  0.000
    6  0.000  0.000  0.000  0.000
    7  0.000  0.000  0.000  0.000
    8  0.000  0.000  0.000  0.000
    9  0.000  0.000  0.000  0.000
   10  0.000  0.000  0.000  0.000
   11  0.000  0.000  0.000  0.000
   12  0.000  0.000  0.000  0.000
   13  0.000  0.000  0.000  0.000
   14  0.000  0.000  0.000  0.000
   15  0.000  0.000  0.000  0.000
   16  0.000  0.000  0.000  0.000
   17  0.000  0.000  0.000  0.000
   18  0.000  0.000  0.000  0.000
   19  0.000  0.000  0.000  0.000
   20  0.000  0.000  0.000  0.001
   21  0.000  0.000  0.000  0.001
   22  0.000  0.000  0.000  0.000
   23  0.000  0.000  0.000  0.001
   24  0.000  0.000  0.000  0.000
   25  0.000  0.000  0.000  0.000
   26  0.000  0.000  0.000  0.000
   27  0.000  0.000  0.000  0.000
   28  0.000  0.000  0.000  0.000
   29  0.000  0.000  0.000  0.000
   30  0.000  0.000  0.000  0.000
   31  0.000  0.000  0.000  0.000
   32  0.000  0.000  0.000  0.000
   33  0.000  0.000  0.000  0.000
   34  0.000  0.000  0.000  0.000
   35  0.000  0.000  0.000  0.000
   36  0.086  0.067  0.170  0.323
   37  0.602  0.028  0.000  0.630
tot    0.690  0.097  0.171  0.958
 
band     2 # energy   -8.73238570 # occ.  2.00000000
 
ion      s      p      d    tot
    1  0.006  0.001  0.000  0.007
    2  0.006  0.001  0.000  0.007
    3  0.006  0.001  0.000  0.007
    4  0.006  0.001  0.000  0.007
    5  0.006  0.001  0.000  0.007
    6  0.006  0.001  0.000  0.007
    7  0.006  0.001  0.000  0.007
    8  0.006  0.001  0.000  0.007
    9  0.006  0.001  0.000  0.007
   10  0.024  0.000  0.000  0.024
   11  0.024  0.000  0.000  0.024
   12  0.024  0.000  0.000  0.024
   13  0.024  0.000  0.000  0.024
   14  0.024  0.000  0.000  0.024
   15  0.023  0.000  0.000  0.023
   16  0.024  0.000  0.000  0.024
   17  0.023  0.000  0.000  0.023
   18  0.023  0.000  0.000  0.023
   19  0.024  0.000  0.000  0.024
   20  0.027  0.000  0.000  0.027
   21  0.027  0.000  0.000  0.027
   22  0.024  0.000  0.000  0.024
   23  0.027  0.000  0.000  0.027
   24  0.024  0.000  0.000  0.024
   25  0.024  0.000  0.000  0.024
   26  0.024  0.000  0.000  0.024
   27  0.024  0.000  0.000  0.024
   28  0.007  0.001  0.000  0.007
   29  0.007  0.001  0.000  0.008
   30  0.007  0.001  0.000  0.008
   31  0.007  0.001  0.000  0.008
   32  0.007  0.001  0.000  0.008
   33  0.007  0.001  0.000  0.008
   34  0.007  0.001  0.000  0.008
   35  0.007  0.001  0.000  0.007
   36  0.012  0.004  0.001  0.017
   37  0.003  0.000  0.000  0.003
tot    0.566  0.019  0.002  0.587
 
band     3 # energy   -7.46802398 # occ.  2.00000000
 
ion      s      p      d    tot
    1  0.018  0.001  0.000  0.019
    2  0.017  0.001  0.000  0.019
    3  0.017  0.001  0.000  0.019
    4  0.017  0.001  0.000  0.019
    5  0.017  0.001  0.000  0.018
    6  0.017  0.001  0.000  0.019
    7  0.017  0.001  0.000  0.019
    8  0.017  0.001  0.000  0.019
    9  0.018  0.001  0.000  0.019
   10  0.011  0.002  0.001  0.014
   11  0.011  0.002  0.001  0.013
   12  0.011  0.002  0.001  0.014
   13  0.011  0.002  0.001  0.013
   14  0.011  0.002  0.001  0.013
   15  0.011  0.002  0.001  0.014
   16  0.011  0.002  0.001  0.014
   17  0.011  0.002  0.001  0.014
   18  0.011  0.002  0.001  0.014
   19  0.008  0.002  0.000  0.011
   20  0.009  0.003  0.000  0.012
   21  0.009  0.003  0.000  0.012
   22  0.008  0.002  0.000  0.011
   23  0.009  0.003  0.000  0.012
   24  0.008  0.002  0.000  0.011
   25  0.008  0.002  0.000  0.011
   26  0.008  0.002  0.000  0.011
   27  0.008  0.002  0.000  0.011
   28  0.017  0.001  0.001  0.018
   29  0.019  0.001  0.001  0.020
   30  0.019  0.001  0.001  0.020
   31  0.019  0.001  0.001  0.020
   32  0.019  0.001  0.001  0.020
   33  0.019  0.001  0.001  0.020
   34  0.019  0.001  0.001  0.020
   35  0.016  0.001  0.001  0.017
   36  0.032  0.004  0.010  0.045
   37  0.003  0.000  0.000  0.003
tot    0.512  0.056  0.028  0.597
 
band     4 # energy   -5.96765360 # occ.  2.00000000
 
ion      s      p      d    tot
    1  0.012  0.000  0.003  0.016
    2  0.012  0.000  0.003  0.015
    3  0.012  0.000  0.003  0.015
    4  0.012  0.000  0.003  0.015
    5  0.006  0.000  0.004  0.010
    6  0.012  0.000  0.003  0.015
    7  0.012  0.000  0.003  0.015
    8  0.012  0.000  0.003  0.015
    9  0.019  0.000  0.002  0.021
   10  0.001  0.003  0.001  0.006
   11  0.007  0.004  0.001  0.012
   12  0.001  0.003  0.001  0.006
   13  0.007  0.004  0.001  0.012
   14  0.007  0.004  0.001  0.012
   15  0.000  0.002  0.002  0.004
   16  0.001  0.003  0.001  0.006
   17  0.000  0.002  0.002  0.004
   18  0.000  0.002  0.002  0.004
   19  0.002  0.002  0.005  0.009
   20  0.022  0.004  0.010  0.036
   21  0.022  0.004  0.010  0.036
   22  0.001  0.003  0.004  0.007
   23  0.022  0.004  0.010  0.036
   24  0.001  0.003  0.004  0.007
   25  0.002  0.002  0.005  0.009
   26  0.002  0.002  0.005  0.009
   27  0.001  0.003  0.004  0.007
   28  0.015  0.000  0.004  0.019
   29  0.016  0.000  0.007  0.024
   30  0.016  0.000  0.007  0.024
   31  0.016  0.000  0.007  0.024
   32  0.016  0.000  0.007  0.024
   33  0.016  0.000  0.007  0.024
   34  0.016  0.000  0.007  0.024
   35  0.019  0.000  0.004  0.023
   36  0.004  0.003  0.099  0.107
   37  0.003  0.017  0.000  0.020
tot    0.343  0.078  0.249  0.670
 
band     5 # energy   -5.83211697 # occ.  2.00000000
 
ion      s      p      d    tot
    1  0.000  0.001  0.004  0.005
    2  0.005  0.001  0.001  0.008
    3  0.001  0.001  0.001  0.003
    4  0.007  0.002  0.002  0.010
    5  0.000  0.002  0.003  0.005
    6  0.005  0.001  0.002  0.008
    7  0.000  0.001  0.001  0.002
    8  0.002  0.001  0.001  0.005
    9  0.000  0.000  0.001  0.001
   10  0.040  0.004  0.003  0.048
   11  0.003  0.009  0.005  0.017
   12  0.018  0.002  0.008  0.028
   13  0.013  0.006  0.005  0.025
   14  0.030  0.001  0.005  0.036
   15  0.000  0.006  0.005  0.010
   16  0.004  0.001  0.011  0.016
   17  0.000  0.004  0.004  0.008
   18  0.001  0.002  0.003  0.005
   19  0.001  0.011  0.001  0.014
   20  0.073  0.002  0.011  0.086
   21  0.033  0.004  0.015  0.052
   22  0.007  0.003  0.008  0.018
   23  0.008  0.005  0.017  0.030
   24  0.015  0.004  0.003  0.022
   25  0.013  0.001  0.006  0.019
   26  0.006  0.007  0.003  0.016
   27  0.002  0.003  0.011  0.015
   28  0.000  0.002  0.003  0.004
   29  0.009  0.003  0.005  0.016
   30  0.003  0.001  0.003  0.007
   31  0.009  0.004  0.006  0.018
   32  0.005  0.002  0.006  0.013
   33  0.001  0.001  0.003  0.004
   34  0.001  0.001  0.004  0.007
   35  0.000  0.000  0.003  0.003
   36  0.000  0.005  0.072  0.077
   37  0.000  0.009  0.000  0.009
tot    0.315  0.112  0.243  0.670
 
band     6 # energy   -5.83197820 # occ.  2.00000000
 
ion      s      p      d    tot
    1  0.000  0.001  0.004  0.005
    2  0.001  0.001  0.001  0.004
    3  0.005  0.002  0.002  0.009
    4  0.000  0.001  0.001  0.002
    5  0.000  0.002  0.003  0.005
    6  0.002  0.001  0.001  0.004
    7  0.007  0.002  0.002  0.010
    8  0.004  0.001  0.001  0.007
    9  0.000  0.000  0.001  0.001
   10  0.002  0.000  0.011  0.013
   11  0.028  0.002  0.005  0.035
   12  0.023  0.003  0.007  0.033
   13  0.017  0.005  0.005  0.028
   14  0.001  0.010  0.005  0.016
   15  0.001  0.002  0.003  0.006
   16  0.037  0.004  0.004  0.045
   17  0.000  0.003  0.004  0.008
   18  0.000  0.006  0.005  0.011
   19  0.012  0.001  0.005  0.019
   20  0.003  0.005  0.018  0.025
   21  0.043  0.003  0.014  0.060
   22  0.009  0.003  0.006  0.019
   23  0.068  0.002  0.011  0.082
   24  0.001  0.003  0.011  0.015
   25  0.001  0.012  0.001  0.014
   26  0.008  0.006  0.004  0.017
   27  0.014  0.004  0.003  0.021
   28  0.000  0.002  0.003  0.004
   29  0.001  0.001  0.004  0.006
   30  0.006  0.003  0.006  0.015
   31  0.000  0.001  0.003  0.004
   32  0.005  0.002  0.003  0.009
   33  0.009  0.003  0.006  0.018
   34  0.008  0.003  0.004  0.015
   35  0.000  0.000  0.003  0.003
   36  0.000  0.005  0.072  0.077
   37  0.000  0.009  0.000  0.009
tot    0.315  0.112  0.243  0.670
 
band     7 # energy   -5.80005952 # occ.  2.00000000
 
ion      s      p      d    tot
    1  0.001  0.000  0.001  0.002
    2  0.003  0.001  0.003  0.007
    3  0.003  0.001  0.003  0.007
    4  0.003  0.001  0.003  0.007
    5  0.026  0.002  0.000  0.028
    6  0.003  0.001  0.003  0.007
    7  0.003  0.001  0.003  0.007
    8  0.003  0.001  0.003  0.007
    9  0.000  0.001  0.003  0.005
   10  0.003  0.004  0.006  0.012
   11  0.013  0.006  0.004  0.022
   12  0.003  0.004  0.006  0.012
   13  0.013  0.006  0.004  0.022
   14  0.013  0.006  0.004  0.022
   15  0.019  0.002  0.006  0.027
   16  0.003  0.004  0.006  0.012
   17  0.019  0.002  0.006  0.027
   18  0.019  0.002  0.006  0.027
   19  0.017  0.001  0.009  0.026
   20  0.019  0.008  0.006  0.034
   21  0.020  0.008  0.006  0.034
   22  0.012  0.006  0.004  0.022
   23  0.020  0.008  0.006  0.034
   24  0.012  0.006  0.004  0.022
   25  0.017  0.001  0.009  0.026
   26  0.017  0.001  0.009  0.026
   27  0.012  0.006  0.004  0.022
   28  0.001  0.001  0.002  0.004
   29  0.002  0.002  0.006  0.010
   30  0.002  0.002  0.006  0.010
   31  0.002  0.002  0.006  0.010
   32  0.002  0.002  0.006  0.010
   33  0.002  0.002  0.006  0.010
   34  0.002  0.002  0.006  0.010
   35  0.002  0.001  0.001  0.005
   36  0.064  0.010  0.000  0.074
   37  0.008  0.006  0.000  0.014
tot    0.375  0.121  0.171  0.667
 
band     8 # energy   -5.71056616 # occ.  2.00000000
 
ion      s      p      d    tot
    1  0.000  0.001  0.002  0.004
    2  0.008  0.002  0.002  0.012
    3  0.001  0.001  0.002  0.003
    4  0.009  0.002  0.002  0.013
    5  0.000  0.000  0.003  0.004
    6  0.006  0.002  0.002  0.009
    7  0.000  0.001  0.002  0.003
    8  0.004  0.002  0.002  0.008
    9  0.000  0.003  0.005  0.008
   10  0.000  0.012  0.002  0.014
   11  0.016  0.003  0.004  0.024
   12  0.006  0.004  0.005  0.015
   13  0.014  0.003  0.005  0.023
   14  0.000  0.002  0.012  0.014
   15  0.046  0.003  0.006  0.055
   16  0.008  0.003  0.005  0.015
   17  0.039  0.004  0.007  0.049
   18  0.000  0.005  0.012  0.017
   19  0.039  0.004  0.005  0.047
   20  0.000  0.011  0.003  0.015
   21  0.000  0.005  0.005  0.009
   22  0.033  0.004  0.006  0.043
   23  0.000  0.003  0.005  0.008
   24  0.000  0.011  0.005  0.016
   25  0.000  0.000  0.017  0.017
   26  0.033  0.003  0.007  0.043
   27  0.038  0.003  0.006  0.047
   28  0.000  0.002  0.005  0.007
   29  0.013  0.003  0.003  0.019
   30  0.002  0.002  0.004  0.007
   31  0.013  0.003  0.003  0.019
   32  0.007  0.001  0.003  0.011
   33  0.001  0.002  0.004  0.006
   34  0.005  0.001  0.003  0.009
   35  0.000  0.004  0.005  0.008
   36  0.000  0.000  0.015  0.016
   37  0.000  0.000  0.000  0.000
tot    0.342  0.115  0.183  0.639
 
band     9 # energy   -5.71044869 # occ.  2.00000000
 
ion      s      p      d    tot
    1  0.000  0.001  0.002  0.004
    2  0.001  0.001  0.002  0.004
    3  0.008  0.002  0.002  0.013
    4  0.000  0.001  0.002  0.003
    5  0.000  0.000  0.003  0.004
    6  0.004  0.001  0.002  0.007
    7  0.009  0.002  0.002  0.013
    8  0.005  0.002  0.002  0.008
    9  0.000  0.003  0.005  0.008
   10  0.009  0.000  0.006  0.015
   11  0.004  0.002  0.010  0.017
   12  0.003  0.009  0.003  0.014
   13  0.006  0.002  0.009  0.018
   14  0.020  0.004  0.002  0.026
   15  0.011  0.005  0.010  0.026
   16  0.002  0.010  0.002  0.014
   17  0.017  0.004  0.009  0.031
   18  0.057  0.003  0.004  0.064
   19  0.009  0.001  0.014  0.024
   20  0.000  0.002  0.005  0.007
   21  0.000  0.008  0.004  0.012
   22  0.015  0.008  0.005  0.028
   23  0.000  0.009  0.004  0.013
   24  0.047  0.001  0.006  0.054
   25  0.048  0.005  0.002  0.054
   26  0.015  0.001  0.012  0.029
   27  0.009  0.009  0.005  0.024
   28  0.000  0.002  0.005  0.007
   29  0.001  0.001  0.003  0.005
   30  0.012  0.002  0.003  0.016
   31  0.000  0.001  0.003  0.005
   32  0.007  0.002  0.004  0.013
   33  0.013  0.002  0.003  0.018
   34  0.009  0.003  0.003  0.015
   35  0.000  0.004  0.005  0.008
   36  0.000  0.000  0.015  0.016
   37  0.000  0.000  0.000  0.000
tot    0.342  0.115  0.183  0.639
 
band    10 # energy   -5.68917571 # occ.  2.00000000
 
ion      s      p      d    tot
    1  0.023  0.003  0.001  0.027
    2  0.000  0.002  0.004  0.006
    3  0.000  0.002  0.004  0.006
    4  0.000  0.002  0.004  0.006
    5  0.001  0.000  0.001  0.002
    6  0.000  0.002  0.004  0.006
    7  0.000  0.002  0.004  0.006
    8  0.000  0.002  0.004  0.006
    9  0.009  0.002  0.001  0.011
   10  0.029  0.005  0.006  0.040
   11  0.005  0.000  0.012  0.017
   12  0.029  0.005  0.006  0.041
   13  0.005  0.000  0.012  0.017
   14  0.005  0.000  0.012  0.017
   15  0.013  0.008  0.003  0.025
   16  0.029  0.005  0.006  0.041
   17  0.013  0.008  0.003  0.025
   18  0.013  0.008  0.003  0.024
   19  0.021  0.009  0.002  0.032
   20  0.000  0.002  0.011  0.014
   21  0.000  0.002  0.011  0.014
   22  0.025  0.003  0.009  0.037
   23  0.000  0.002  0.011  0.014
   24  0.026  0.003  0.009  0.037
   25  0.021  0.009  0.002  0.032
   26  0.021  0.009  0.002  0.032
   27  0.025  0.003  0.009  0.037
   28  0.019  0.003  0.000  0.022
   29  0.000  0.002  0.004  0.006
   30  0.000  0.002  0.004  0.006
   31  0.000  0.002  0.004  0.006
   32  0.000  0.002  0.004  0.006
   33  0.000  0.002  0.004  0.006
   34  0.000  0.002  0.004  0.006
   35  0.011  0.002  0.002  0.015
   36  0.000  0.000  0.000  0.000
   37  0.000  0.000  0.000  0.000
tot    0.344  0.114  0.181  0.639
 
band    11 # energy   -5.16586101 # occ.  2.00000000
 
ion      s      p      d    tot
    1  0.013  0.000  0.007  0.020
    2  0.006  0.002  0.010  0.018
    3  0.006  0.002  0.010  0.018
    4  0.006  0.002  0.010  0.018
    5  0.002  0.004  0.010  0.015
    6  0.006  0.002  0.010  0.018
    7  0.006  0.002  0.010  0.018
    8  0.006  0.002  0.010  0.018
    9  0.027  0.000  0.004  0.031
   10  0.004  0.001  0.020  0.025
   11  0.025  0.002  0.011  0.038
   12  0.004  0.001  0.020  0.025
   13  0.025  0.002  0.011  0.038
   14  0.025  0.002  0.011  0.038
   15  0.000  0.001  0.017  0.018
   16  0.004  0.001  0.020  0.025
   17  0.000  0.001  0.017  0.018
   18  0.000  0.001  0.017  0.018
   19  0.000  0.000  0.005  0.005
   20  0.004  0.005  0.034  0.043
   21  0.004  0.005  0.034  0.043
   22  0.001  0.000  0.008  0.009
   23  0.004  0.005  0.034  0.043
   24  0.001  0.000  0.008  0.009
   25  0.000  0.000  0.005  0.005
   26  0.000  0.000  0.005  0.005
   27  0.001  0.000  0.008  0.009
   28  0.001  0.000  0.001  0.002
   29  0.001  0.000  0.002  0.003
   30  0.001  0.000  0.002  0.003
   31  0.001  0.000  0.002  0.003
   32  0.001  0.000  0.002  0.003
   33  0.001  0.000  0.002  0.003
   34  0.001  0.000  0.002  0.003
   35  0.001  0.000  0.001  0.001
   36  0.009  0.004  0.085  0.098
   37  0.012  0.045  0.000  0.057
tot    0.209  0.092  0.460  0.760
 
band    12 # energy   -5.11391274 # occ.  2.00000000
 
ion      s      p      d    tot
    1  0.000  0.000  0.007  0.007
    2  0.007  0.002  0.004  0.013
    3  0.014  0.003  0.004  0.021
    4  0.009  0.002  0.004  0.016
    5  0.000  0.004  0.007  0.011
    6  0.002  0.001  0.003  0.006
    7  0.015  0.003  0.004  0.022
    8  0.000  0.001  0.003  0.005
    9  0.000  0.002  0.007  0.009
   10  0.000  0.001  0.016  0.017
   11  0.021  0.002  0.007  0.030
   12  0.007  0.002  0.007  0.015
   13  0.025  0.003  0.006  0.033
   14  0.000  0.001  0.016  0.017
   15  0.004  0.002  0.007  0.013
   16  0.006  0.002  0.008  0.015
   17  0.005  0.001  0.006  0.013
   18  0.000  0.005  0.007  0.013
   19  0.001  0.000  0.005  0.006
   20  0.000  0.002  0.051  0.052
   21  0.003  0.004  0.014  0.021
   22  0.003  0.004  0.009  0.015
   23  0.002  0.003  0.020  0.026
   24  0.000  0.000  0.006  0.006
   25  0.000  0.000  0.005  0.005
   26  0.001  0.000  0.005  0.006
   27  0.002  0.003  0.008  0.013
   28  0.000  0.000  0.002  0.002
   29  0.007  0.002  0.005  0.014
   30  0.001  0.003  0.013  0.017
   31  0.007  0.002  0.006  0.015
   32  0.002  0.000  0.007  0.009
   33  0.002  0.003  0.013  0.018
   34  0.003  0.000  0.005  0.008
   35  0.000  0.001  0.001  0.003
   36  0.000  0.000  0.183  0.183
   37  0.000  0.053  0.000  0.053
tot    0.146  0.120  0.481  0.747
 
band    13 # energy   -5.11386296 # occ.  2.00000000
 
ion      s      p      d    tot
    1  0.000  0.000  0.007  0.007
    2  0.009  0.002  0.004  0.015
    3  0.002  0.001  0.004  0.007
    4  0.007  0.002  0.004  0.012
    5  0.000  0.004  0.007  0.011
    6  0.014  0.003  0.004  0.021
    7  0.001  0.001  0.004  0.005
    8  0.015  0.003  0.004  0.022
    9  0.000  0.002  0.007  0.009
   10  0.008  0.002  0.004  0.015
   11  0.010  0.002  0.012  0.023
   12  0.002  0.002  0.014  0.017
   13  0.006  0.001  0.013  0.020
   14  0.030  0.003  0.003  0.036
   15  0.002  0.004  0.007  0.013
   16  0.003  0.002  0.012  0.016
   17  0.001  0.004  0.007  0.013
   18  0.006  0.000  0.006  0.012
   19  0.000  0.000  0.005  0.005
   20  0.003  0.004  0.006  0.013
   21  0.001  0.002  0.043  0.045
   22  0.001  0.001  0.007  0.008
   23  0.001  0.002  0.037  0.040
   24  0.003  0.004  0.009  0.017
   25  0.001  0.000  0.005  0.006
   26  0.000  0.000  0.005  0.005
   27  0.001  0.001  0.007  0.009
   28  0.000  0.000  0.002  0.002
   29  0.000  0.001  0.012  0.013
   30  0.006  0.001  0.003  0.010
   31  0.000  0.001  0.010  0.011
   32  0.005  0.003  0.010  0.018
   33  0.005  0.000  0.003  0.009
   34  0.004  0.003  0.011  0.018
   35  0.000  0.001  0.001  0.003
   36  0.000  0.000  0.183  0.183
   37  0.000  0.053  0.000  0.053
tot    0.146  0.120  0.481  0.747
 
band    14 # energy   -5.02456979 # occ.  2.00000000
 
ion      s      p      d    tot
    1  0.003  0.002  0.005  0.010
    2  0.002  0.002  0.010  0.014
    3  0.002  0.002  0.010  0.014
    4  0.002  0.002  0.010  0.014
    5  0.044  0.002  0.001  0.047
    6  0.002  0.002  0.010  0.014
    7  0.002  0.002  0.010  0.014
    8  0.002  0.002  0.010  0.014
    9  0.000  0.001  0.006  0.007
   10  0.009  0.001  0.016  0.026
   11  0.002  0.003  0.015  0.021
   12  0.009  0.001  0.016  0.026
   13  0.002  0.003  0.015  0.021
   14  0.002  0.003  0.015  0.021
   15  0.012  0.000  0.017  0.029
   16  0.009  0.001  0.016  0.026
   17  0.012  0.000  0.017  0.029
   18  0.012  0.000  0.017  0.029
   19  0.010  0.002  0.009  0.021
   20  0.000  0.002  0.026  0.028
   21  0.000  0.002  0.026  0.028
   22  0.002  0.001  0.015  0.018
   23  0.000  0.002  0.026  0.028
   24  0.002  0.001  0.015  0.018
   25  0.010  0.002  0.009  0.021
   26  0.010  0.002  0.009  0.021
   27  0.002  0.001  0.015  0.018
   28  0.008  0.002  0.002  0.012
   29  0.000  0.003  0.012  0.015
   30  0.000  0.003  0.011  0.015
   31  0.000  0.003  0.011  0.015
   32  0.000  0.003  0.011  0.015
   33  0.000  0.003  0.012  0.015
   34  0.000  0.003  0.012  0.015
   35  0.003  0.001  0.001  0.005
   36  0.055  0.004  0.009  0.067
   37  0.003  0.001  0.000  0.004
tot    0.237  0.072  0.443  0.752
 
band    15 # energy   -5.01923195 # occ.  2.00000000
 
ion      s      p      d    tot
    1  0.000  0.006  0.009  0.015
    2  0.013  0.003  0.005  0.021
    3  0.017  0.003  0.005  0.026
    4  0.013  0.003  0.005  0.022
    5  0.000  0.001  0.010  0.011
    6  0.000  0.002  0.005  0.007
    7  0.018  0.004  0.005  0.026
    8  0.000  0.002  0.005  0.007
    9  0.000  0.002  0.009  0.012
   10  0.025  0.003  0.006  0.034
   11  0.000  0.004  0.013  0.016
   12  0.006  0.003  0.016  0.025
   13  0.000  0.004  0.013  0.016
   14  0.000  0.000  0.007  0.008
   15  0.005  0.001  0.015  0.021
   16  0.007  0.003  0.016  0.025
   17  0.005  0.001  0.015  0.021
   18  0.020  0.004  0.005  0.029
   19  0.002  0.001  0.014  0.017
   20  0.005  0.004  0.011  0.020
   21  0.001  0.002  0.008  0.011
   22  0.001  0.001  0.017  0.019
   23  0.001  0.002  0.008  0.011
   24  0.003  0.001  0.002  0.007
   25  0.009  0.005  0.004  0.018
   26  0.002  0.001  0.014  0.017
   27  0.001  0.001  0.016  0.019
   28  0.000  0.004  0.005  0.009
   29  0.009  0.003  0.010  0.022
   30  0.022  0.002  0.007  0.031
   31  0.010  0.003  0.009  0.022
   32  0.003  0.002  0.010  0.015
   33  0.022  0.002  0.007  0.032
   34  0.002  0.002  0.010  0.014
   35  0.000  0.003  0.007  0.010
   36  0.000  0.000  0.073  0.073
   37  0.000  0.006  0.000  0.006
tot    0.223  0.095  0.396  0.714
 
band    16 # energy   -5.01915754 # occ.  2.00000000
 
ion      s      p      d    tot
    1  0.000  0.006  0.009  0.015
    2  0.008  0.002  0.005  0.015
    3  0.003  0.002  0.005  0.010
    4  0.007  0.002  0.005  0.014
    5  0.000  0.001  0.010  0.011
    6  0.020  0.004  0.005  0.029
    7  0.003  0.002  0.005  0.010
    8  0.020  0.004  0.005  0.029
    9  0.000  0.002  0.009  0.012
   10  0.000  0.003  0.019  0.022
   11  0.000  0.001  0.009  0.011
   12  0.019  0.003  0.009  0.031
   13  0.000  0.001  0.009  0.010
   14  0.000  0.005  0.014  0.019
   15  0.014  0.003  0.008  0.026
   16  0.019  0.003  0.009  0.031
   17  0.015  0.003  0.008  0.026
   18  0.000  0.000  0.018  0.019
   19  0.006  0.004  0.008  0.018
   20  0.000  0.001  0.007  0.008
   21  0.004  0.004  0.010  0.017
   22  0.003  0.001  0.007  0.010
   23  0.003  0.003  0.010  0.017
   24  0.000  0.002  0.021  0.023
   25  0.000  0.000  0.017  0.017
   26  0.007  0.004  0.007  0.018
   27  0.002  0.001  0.007  0.011
   28  0.000  0.004  0.005  0.009
   29  0.014  0.001  0.009  0.024
   30  0.001  0.003  0.011  0.014
   31  0.013  0.001  0.009  0.023
   32  0.020  0.003  0.008  0.031
   33  0.001  0.003  0.011  0.014
   34  0.020  0.003  0.008  0.031
   35  0.000  0.003  0.007  0.010
   36  0.000  0.000  0.073  0.073
   37  0.000  0.006  0.000  0.006
tot    0.223  0.095  0.396  0.714
 
band    17 # energy   -4.92402483 # occ.  2.00000000
 
ion      s      p      d    tot
    1  0.030  0.003  0.000  0.033
    2  0.000  0.003  0.010  0.014
    3  0.000  0.003  0.010  0.014
    4  0.000  0.003  0.010  0.014
    5  0.001  0.000  0.000  0.002
    6  0.000  0.003  0.010  0.014
    7  0.000  0.003  0.010  0.014
    8  0.000  0.003  0.010  0.014
    9  0.032  0.004  0.001  0.037
   10  0.007  0.003  0.010  0.020
   11  0.001  0.000  0.017  0.018
   12  0.007  0.003  0.010  0.020
   13  0.001  0.000  0.017  0.018
   14  0.001  0.000  0.017  0.018
   15  0.009  0.004  0.017  0.030
   16  0.007  0.003  0.010  0.020
   17  0.009  0.004  0.017  0.030
   18  0.009  0.004  0.017  0.030
   19  0.004  0.003  0.017  0.024
   20  0.000  0.000  0.016  0.016
   21  0.000  0.000  0.016  0.016
   22  0.013  0.004  0.011  0.028
   23  0.000  0.000  0.016  0.016
   24  0.013  0.004  0.011  0.028
   25  0.004  0.003  0.017  0.024
   26  0.004  0.003  0.017  0.024
   27  0.013  0.004  0.011  0.028
   28  0.032  0.003  0.000  0.035
   29  0.000  0.003  0.010  0.013
   30  0.000  0.003  0.010  0.013
   31  0.000  0.003  0.010  0.013
   32  0.000  0.003  0.010  0.013
   33  0.000  0.003  0.010  0.013
   34  0.000  0.003  0.010  0.013
   35  0.029  0.004  0.002  0.035
   36  0.000  0.000  0.000  0.000
   37  0.000  0.000  0.000  0.000
tot    0.226  0.090  0.391  0.707
 
band    18 # energy   -4.77283188 # occ.  2.00000000
 
ion      s      p      d    tot
    1  0.000  0.000  0.004  0.004
    2  0.002  0.001  0.002  0.004
    3  0.000  0.000  0.002  0.002
    4  0.005  0.001  0.002  0.007
    5  0.000  0.002  0.002  0.003
    6  0.006  0.001  0.002  0.008
    7  0.001  0.001  0.002  0.004
    8  0.004  0.001  0.002  0.006
    9  0.000  0.001  0.004  0.005
   10  0.001  0.001  0.003  0.005
   11  0.000  0.000  0.009  0.009
   12  0.000  0.001  0.003  0.004
   13  0.002  0.001  0.006  0.008
   14  0.003  0.002  0.003  0.008
   15  0.000  0.000  0.011  0.012
   16  0.000  0.001  0.002  0.002
   17  0.001  0.000  0.006  0.007
   18  0.001  0.000  0.003  0.004
   19  0.000  0.004  0.014  0.019
   20  0.006  0.002  0.022  0.031
   21  0.004  0.001  0.014  0.019
   22  0.005  0.001  0.007  0.014
   23  0.000  0.000  0.002  0.003
   24  0.009  0.001  0.004  0.014
   25  0.001  0.000  0.006  0.007
   26  0.001  0.002  0.009  0.012
   27  0.000  0.001  0.012  0.013
   28  0.000  0.002  0.016  0.018
   29  0.013  0.002  0.007  0.023
   30  0.003  0.002  0.006  0.012
   31  0.028  0.003  0.008  0.039
   32  0.028  0.003  0.008  0.038
   33  0.003  0.002  0.007  0.011
   34  0.012  0.002  0.007  0.022
   35  0.000  0.002  0.014  0.016
   36  0.000  0.025  0.163  0.188
   37  0.000  0.122  0.000  0.122
tot    0.139  0.192  0.392  0.723
 
band    19 # energy   -4.77279816 # occ.  2.00000000
 
ion      s      p      d    tot
    1  0.000  0.000  0.004  0.004
    2  0.004  0.001  0.002  0.007
    3  0.006  0.001  0.002  0.008
    4  0.001  0.001  0.002  0.003
    5  0.000  0.002  0.002  0.003
    6  0.000  0.000  0.002  0.002
    7  0.005  0.001  0.002  0.007
    8  0.002  0.001  0.002  0.004
    9  0.000  0.001  0.004  0.005
   10  0.000  0.001  0.002  0.003
   11  0.003  0.002  0.003  0.008
   12  0.000  0.001  0.002  0.003
   13  0.001  0.001  0.006  0.009
   14  0.000  0.000  0.009  0.009
   15  0.001  0.000  0.002  0.004
   16  0.001  0.001  0.003  0.005
   17  0.001  0.000  0.007  0.008
   18  0.000  0.000  0.011  0.011
   19  0.001  0.000  0.005  0.007
   20  0.001  0.000  0.004  0.005
   21  0.003  0.001  0.012  0.016
   22  0.004  0.001  0.008  0.014
   23  0.007  0.002  0.023  0.032
   24  0.001  0.001  0.012  0.014
   25  0.000  0.004  0.014  0.018
   26  0.001  0.003  0.010  0.013
   27  0.009  0.001  0.003  0.014
   28  0.000  0.002  0.016  0.018
   29  0.016  0.002  0.007  0.025
   30  0.026  0.003  0.008  0.037
   31  0.001  0.002  0.006  0.010
   32  0.001  0.002  0.006  0.010
   33  0.026  0.003  0.008  0.037
   34  0.017  0.002  0.007  0.026
   35  0.000  0.002  0.014  0.016
   36  0.000  0.025  0.163  0.188
   37  0.000  0.122  0.000  0.122
tot    0.139  0.192  0.392  0.723
 
band    20 # energy   -4.47138499 # occ.  2.00000000
 
ion      s      p      d    tot
    1  0.002  0.000  0.001  0.003
    2  0.000  0.000  0.001  0.001
    3  0.000  0.000  0.001  0.001
    4  0.000  0.000  0.001  0.001
    5  0.001  0.000  0.001  0.003
    6  0.000  0.000  0.001  0.001
    7  0.000  0.000  0.001  0.001
    8  0.000  0.000  0.001  0.001
    9  0.000  0.000  0.001  0.001
   10  0.000  0.000  0.004  0.005
   11  0.000  0.001  0.010  0.011
   12  0.000  0.000  0.004  0.005
   13  0.000  0.001  0.010  0.011
   14  0.000  0.001  0.010  0.011
   15  0.000  0.000  0.006  0.006
   16  0.000  0.000  0.004  0.005
   17  0.000  0.000  0.006  0.006
   18  0.000  0.000  0.006  0.006
   19  0.001  0.000  0.011  0.012
   20  0.004  0.001  0.034  0.039
   21  0.004  0.001  0.034  0.039
   22  0.001  0.002  0.032  0.035
   23  0.004  0.001  0.034  0.039
   24  0.001  0.002  0.032  0.035
   25  0.001  0.000  0.011  0.012
   26  0.001  0.000  0.011  0.012
   27  0.001  0.002  0.032  0.035
   28  0.006  0.000  0.006  0.012
   29  0.001  0.003  0.021  0.026
   30  0.001  0.003  0.021  0.026
   31  0.001  0.003  0.021  0.026
   32  0.001  0.003  0.021  0.026
   33  0.001  0.003  0.021  0.026
   34  0.001  0.003  0.021  0.026
   35  0.039  0.000  0.008  0.047
   36  0.000  0.000  0.169  0.170
   37  0.017  0.098  0.000  0.114
tot    0.092  0.133  0.609  0.834
 
band    21 # energy   -4.43680733 # occ.  2.00000000
 
ion      s      p      d    tot
    1  0.000  0.001  0.023  0.023
    2  0.015  0.002  0.006  0.023
    3  0.007  0.001  0.006  0.014
    4  0.014  0.002  0.006  0.022
    5  0.000  0.001  0.011  0.012
    6  0.002  0.001  0.006  0.009
    7  0.006  0.001  0.006  0.013
    8  0.001  0.001  0.006  0.008
    9  0.000  0.003  0.004  0.007
   10  0.000  0.000  0.056  0.056
   11  0.000  0.003  0.015  0.018
   12  0.000  0.000  0.020  0.021
   13  0.000  0.003  0.013  0.016
   14  0.000  0.000  0.002  0.002
   15  0.000  0.005  0.014  0.018
   16  0.000  0.000  0.017  0.017
   17  0.000  0.004  0.015  0.019
   18  0.000  0.000  0.027  0.027
   19  0.009  0.002  0.009  0.020
   20  0.000  0.000  0.062  0.062
   21  0.000  0.000  0.034  0.034
   22  0.003  0.001  0.015  0.019
   23  0.000  0.000  0.030  0.031
   24  0.000  0.001  0.005  0.006
   25  0.000  0.000  0.022  0.022
   26  0.008  0.002  0.010  0.020
   27  0.003  0.002  0.016  0.020
   28  0.000  0.000  0.006  0.006
   29  0.007  0.001  0.020  0.028
   30  0.000  0.001  0.017  0.019
   31  0.007  0.001  0.021  0.029
   32  0.006  0.000  0.020  0.026
   33  0.000  0.001  0.017  0.018
   34  0.005  0.000  0.019  0.025
   35  0.000  0.001  0.002  0.003
   36  0.000  0.000  0.103  0.103