 vasp.6.2.0 18Jan21 (build Jun 12 2021 23:27:24) complex                        
  
 executed on             LinuxIFC date 2022.05.26  20:26:42
 running on   28 total cores
 distrk:  each k-point on   28 cores,    1 groups
 distr:  one band on NCORE=   1 cores,   28 groups


--------------------------------------------------------------------------------------------------------


 INCAR:
   ISMEAR = -5
   SIGMA = 0.1
   ISPIN = 1
   EDIFF = 1.d-5
   EDIFFG = -0.01
   NSW = 0
   NELM = 150
   ENCUT = 500
   ISIF = 2
   IBRION = 2
   LREAL = Auto
   ALGO = Fast
   ICHARG = 11
   LORBIT = 10
   LCHARG = .F.
   LWAVE = .F.

 POTCAR:    PAW_PBE Cu 22Jun2005                  
 POTCAR:    PAW_PBE Zr_sv 04Jan2005               
 -----------------------------------------------------------------------------
|                                                                             |
|           W    W    AA    RRRRR   N    N  II  N    N   GGGG   !!!           |
|           W    W   A  A   R    R  NN   N  II  NN   N  G    G  !!!           |
|           W    W  A    A  R    R  N N  N  II  N N  N  G       !!!           |
|           W WW W  AAAAAA  RRRRR   N  N N  II  N  N N  G  GGG   !            |
|           WW  WW  A    A  R   R   N   NN  II  N   NN  G    G                |
|           W    W  A    A  R    R  N    N  II  N    N   GGGG   !!!           |
|                                                                             |
|     For optimal performance we recommend to set                             |
|       NCORE = 2 up to number-of-cores-per-socket                            |
|     NCORE specifies how many cores store one orbital (NPAR=cpu/NCORE).      |
|     This setting can greatly improve the performance of VASP for DFT.       |
|     The default, NCORE=1 might be grossly inefficient on modern             |
|     multi-core architectures or massively parallel machines. Do your        |
|     own testing! More info at https://www.vasp.at/wiki/index.php/NCORE      |
|     Unfortunately you need to use the default for GW and RPA                |
|     calculations (for HF NCORE is supported but not extensively tested      |
|     yet).                                                                   |
|                                                                             |
 -----------------------------------------------------------------------------

 POTCAR:    PAW_PBE Cu 22Jun2005                  
   VRHFIN =Cu: d10 p1                                                                               
   LEXCH  = PE                                                                                      
   EATOM  =  1390.9808 eV,  102.2342 Ry                                                             
                                                                                                    
   TITEL  = PAW_PBE Cu 22Jun2005                                                                    
   LULTRA =        F    use ultrasoft PP ?                                                          
   IUNSCR =        1    unscreen: 0-lin 1-nonlin 2-no                                               
   RPACOR =    2.000    partial core radius                                                         
   POMASS =   63.546; ZVAL   =   11.000    mass and valenz                                          
   RCORE  =    2.300    outmost cutoff radius                                                       
   RWIGS  =    2.200; RWIGS  =    1.164    wigner-seitz radius (au A)                               
   ENMAX  =  295.446; ENMIN  =  221.585 eV                                                          
   ICORE  =        3    local potential                                                             
   LCOR   =        T    correct aug charges                                                         
   LPAW   =        T    paw PP                                                                      
   EAUG   =  586.980                                                                                
   DEXC   =    0.000                                                                                
   RMAX   =    2.344    core radius for proj-oper                                                   
   RAUG   =    1.300    factor for augmentation sphere                                              
   RDEP   =    2.302    radius for radial grids                                                     
   RDEPT  =    1.771    core radius for aug-charge                                                  
                                                                                                    
   Atomic configuration                                                                             
    9 entries                                                                                       
     n  l   j            E        occ.                                                              
     1  0  0.50     -8850.2468   2.0000                                                             
     2  0  0.50     -1062.3498   2.0000                                                             
     2  1  1.50      -916.8226   6.0000                                                             
     3  0  0.50      -114.6929   2.0000                                                             
     3  1  1.50       -72.1325   6.0000                                                             
     3  2  2.50        -5.0394  10.0000                                                             
     4  0  0.50        -4.6097   1.0000                                                             
     4  1  0.50        -4.0817   0.0000                                                             
     4  3  2.50        -1.3606   0.0000                                                             
   Description                                                                                      
     l       E           TYP  RCUT    TYP  RCUT                                                     
     2     -5.0393973     23  2.200                                                                 
     2     10.8846608     23  2.200                                                                 
     0     -4.6097109     23  2.200                                                                 
     0      8.2520465     23  2.200                                                                 
     1     -2.7211652     23  2.200                                                                 
     1     21.7055443     23  2.200                                                                 
     3      2.7211652     23  2.300                                                                 
  local pseudopotential read in
  partial core-charges read in
  partial kinetic energy density read in
  atomic valenz-charges read in
  non local Contribution for L=           2  read in
    real space projection operators read in
  non local Contribution for L=           2  read in
    real space projection operators read in
  non local Contribution for L=           0  read in
    real space projection operators read in
  non local Contribution for L=           0  read in
    real space projection operators read in
  non local Contribution for L=           1  read in
    real space projection operators read in
  non local Contribution for L=           1  read in
    real space projection operators read in
    PAW grid and wavefunctions read in
 
   number of l-projection  operators is LMAX  =           6
   number of lm-projection operators is LMMAX =          18
 
 POTCAR:    PAW_PBE Zr_sv 04Jan2005               
   VRHFIN =Zr: 4s4p5s4d                                                                             
   LEXCH  = PE                                                                                      
   EATOM  =  1284.2219 eV,   94.3876 Ry                                                             
                                                                                                    
   TITEL  = PAW_PBE Zr_sv 04Jan2005                                                                 
   LULTRA =        F    use ultrasoft PP ?                                                          
   IUNSCR =        1    unscreen: 0-lin 1-nonlin 2-no                                               
   RPACOR =    2.200    partial core radius                                                         
   POMASS =   91.224; ZVAL   =   12.000    mass and valenz                                          
   RCORE  =    2.500    outmost cutoff radius                                                       
   RWIGS  =    3.070; RWIGS  =    1.625    wigner-seitz radius (au A)                               
   ENMAX  =  229.898; ENMIN  =  172.424 eV                                                          
   ICORE  =        3    local potential                                                             
   LCOR   =        T    correct aug charges                                                         
   LPAW   =        T    paw PP                                                                      
   EAUG   =  461.257                                                                                
   DEXC   =    0.000                                                                                
   RMAX   =    2.561    core radius for proj-oper                                                   
   RAUG   =    1.300    factor for augmentation sphere                                              
   RDEP   =    2.597    radius for radial grids                                                     
   RDEPT  =    2.007    core radius for aug-charge                                                  
                                                                                                    
   Atomic configuration                                                                             
   11 entries                                                                                       
     n  l   j            E        occ.                                                              
     1  0  0.50    -17820.0161   2.0000                                                             
     2  0  0.50     -2467.0882   2.0000                                                             
     2  1  1.50     -2199.6095   6.0000                                                             
     3  0  0.50      -402.4863   2.0000                                                             
     3  1  1.50      -315.3675   6.0000                                                             
     3  2  2.50      -172.4472  10.0000                                                             
     4  0  0.50       -52.4146   2.0000                                                             
     5  0  0.50        -3.8421   1.0000                                                             
     4  1  1.50       -30.5054   6.0000                                                             
     4  2  2.50        -2.3341   3.0000                                                             
     4  3  2.50        -1.3606   0.0000                                                             
   Description                                                                                      
     l       E           TYP  RCUT    TYP  RCUT                                                     
     0    -52.4145962     23  2.200                                                                 
     0     -3.8421270     23  2.500                                                                 
     1    -30.5053914     23  2.200                                                                 
     1     20.4087390     23  2.200                                                                 
     2     -2.3340816     23  2.500                                                                 
     2     -0.6120942     23  2.500                                                                 
     3     -4.0817478     23  2.500                                                                 
  local pseudopotential read in
  partial core-charges read in
  partial kinetic energy density read in
  atomic valenz-charges read in
  non local Contribution for L=           0  read in
    real space projection operators read in
  non local Contribution for L=           0  read in
    real space projection operators read in
  non local Contribution for L=           1  read in
    real space projection operators read in
  non local Contribution for L=           1  read in
    real space projection operators read in
  non local Contribution for L=           2  read in
    real space projection operators read in
  non local Contribution for L=           2  read in
    real space projection operators read in
    PAW grid and wavefunctions read in
 
   number of l-projection  operators is LMAX  =           6
   number of lm-projection operators is LMMAX =          18
 
 Optimization of the real space projectors (new method)

 maximal supplied QI-value         = 16.25
 optimisation between [QCUT,QGAM] = [ 11.38, 22.75] = [ 36.24,144.96] Ry 
 Optimized for a Real-space Cutoff    1.52 Angstroem

   l    n(q)    QCUT    max X(q) W(low)/X(q) W(high)/X(q)  e(spline) 
   2      9    11.376     4.610    0.21E-03    0.10E-03    0.26E-06
   2      9    11.376     8.522    0.33E-03    0.16E-03    0.37E-06
   0     10    11.376    51.609    0.62E-04    0.20E-04    0.13E-06
   0     10    11.376    27.747    0.54E-04    0.20E-04    0.13E-06
   1     10    11.376    20.408    0.13E-04    0.99E-04    0.19E-06
   1     10    11.376    13.425    0.12E-04    0.87E-04    0.17E-06
 Optimization of the real space projectors (new method)

 maximal supplied QI-value         = 15.12
 optimisation between [QCUT,QGAM] = [ 11.34, 22.83] = [ 36.00,145.93] Ry 
 Optimized for a Real-space Cutoff    1.47 Angstroem

   l    n(q)    QCUT    max X(q) W(low)/X(q) W(high)/X(q)  e(spline) 
   0     10    11.338    12.107    0.38E-04    0.13E-04    0.27E-07
   0     10    11.338     9.948    0.69E-04    0.30E-04    0.38E-07
   1     10    11.338     3.563    0.26E-04    0.18E-04    0.40E-07
   1     10    11.338     4.524    0.25E-03    0.39E-04    0.44E-06
   2      9    11.338    87.261    0.26E-03    0.91E-05    0.26E-06
   2      9    11.338    70.950    0.25E-03    0.91E-05    0.25E-06
  PAW_PBE Cu 22Jun2005                  :
 energy of atom  1       EATOM=-1390.9808
 kinetic energy error for atom=    0.0043 (will be added to EATOM!!)
  PAW_PBE Zr_sv 04Jan2005               :
 energy of atom  2       EATOM=-1284.2219
 kinetic energy error for atom=    0.0049 (will be added to EATOM!!)
 
 
 POSCAR: Cu-Zr
  positions in direct lattice
  velocities in cartesian coordinates
 exchange correlation table for  LEXCH =        8
   RHO(1)=    0.500       N(1)  =     2000
   RHO(2)=  100.500       N(2)  =     4000

 VTST: version 3.2, (02/03/18)

 CHAIN: initializing optimizer
 
 OPT: Using VASP Conjugate-Gradient optimizer
 CHAIN: Read ICHAIN            0
 
 POSCAR: Cu-Zr
  positions in direct lattice
  velocities in cartesian coordinates
 


--------------------------------------------------------------------------------------------------------


 ion  position               nearest neighbor table
   1  0.000  0.000  0.252-   7 2.57   3 2.57   4 2.57   2 2.57   6 2.57   8 2.57  12 2.57  10 2.57
                            16 2.57
   2  0.333  0.000  0.252-   8 2.57   9 2.57   5 2.57   1 2.57   3 2.57  11 2.57   4 2.57  10 2.57
                            17 2.57
   3  0.667  0.000  0.252-   1 2.57   7 2.57   6 2.57   9 2.57   2 2.57  12 2.57   5 2.57  18 2.57
                            11 2.57
   4  0.000  0.333  0.252-   5 2.57   6 2.57   1 2.57   7 2.57   2 2.57  13 2.57   9 2.57  10 2.57
                            15 2.57
   5  0.333  0.333  0.252-   4 2.57   2 2.57   7 2.57  13 2.57   8 2.57   6 2.57   3 2.57  11 2.57
                            14 2.57
   6  0.667  0.333  0.252-   4 2.57   9 2.57  15 2.57   3 2.57   1 2.57   8 2.57  14 2.57   5 2.57
                            12 2.57
   7  0.000  0.667  0.252-   1 2.57   3 2.57  16 2.57  18 2.57   4 2.57   5 2.57   8 2.57   9 2.57
                            13 2.57
   8  0.333  0.667  0.252-   9 2.57   2 2.57  17 2.57   6 2.57   1 2.57   7 2.57   5 2.57  14 2.57
                            16 2.57
   9  0.667  0.667  0.252-   8 2.57   6 2.57   2 2.57  17 2.57   3 2.57   7 2.57   4 2.57  15 2.57
                            18 2.57
  10  0.111  0.111  0.351-  26 2.54  19 2.54  11 2.57  12 2.57  13 2.57   1 2.57   2 2.57   4 2.57
                            15 2.57  16 2.57  17 2.57  20 2.59
  11  0.444  0.111  0.351-  27 2.56  10 2.57  13 2.57   2 2.57  17 2.57  14 2.57  12 2.57   5 2.57
                             3 2.57  18 2.57  20 2.58  21 2.58
  12  0.778  0.111  0.351-  19 2.54  25 2.54  15 2.57  10 2.57  14 2.57  18 2.57   3 2.57   1 2.57
                            16 2.57  11 2.57   6 2.57  21 2.59
  13  0.111  0.444  0.351-  22 2.56  16 2.57  18 2.57  10 2.57  11 2.57  14 2.57   5 2.57   4 2.57
                             7 2.57  15 2.57  23 2.58  20 2.58
  14  0.444  0.444  0.351-  24 2.56  15 2.57  17 2.57  12 2.57  16 2.57  13 2.57  11 2.57   6 2.57
                             8 2.57   5 2.57  21 2.58  23 2.58
  15  0.778  0.444  0.351-  19 2.54  24 2.56  22 2.56  14 2.57  17 2.57  12 2.57   6 2.57  18 2.57
                            10 2.57   9 2.57  13 2.57   4 2.57
  16  0.111  0.778  0.351-  25 2.54  26 2.54  18 2.57  13 2.57   7 2.57  14 2.57  17 2.57  12 2.57
                            10 2.57   8 2.57   1 2.57  23 2.59
  17  0.444  0.778  0.351-  26 2.54  27 2.56  24 2.56  14 2.57  15 2.57   8 2.57   9 2.57  11 2.57
                            16 2.57  18 2.57  10 2.57   2 2.57
  18  0.778  0.778  0.351-  25 2.54  22 2.56  27 2.56  16 2.57  13 2.57   7 2.57  15 2.57  12 2.57
                            17 2.57   9 2.57   3 2.57  11 2.57
  19  0.889  0.221  0.448-  12 2.54  10 2.54  15 2.54  25 2.55  26 2.55  32 2.56  31 2.56  22 2.57
                            24 2.57  28 2.57  21 2.58  20 2.58
  20  0.223  0.223  0.450-  23 2.55  21 2.55  29 2.57  31 2.57  27 2.57  22 2.57  26 2.58  19 2.58
                            11 2.58  13 2.58  10 2.59  36 2.86
  21  0.554  0.223  0.450-  20 2.55  23 2.55  32 2.57  30 2.57  24 2.57  27 2.57  19 2.58  25 2.58
                            14 2.58  11 2.58  12 2.59  36 2.86
  22  0.889  0.556  0.449-  18 2.56  15 2.56  13 2.56  31 2.56  33 2.56  24 2.57  27 2.57  23 2.57
                            20 2.57  19 2.57  25 2.57  35 2.58
  23  0.223  0.554  0.450-  20 2.55  21 2.55  33 2.57  34 2.57  22 2.57  24 2.57  25 2.58  26 2.58
                            13 2.58  14 2.58  16 2.59  36 2.86
  24  0.556  0.556  0.449-  15 2.56  17 2.56  14 2.56  32 2.56  34 2.56  22 2.57  27 2.57  21 2.57
                            23 2.57  19 2.57  26 2.57  35 2.58
  25  0.889  0.889  0.448-  12 2.54  16 2.54  18 2.54  19 2.55  26 2.55  33 2.56  30 2.56  22 2.57
                            27 2.57  28 2.57  21 2.58  23 2.58
  26  0.221  0.889  0.448-  10 2.54  16 2.54  17 2.54  25 2.55  19 2.55  29 2.56  34 2.56  27 2.57
                            24 2.57  28 2.57  20 2.58  23 2.58
  27  0.556  0.889  0.449-  17 2.56  18 2.56  11 2.56  29 2.56  30 2.56  24 2.57  22 2.57  20 2.57
                            21 2.57  26 2.57  25 2.57  35 2.58
  28  0.000  0.000  0.547-  33 2.55  30 2.55  31 2.55  29 2.55  32 2.55  34 2.55  25 2.57  19 2.57
                            26 2.57
  29  0.334  0.994  0.547-  34 2.47  35 2.54  28 2.55  27 2.56  26 2.56  20 2.57  30 2.60  31 2.62
                            36 2.64
  30  0.672  0.994  0.547-  33 2.47  35 2.54  28 2.55  27 2.56  25 2.56  21 2.57  29 2.60  32 2.62
                            36 2.64
  31  0.994  0.334  0.547-  32 2.47  35 2.54  28 2.55  22 2.56  19 2.56  20 2.57  33 2.60  29 2.62
                            36 2.64
  32  0.672  0.334  0.547-  31 2.47  35 2.54  28 2.55  24 2.56  19 2.56  21 2.57  34 2.60  30 2.62
                            36 2.64
  33  0.994  0.672  0.547-  30 2.47  35 2.54  28 2.55  22 2.56  25 2.56  23 2.57  31 2.60  34 2.62
                            36 2.64
  34  0.334  0.672  0.547-  29 2.47  35 2.54  28 2.55  24 2.56  26 2.56  23 2.57  32 2.60  33 2.62
                            36 2.64
  35  0.667  0.667  0.548-  34 2.54  32 2.54  29 2.54  30 2.54  33 2.54  31 2.54  24 2.58  27 2.58
                            22 2.58
  36  0.333  0.333  0.565-  31 2.64  29 2.64  33 2.64  32 2.64  34 2.64  30 2.64  23 2.86  20 2.86
                            21 2.86
 
  LATTYP: Found a hexagonal cell.
 ALAT       =     7.6967864036
 C/A-ratio  =     2.7653617908
  
  Lattice vectors:
  
 A1 = (  -3.8483927580,  -6.6656128093,   0.0000000000)
 A2 = (   7.6967864037,   0.0000000000,   0.0000000000)
 A3 = (   0.0000000000,   0.0000000000,  21.2843990326)


Analysis of symmetry for initial positions (statically):
=====================================================================
 Subroutine PRICEL returns:
 Original cell was already a primitive cell.
 

 Routine SETGRP: Setting up the symmetry group for a 
 hexagonal supercell.


 Subroutine GETGRP returns: Found  6 space group operations
 (whereof  6 operations were pure point group operations)
 out of a pool of 24 trial point group operations.


The static configuration has the point symmetry C_3v.


Analysis of symmetry for dynamics (positions and initial velocities):
=====================================================================
 Subroutine PRICEL returns:
 Original cell was already a primitive cell.
 

 Routine SETGRP: Setting up the symmetry group for a 
 hexagonal supercell.


 Subroutine GETGRP returns: Found  6 space group operations
 (whereof  6 operations were pure point group operations)
 out of a pool of 24 trial point group operations.


The dynamic configuration has the point symmetry C_3v.


Analysis of constrained symmetry for selective dynamics:
=====================================================================
 Subroutine PRICEL returns:
 Original cell was already a primitive cell.
 

 Routine SETGRP: Setting up the symmetry group for a 
 hexagonal supercell.


 Subroutine GETGRP returns: Found  6 space group operations
 (whereof  6 operations were pure point group operations)
 out of a pool of 24 trial point group operations.


The constrained configuration has the point symmetry C_3v.


 Subroutine INISYM returns: Found  6 space group operations
 (whereof  6 operations are pure point group operations),
 and found     1 'primitive' translations


----------------------------------------------------------------------------------------

                                     Primitive cell                                     

  volume of cell :    1091.9705

  direct lattice vectors                    reciprocal lattice vectors
     7.696786404  0.000000000  0.000000000     0.129924354 -0.075011849  0.000000000
     3.848392758  6.665612809  0.000000000     0.000000000  0.150023716  0.000000000
     0.000000000  0.000000000 21.284399033     0.000000000  0.000000000  0.046982769

  length of vectors
     7.696786404  7.696786404 21.284399033     0.150023716  0.150023716  0.046982769

  position of ions in fractional coordinates (direct lattice)
     0.000000000  0.000000000  0.252370745
     0.333333343  0.000000000  0.252370745
     0.666666687  0.000000000  0.252370745
     1.000000000  0.333333343  0.252370745
     0.333333313  0.333333343  0.252370745
     0.666666687  0.333333343  0.252370745
     1.000000000  0.666666687  0.252370745
     0.333333373  0.666666687  0.252370745
     0.666666627  0.666666687  0.252370745
     0.111111119  0.111111112  0.350790262
     0.444444418  0.111111112  0.350790262
     0.777777791  0.111111112  0.350790262
     0.111111119  0.444444448  0.350790262
     0.444444478  0.444444448  0.350790262
     0.777777731  0.444444448  0.350790262
     0.111111112  0.777777731  0.350790262
     0.444444478  0.777777731  0.350790262
     0.777777851  0.777777731  0.350790262
     0.889406203  0.221187610  0.447709154
     0.223097349  0.223097334  0.450141283
     0.553805361  0.223097334  0.450141283
     0.888858350  0.555570795  0.448772467
     0.223097319  0.553805301  0.450141283
     0.555570855  0.555570795  0.448772467
     0.889406203  0.889406203  0.447709154
     0.221187625  0.889406203  0.447709154
     0.555570795  0.888858350  0.448772467
     0.000000000  0.000000000  0.546769210
     0.334159469  0.993667856  0.546920887
     0.672172705  0.993667856  0.546920887
     0.993667856  0.334159469  0.546920887
     0.672172705  0.334159469  0.546920887
     0.993667856  0.672172705  0.546920887
     0.334159499  0.672172705  0.546920887
     0.666666627  0.666666687  0.548138078
     0.333333313  0.333333343  0.565338885

  ion indices of the primitive-cell ions
   primitive index   ion index
                 1           1
                 2           2
                 3           3
                 4           4
                 5           5
                 6           6
                 7           7
                 8           8
                 9           9
                10          10
                11          11
                12          12
                13          13
                14          14
                15          15
                16          16
                17          17
                18          18
                19          19
                20          20
                21          21
                22          22
                23          23
                24          24
                25          25
                26          26
                27          27
                28          28
                29          29
                30          30
                31          31
                32          32
                33          33
                34          34
                35          35
                36          36

----------------------------------------------------------------------------------------

 
 
 KPOINTS: Automatic mesh                          

Automatic generation of k-mesh.
 Grid dimensions read from file:
 generate k-points for:    8    8    1

 Generating k-lattice:

  Cartesian coordinates                     Fractional coordinates (reciprocal lattice)
     0.016240544 -0.009376481  0.000000000     0.125000000 -0.000000000  0.000000000
     0.000000000  0.018752964  0.000000000     0.000000000  0.125000000  0.000000000
     0.000000000  0.000000000  0.046982769     0.000000000  0.000000000  1.000000000

  Length of vectors
     0.018752964  0.018752964  0.046982769

  Shift w.r.t. Gamma in fractional coordinates (k-lattice)
     0.000000000  0.000000000  0.000000000

 TETIRR: Found     36 inequivalent tetrahedra from      384
 
 Subroutine IBZKPT returns following result:
 ===========================================
 
 Found     10 irreducible k-points:
 
 Following reciprocal coordinates:
            Coordinates               Weight
  0.000000  0.000000  0.000000      1.000000
  0.125000 -0.000000  0.000000      6.000000
  0.250000 -0.000000  0.000000      6.000000
  0.375000 -0.000000  0.000000      6.000000
  0.500000 -0.000000  0.000000      3.000000
  0.250000  0.125000  0.000000      6.000000
  0.375000  0.125000  0.000000     12.000000
  0.500000  0.125000  0.000000     12.000000
  0.500000  0.250000  0.000000      6.000000
 -0.375000  0.250000  0.000000      6.000000
 
 Following cartesian coordinates:
            Coordinates               Weight
  0.000000  0.000000  0.000000      1.000000
  0.016241 -0.009376  0.000000      6.000000
  0.032481 -0.018753  0.000000      6.000000
  0.048722 -0.028129  0.000000      6.000000
  0.064962 -0.037506  0.000000      3.000000
  0.032481  0.000000  0.000000      6.000000
  0.048722 -0.009376  0.000000     12.000000
  0.064962 -0.018753  0.000000     12.000000
  0.064962  0.000000  0.000000      6.000000
 -0.048722  0.065635  0.000000      6.000000
 


--------------------------------------------------------------------------------------------------------




 Dimension of arrays:
   k-points           NKPTS =     10   k-points in BZ     NKDIM =     10   number of bands    NBANDS=    252
   number of dos      NEDOS =    301   number of ions     NIONS =     36
   non local maximal  LDIM  =      6   non local SUM 2l+1 LMDIM =     18
   total plane-waves  NPLWV = 211680
   max r-space proj   IRMAX =   2893   max aug-charges    IRDMAX=   8259
   dimension x,y,z NGX =    42 NGY =   42 NGZ =  120
   dimension x,y,z NGXF=    84 NGYF=   84 NGZF=  240
   support grid    NGXF=    84 NGYF=   84 NGZF=  240
   ions per type =              35   1
   NGX,Y,Z   is equivalent  to a cutoff of   9.07,  9.07,  9.37 a.u.
   NGXF,Y,Z  is equivalent  to a cutoff of  18.14, 18.14, 18.75 a.u.

 SYSTEM =  unknown system                          
 POSCAR =  Cu-Zr                                   

 Startparameter for this run:
   NWRITE =      2    write-flag & timer
   PREC   = normal    normal or accurate (medium, high low for compatibility)
   ISTART =      0    job   : 0-new  1-cont  2-samecut
   ICHARG =     11    charge: 1-file 2-atom 10-const
   ISPIN  =      1    spin polarized calculation?
   LNONCOLLINEAR =      F non collinear calculations
   LSORBIT =      F    spin-orbit coupling
   INIWAV =      1    electr: 0-lowe 1-rand  2-diag
   LASPH  =      F    aspherical Exc in radial PAW
   METAGGA=      F    non-selfconsistent MetaGGA calc.

 Electronic Relaxation 1
   ENCUT  =  500.0 eV  36.75 Ry    6.06 a.u.  14.03 14.03 38.81*2*pi/ulx,y,z
   ENINI  =  500.0     initial cutoff
   ENAUG  =  587.0 eV  augmentation charge cutoff
   NELM   =    150;   NELMIN=  2; NELMDL= -5     # of ELM steps 
   EDIFF  = 0.1E-04   stopping-criterion for ELM
   LREAL  =      T    real-space projection
   NLSPLINE    = F    spline interpolate recip. space projectors
   LCOMPAT=      F    compatible to vasp.4.4
   GGA_COMPAT  = T    GGA compatible to vasp.4.4-vasp.4.6
   LMAXPAW     = -100 max onsite density
   LMAXMIX     =    2 max onsite mixed and CHGCAR
   VOSKOWN=      0    Vosko Wilk Nusair interpolation
   ROPT   =   -0.00050  -0.00050
 Ionic relaxation
   EDIFFG = -.1E-01   stopping-criterion for IOM
   NSW    =      0    number of steps for IOM
   NBLOCK =      1;   KBLOCK =      1    inner block; outer block 
   IBRION =     -1    ionic relax: 0-MD 1-quasi-New 2-CG
   NFREE  =      1    steps in history (QN), initial steepest desc. (CG)
   ISIF   =      2    stress and relaxation
   IWAVPR =     10    prediction:  0-non 1-charg 2-wave 3-comb
   ISYM   =      2    0-nonsym 1-usesym 2-fastsym
   LCORR  =      T    Harris-Foulkes like correction to forces

   POTIM  = 0.5000    time-step for ionic-motion
   TEIN   =    0.0    initial temperature
   TEBEG  =    0.0;   TEEND  =   0.0 temperature during run
   SMASS  =  -3.00    Nose mass-parameter (am)
   estimated Nose-frequenzy (Omega)   =  0.10E-29 period in steps = 0.13E+47 mass=  -0.135E-26a.u.
   SCALEE = 1.0000    scale energy and forces
   NPACO  =    256;   APACO  = 16.0  distance and # of slots for P.C.
   PSTRESS=    0.0 pullay stress

  Mass of Ions in am
   POMASS =  63.55 91.22
  Ionic Valenz
   ZVAL   =  11.00 12.00
  Atomic Wigner-Seitz radii
   RWIGS  =  -1.00 -1.00
  virtual crystal weights 
   VCA    =   1.00  1.00
   NELECT =     397.0000    total number of electrons
   NUPDOWN=      -1.0000    fix difference up-down

 DOS related values:
   EMIN   =  10.00;   EMAX   =-10.00  energy-range for DOS
   EFERMI =   0.00
   ISMEAR =    -5;   SIGMA  =   0.10  broadening in eV -4-tet -1-fermi 0-gaus

 Electronic relaxation 2 (details)
   IALGO  =     68    algorithm
   LDIAG  =      T    sub-space diagonalisation (order eigenvalues)
   LSUBROT=      F    optimize rotation matrix (better conditioning)
   TURBO    =      0    0=normal 1=particle mesh
   IRESTART =      0    0=no restart 2=restart with 2 vectors
   NREBOOT  =      0    no. of reboots
   NMIN     =      0    reboot dimension
   EREF     =   0.00    reference energy to select bands
   IMIX   =      4    mixing-type and parameters
     AMIX     =   0.40;   BMIX     =  1.00
     AMIX_MAG =   1.60;   BMIX_MAG =  1.00
     AMIN     =   0.10
     WC   =   100.;   INIMIX=   1;  MIXPRE=   1;  MAXMIX= -45

 Intra band minimization:
   WEIMIN = 0.0000     energy-eigenvalue tresh-hold
   EBREAK =  0.99E-08  absolut break condition
   DEPER  =   0.30     relativ break condition  

   TIME   =   0.40     timestep for ELM

  volume/ion in A,a.u.               =      30.33       204.69
  Fermi-wavevector in a.u.,A,eV,Ry     =   1.168426  2.208006 18.574949  1.365220
  Thomas-Fermi vector in A             =   2.304913
 
 Write flags
   LWAVE        =      F    write WAVECAR
   LDOWNSAMPLE  =      F    k-point downsampling of WAVECAR
   LCHARG       =      F    write CHGCAR
   LVTOT        =      F    write LOCPOT, total local potential
   LVHAR        =      F    write LOCPOT, Hartree potential only
   LELF         =      F    write electronic localiz. function (ELF)
   LORBIT       =     10    0 simple, 1 ext, 2 COOP (PROOUT), +10 PAW based schemes


 Dipole corrections
   LMONO  =      F    monopole corrections only (constant potential shift)
   LDIPOL =      F    correct potential (dipole corrections)
   IDIPOL =      0    1-x, 2-y, 3-z, 4-all directions 
   EPSILON=  1.0000000 bulk dielectric constant

 Exchange correlation treatment:
   GGA     =    --    GGA type
   LEXCH   =     8    internal setting for exchange type
   VOSKOWN=      0    Vosko Wilk Nusair interpolation
   LHFCALC =     F    Hartree Fock is set to
   LHFONE  =     F    Hartree Fock one center treatment
   AEXX    =    0.0000 exact exchange contribution

 Linear response parameters
   LEPSILON=     F    determine dielectric tensor
   LRPA    =     F    only Hartree local field effects (RPA)
   LNABLA  =     F    use nabla operator in PAW spheres
   LVEL    =     F    velocity operator in full k-point grid
   LINTERFAST=   F  fast interpolation
   KINTER  =     0    interpolate to denser k-point grid
   CSHIFT  =0.1000    complex shift for real part using Kramers Kronig
   OMEGAMAX=  -1.0    maximum frequency
   DEG_THRESHOLD= 0.2000000E-02 threshold for treating states as degnerate
   RTIME   =   -0.100 relaxation time in fs
  (WPLASMAI=    0.000 imaginary part of plasma frequency in eV, 0.658/RTIME)
   DFIELD  = 0.0000000 0.0000000 0.0000000 field for delta impulse in time
 
 Orbital magnetization related:
   ORBITALMAG=     F  switch on orbital magnetization
   LCHIMAG   =     F  perturbation theory with respect to B field
   DQ        =  0.001000  dq finite difference perturbation B field
   LLRAUG    =     F  two centre corrections for induced B field



--------------------------------------------------------------------------------------------------------


 Static calculation
 charge density and potential remain constant during run
 non-spin polarized calculation
 RMM-DIIS sequential band-by-band and
  variant of blocked Davidson during initial phase
 perform sub-space diagonalisation
    before iterative eigenvector-optimisation
 no mixing
 using additional bands           53
 real space projection scheme for non local part
 use partial core corrections
 calculate Harris-corrections to forces 
   (improved forces if not selfconsistent)
 use gradient corrections 
 WARNING: stress and forces are not correct
  (second derivative of E(xc) not defined)
 use of overlap-Matrix (Vanderbilt PP)
 Fermi weights with tetrahedron method with Bloechl corrections


--------------------------------------------------------------------------------------------------------


  energy-cutoff  :      500.00
  volume of cell :     1091.97
      direct lattice vectors                 reciprocal lattice vectors
     7.696786404  0.000000000  0.000000000     0.129924354 -0.075011849  0.000000000
     3.848392758  6.665612809  0.000000000     0.000000000  0.150023716  0.000000000
     0.000000000  0.000000000 21.284399033     0.000000000  0.000000000  0.046982769

  length of vectors
     7.696786404  7.696786404 21.284399033     0.150023716  0.150023716  0.046982769


 
 k-points in units of 2pi/SCALE and weight: Automatic mesh                          
   0.00000000  0.00000000  0.00000000       0.016
   0.01624054 -0.00937648  0.00000000       0.094
   0.03248109 -0.01875296  0.00000000       0.094
   0.04872163 -0.02812944  0.00000000       0.094
   0.06496218 -0.03750592  0.00000000       0.047
   0.03248109  0.00000000  0.00000000       0.094
   0.04872163 -0.00937648  0.00000000       0.188
   0.06496218 -0.01875296  0.00000000       0.188
   0.06496218  0.00000000  0.00000000       0.094
  -0.04872163  0.06563537  0.00000000       0.094
 
 k-points in reciprocal lattice and weights: Automatic mesh                          
   0.00000000  0.00000000  0.00000000       0.016
   0.12500000 -0.00000000  0.00000000       0.094
   0.25000000 -0.00000000  0.00000000       0.094
   0.37500000 -0.00000000  0.00000000       0.094
   0.50000000 -0.00000000  0.00000000       0.047
   0.25000000  0.12500000  0.00000000       0.094
   0.37500000  0.12500000  0.00000000       0.188
   0.50000000  0.12500000  0.00000000       0.188
   0.50000000  0.25000000  0.00000000       0.094
  -0.37500000  0.25000000  0.00000000       0.094
 
 position of ions in fractional coordinates (direct lattice) 
   0.00000000  0.00000000  0.25237075
   0.33333334  0.00000000  0.25237075
   0.66666669  0.00000000  0.25237075
   0.00000000  0.33333334  0.25237075
   0.33333331  0.33333334  0.25237075
   0.66666669  0.33333334  0.25237075
   0.00000000  0.66666669  0.25237075
   0.33333337  0.66666669  0.25237075
   0.66666663  0.66666669  0.25237075
   0.11111112  0.11111111  0.35079026
   0.44444442  0.11111111  0.35079026
   0.77777779  0.11111111  0.35079026
   0.11111112  0.44444445  0.35079026
   0.44444448  0.44444445  0.35079026
   0.77777773  0.44444445  0.35079026
   0.11111111  0.77777773  0.35079026
   0.44444448  0.77777773  0.35079026
   0.77777785  0.77777773  0.35079026
   0.88940620  0.22118761  0.44770915
   0.22309735  0.22309733  0.45014128
   0.55380536  0.22309733  0.45014128
   0.88885835  0.55557079  0.44877247
   0.22309732  0.55380530  0.45014128
   0.55557085  0.55557079  0.44877247
   0.88940620  0.88940620  0.44770915
   0.22118762  0.88940620  0.44770915
   0.55557079  0.88885835  0.44877247
   0.00000000  0.00000000  0.54676921
   0.33415947  0.99366786  0.54692089
   0.67217271  0.99366786  0.54692089
   0.99366786  0.33415947  0.54692089
   0.67217271  0.33415947  0.54692089
   0.99366786  0.67217271  0.54692089
   0.33415950  0.67217271  0.54692089
   0.66666663  0.66666669  0.54813808
   0.33333331  0.33333334  0.56533888
 
 position of ions in cartesian coordinates  (Angst):
   0.00000000  0.00000000  5.37155964
   2.56559554  0.00000000  5.37155964
   5.13119109  0.00000000  5.37155964
   1.28279762  2.22187100  5.37155964
   3.84839293  2.22187100  5.37155964
   6.41398872  2.22187100  5.37155964
   2.56559525  4.44374201  5.37155964
   5.13119102  4.44374201  5.37155964
   7.69678588  4.44374201  5.37155964
   1.28279775  0.74062365  7.46635991
   3.84839295  0.74062365  7.46635991
   6.41398873  0.74062365  7.46635991
   2.56559535  2.96249461  7.46635991
   5.13119101  2.96249461  7.46635991
   7.69678586  2.96249461  7.46635991
   3.84839268  5.18436521  7.46635991
   6.41398840  5.18436521  7.46635991
   8.97958418  5.18436521  7.46635991
   7.69678637  1.47435097  9.52922029
   2.57569881  1.48708045  9.58098670
   5.12108774  1.48708045  9.58098670
   8.97940749  3.70321981  9.55185227
   3.84839273  3.69145171  9.58098670
   6.41416482  3.70321981  9.55185227
  10.26835396  5.92843738  9.52922029
   5.12521829  5.92843738  9.52922029
   7.69678578  5.92478561  9.55185227
   0.00000000  0.00000000 11.63765405
   6.39597824  6.62340519 11.64088240
   8.99759392  6.62340519 11.64088240
   8.93402612  2.22737764 11.64088240
   6.45954662  2.22737764 11.64088240
  10.23483381  4.48044299 11.64088240
   5.15873886  4.48044299 11.64088240
   7.69678588  4.44374201 11.66678957
   3.84839293  2.22187100 12.03289841
 


--------------------------------------------------------------------------------------------------------


 k-point   1 :   0.0000 0.0000 0.0000  plane waves:   27671
 k-point   2 :   0.1250-0.0000 0.0000  plane waves:   27649
 k-point   3 :   0.2500-0.0000 0.0000  plane waves:   27714
 k-point   4 :   0.3750-0.0000 0.0000  plane waves:   27740
 k-point   5 :   0.5000-0.0000 0.0000  plane waves:   27782
 k-point   6 :   0.2500 0.1250 0.0000  plane waves:   27698
 k-point   7 :   0.3750 0.1250 0.0000  plane waves:   27702
 k-point   8 :   0.5000 0.1250 0.0000  plane waves:   27747
 k-point   9 :   0.5000 0.2500 0.0000  plane waves:   27734
 k-point  10 :  -0.3750 0.2500 0.0000  plane waves:   27782

 maximum and minimum number of plane-waves per node :     27782    27649

 maximum number of plane-waves:     27782
 maximum index in each direction: 
   IXMAX=   14   IYMAX=   14   IZMAX=   38
   IXMIN=  -14   IYMIN=  -14   IZMIN=  -38


 serial   3D FFT for wavefunctions
 parallel 3D FFT for charge:
    minimum data exchange during FFTs selected (reduces bandwidth)


 total amount of memory used by VASP MPI-rank0   103876. kBytes
=======================================================================

   base      :      30000. kBytes
   nonlr-proj:      17494. kBytes
   fftplans  :       2916. kBytes
   grid      :      11902. kBytes
   one-center:        559. kBytes
   wavefun   :      41005. kBytes
 
     INWAV:  cpu time    0.0000: real time    0.0001
 initial charge density was supplied:
 number of electron     397.0000205 magnetization 
 keeping initial charge density in first step


--------------------------------------------------------------------------------------------------------


 Maximum index for non-local projection operator         2775
 Maximum index for augmentation-charges          438 (set IRDMAX)


--------------------------------------------------------------------------------------------------------


 First call to EWALD:  gamma=   0.172
 Maximum number of real-space cells 4x 4x 2
 Maximum number of reciprocal cells 2x 2x 5

    FEWALD:  cpu time    0.0016: real time    0.0017


--------------------------------------- Iteration      1(   1)  ---------------------------------------


    POTLOK:  cpu time    0.0328: real time    0.0333
    SETDIJ:  cpu time    0.0043: real time    0.0043
     EDDAV:  cpu time    8.6270: real time    8.6858
 BZINTS: Fermi energy:   13.855363;  397.000000 electrons
         Band energy: 0.258568E+04;  BLOECHL correction:   -0.048553
       DOS:  cpu time    0.0120: real time    0.0120
    --------------------------------------------
      LOOP:  cpu time    8.6761: real time    8.7355

 eigenvalue-minimisations  :  5040
 total energy-change (2. order) : 0.3684053E+04  (-0.1699414E+05)
 number of electron     397.0000205 magnetization 
 augmentation part      397.0000205 magnetization 

 Free energy of the ion-electron system (eV)
  ---------------------------------------------------
  alpha Z        PSCENC =       886.24823194
  Ewald energy   TEWEN  =    147534.02729397
  -Hartree energ DENC   =   -195148.21890190
  -exchange      EXHF   =         0.00000000
  -V(xc)+E(xc)   XCENC  =      1606.77098541
  PAW double counting   =     47083.39002447   -50832.24401222
  entropy T*S    EENTRO =         0.00000000
  eigenvalues    EBANDS =      2585.68355892
  atomic energy  EATOM  =     49968.39612692
  Solvation  Ediel_sol  =         0.00000000
  ---------------------------------------------------
  free energy    TOTEN  =      3684.05330750 eV

  energy without entropy =     3684.05330750  energy(sigma->0) =     3684.05330750


--------------------------------------------------------------------------------------------------------




--------------------------------------- Iteration      1(   2)  ---------------------------------------


     EDDAV:  cpu time    9.8539: real time    9.9777
 BZINTS: Fermi energy:    3.397202;  397.000000 electrons
         Band energy:-0.730215E+03;  BLOECHL correction:   -0.009532
       DOS:  cpu time    0.0108: real time    0.0108
    --------------------------------------------
      LOOP:  cpu time    9.8647: real time    9.9885

 eigenvalue-minimisations  :  5544
 total energy-change (2. order) :-0.3315899E+04  (-0.3178811E+04)
 number of electron     397.0000205 magnetization 
 augmentation part      397.0000205 magnetization 

 Free energy of the ion-electron system (eV)
  ---------------------------------------------------
  alpha Z        PSCENC =       886.24823194
  Ewald energy   TEWEN  =    147534.02729397
  -Hartree energ DENC   =   -195148.21890190
  -exchange      EXHF   =         0.00000000
  -V(xc)+E(xc)   XCENC  =      1606.77098541
  PAW double counting   =     47083.39002447   -50832.24401222
  entropy T*S    EENTRO =         0.00000000
  eigenvalues    EBANDS =      -730.21520126
  atomic energy  EATOM  =     49968.39612692
  Solvation  Ediel_sol  =         0.00000000
  ---------------------------------------------------
  free energy    TOTEN  =       368.15454733 eV

  energy without entropy =      368.15454733  energy(sigma->0) =      368.15454733


--------------------------------------------------------------------------------------------------------




--------------------------------------- Iteration      1(   3)  ---------------------------------------


     EDDAV:  cpu time   10.0376: real time   10.0868
 BZINTS: Fermi energy:    0.637627;  397.000000 electrons
         Band energy:-0.120129E+04;  BLOECHL correction:   -0.045005
       DOS:  cpu time    0.0113: real time    0.0114
    --------------------------------------------
      LOOP:  cpu time   10.0489: real time   10.0982

 eigenvalue-minimisations  :  5348
 total energy-change (2. order) :-0.4710722E+03  (-0.4432428E+03)
 number of electron     397.0000205 magnetization 
 augmentation part      397.0000205 magnetization 

 Free energy of the ion-electron system (eV)
  ---------------------------------------------------
  alpha Z        PSCENC =       886.24823194
  Ewald energy   TEWEN  =    147534.02729397
  -Hartree energ DENC   =   -195148.21890190
  -exchange      EXHF   =         0.00000000
  -V(xc)+E(xc)   XCENC  =      1606.77098541
  PAW double counting   =     47083.39002447   -50832.24401222
  entropy T*S    EENTRO =         0.00000000
  eigenvalues    EBANDS =     -1201.28739150
  atomic energy  EATOM  =     49968.39612692
  Solvation  Ediel_sol  =         0.00000000
  ---------------------------------------------------
  free energy    TOTEN  =      -102.91764292 eV

  energy without entropy =     -102.91764292  energy(sigma->0) =     -102.91764292


--------------------------------------------------------------------------------------------------------




--------------------------------------- Iteration      1(   4)  ---------------------------------------


     EDDAV:  cpu time   12.3052: real time   12.3627
 BZINTS: Fermi energy:    0.438235;  397.000000 electrons
         Band energy:-0.122776E+04;  BLOECHL correction:   -0.033632
       DOS:  cpu time    0.0102: real time    0.0102
    --------------------------------------------
      LOOP:  cpu time   12.3154: real time   12.3729

 eigenvalue-minimisations  :  6804
 total energy-change (2. order) :-0.2647250E+02  (-0.2583998E+02)
 number of electron     397.0000205 magnetization 
 augmentation part      397.0000205 magnetization 

 Free energy of the ion-electron system (eV)
  ---------------------------------------------------
  alpha Z        PSCENC =       886.24823194
  Ewald energy   TEWEN  =    147534.02729397
  -Hartree energ DENC   =   -195148.21890190
  -exchange      EXHF   =         0.00000000
  -V(xc)+E(xc)   XCENC  =      1606.77098541
  PAW double counting   =     47083.39002447   -50832.24401222
  entropy T*S    EENTRO =         0.00000000
  eigenvalues    EBANDS =     -1227.75989059
  atomic energy  EATOM  =     49968.39612692
  Solvation  Ediel_sol  =         0.00000000
  ---------------------------------------------------
  free energy    TOTEN  =      -129.39014201 eV

  energy without entropy =     -129.39014201  energy(sigma->0) =     -129.39014201


--------------------------------------------------------------------------------------------------------




--------------------------------------- Iteration      1(   5)  ---------------------------------------


     EDDAV:  cpu time   14.9383: real time   15.0282
 BZINTS: Fermi energy:    0.429852;  397.000000 electrons
         Band energy:-0.122882E+04;  BLOECHL correction:   -0.033103
       DOS:  cpu time    0.0108: real time    0.0108
    --------------------------------------------
      LOOP:  cpu time   14.9492: real time   15.0423

 eigenvalue-minimisations  :  8792
 total energy-change (2. order) :-0.1058190E+01  (-0.1054697E+01)
 number of electron     397.0000205 magnetization 
 augmentation part      397.0000205 magnetization 

 Free energy of the ion-electron system (eV)
  ---------------------------------------------------
  alpha Z        PSCENC =       886.24823194
  Ewald energy   TEWEN  =    147534.02729397
  -Hartree energ DENC   =   -195148.21890190
  -exchange      EXHF   =         0.00000000
  -V(xc)+E(xc)   XCENC  =      1606.77098541
  PAW double counting   =     47083.39002447   -50832.24401222
  entropy T*S    EENTRO =         0.00000000
  eigenvalues    EBANDS =     -1228.81808017
  atomic energy  EATOM  =     49968.39612692
  Solvation  Ediel_sol  =         0.00000000
  ---------------------------------------------------
  free energy    TOTEN  =      -130.44833159 eV

  energy without entropy =     -130.44833159  energy(sigma->0) =     -130.44833159


--------------------------------------------------------------------------------------------------------




--------------------------------------- Iteration      1(   6)  ---------------------------------------


    EDDIAG:  cpu time    1.6273: real time    1.6392
  RMM-DIIS:  cpu time    4.8850: real time    4.9097
    ORTHCH:  cpu time    0.2083: real time    0.2083
 BZINTS: Fermi energy:    0.429792;  397.000000 electrons
         Band energy:-0.122883E+04;  BLOECHL correction:   -0.033116
       DOS:  cpu time    0.0101: real time    0.0101
    --------------------------------------------
      LOOP:  cpu time    6.7307: real time    6.7640

 eigenvalue-minimisations  :  5889
 total energy-change (2. order) :-0.1224395E-01  (-0.1223233E-01)
 number of electron     397.0000205 magnetization 
 augmentation part      397.0000205 magnetization 

 Free energy of the ion-electron system (eV)
  ---------------------------------------------------
  alpha Z        PSCENC =       886.24823194
  Ewald energy   TEWEN  =    147534.02729397
  -Hartree energ DENC   =   -195148.21890190
  -exchange      EXHF   =         0.00000000
  -V(xc)+E(xc)   XCENC  =      1606.77098541
  PAW double counting   =     47083.39002447   -50832.24401222
  entropy T*S    EENTRO =         0.00000000
  eigenvalues    EBANDS =     -1228.83032412
  atomic energy  EATOM  =     49968.39612692
  Solvation  Ediel_sol  =         0.00000000
  ---------------------------------------------------
  free energy    TOTEN  =      -130.46057554 eV

  energy without entropy =     -130.46057554  energy(sigma->0) =     -130.46057554


--------------------------------------------------------------------------------------------------------




--------------------------------------- Iteration      1(   7)  ---------------------------------------


    EDDIAG:  cpu time    1.1262: real time    1.1262
  RMM-DIIS:  cpu time    5.1063: real time    5.1074
    ORTHCH:  cpu time    0.2625: real time    0.2628
 BZINTS: Fermi energy:    0.429769;  397.000000 electrons
         Band energy:-0.122883E+04;  BLOECHL correction:   -0.033121
       DOS:  cpu time    0.0105: real time    0.0105
    --------------------------------------------
      LOOP:  cpu time    6.5054: real time    6.5068

 eigenvalue-minimisations  :  8164
 total energy-change (2. order) :-0.4199172E-02  (-0.4097040E-02)
 number of electron     397.0000205 magnetization 
 augmentation part      397.0000205 magnetization 

 Free energy of the ion-electron system (eV)
  ---------------------------------------------------
  alpha Z        PSCENC =       886.24823194
  Ewald energy   TEWEN  =    147534.02729397
  -Hartree energ DENC   =   -195148.21890190
  -exchange      EXHF   =         0.00000000
  -V(xc)+E(xc)   XCENC  =      1606.77098541
  PAW double counting   =     47083.39002447   -50832.24401222
  entropy T*S    EENTRO =         0.00000000
  eigenvalues    EBANDS =     -1228.83452330
  atomic energy  EATOM  =     49968.39612692
  Solvation  Ediel_sol  =         0.00000000
  ---------------------------------------------------
  free energy    TOTEN  =      -130.46477471 eV

  energy without entropy =     -130.46477471  energy(sigma->0) =     -130.46477471


--------------------------------------------------------------------------------------------------------




--------------------------------------- Iteration      1(   8)  ---------------------------------------


    EDDIAG:  cpu time    1.5599: real time    1.5613
  RMM-DIIS:  cpu time    8.7598: real time    8.7807
    ORTHCH:  cpu time    0.2888: real time    0.2889
 BZINTS: Fermi energy:    0.429764;  397.000000 electrons
         Band energy:-0.122884E+04;  BLOECHL correction:   -0.033123
       DOS:  cpu time    0.0110: real time    0.0110
    --------------------------------------------
      LOOP:  cpu time   10.6196: real time   10.6419

 eigenvalue-minimisations  :  9456
 total energy-change (2. order) :-0.9602823E-03  (-0.9095069E-03)
 number of electron     397.0000205 magnetization 
 augmentation part      397.0000205 magnetization 

 Free energy of the ion-electron system (eV)
  ---------------------------------------------------
  alpha Z        PSCENC =       886.24823194
  Ewald energy   TEWEN  =    147534.02729397
  -Hartree energ DENC   =   -195148.21890190
  -exchange      EXHF   =         0.00000000
  -V(xc)+E(xc)   XCENC  =      1606.77098541
  PAW double counting   =     47083.39002447   -50832.24401222
  entropy T*S    EENTRO =         0.00000000
  eigenvalues    EBANDS =     -1228.83548358
  atomic energy  EATOM  =     49968.39612692
  Solvation  Ediel_sol  =         0.00000000
  ---------------------------------------------------
  free energy    TOTEN  =      -130.46573499 eV

  energy without entropy =     -130.46573499  energy(sigma->0) =     -130.46573499


--------------------------------------------------------------------------------------------------------




--------------------------------------- Iteration      1(   9)  ---------------------------------------


    EDDIAG:  cpu time    1.5673: real time    1.5700
  RMM-DIIS:  cpu time    8.3751: real time    8.3837
    ORTHCH:  cpu time    0.2798: real time    0.2798
 BZINTS: Fermi energy:    0.429761;  397.000000 electrons
         Band energy:-0.122884E+04;  BLOECHL correction:   -0.033124
       DOS:  cpu time    0.0119: real time    0.0120
    --------------------------------------------
      LOOP:  cpu time   10.2341: real time   10.2454

 eigenvalue-minimisations  :  8807
 total energy-change (2. order) :-0.2582606E-03  (-0.2349194E-03)
 number of electron     397.0000205 magnetization 
 augmentation part      397.0000205 magnetization 

 Free energy of the ion-electron system (eV)
  ---------------------------------------------------
  alpha Z        PSCENC =       886.24823194
  Ewald energy   TEWEN  =    147534.02729397
  -Hartree energ DENC   =   -195148.21890190
  -exchange      EXHF   =         0.00000000
  -V(xc)+E(xc)   XCENC  =      1606.77098541
  PAW double counting   =     47083.39002447   -50832.24401222
  entropy T*S    EENTRO =         0.00000000
  eigenvalues    EBANDS =     -1228.83574184
  atomic energy  EATOM  =     49968.39612692
  Solvation  Ediel_sol  =         0.00000000
  ---------------------------------------------------
  free energy    TOTEN  =      -130.46599325 eV

  energy without entropy =     -130.46599325  energy(sigma->0) =     -130.46599325


--------------------------------------------------------------------------------------------------------




--------------------------------------- Iteration      1(  10)  ---------------------------------------


    EDDIAG:  cpu time    1.5734: real time    1.5748
  RMM-DIIS:  cpu time    6.5941: real time    6.6080
    ORTHCH:  cpu time    0.2861: real time    0.2861
 BZINTS: Fermi energy:    0.429760;  397.000000 electrons
         Band energy:-0.122884E+04;  BLOECHL correction:   -0.033124
       DOS:  cpu time    0.0105: real time    0.0105
    --------------------------------------------
      LOOP:  cpu time    8.4641: real time    8.4794

 eigenvalue-minimisations  :  6979
 total energy-change (2. order) :-0.9505067E-04  (-0.8690896E-04)
 number of electron     397.0000205 magnetization 
 augmentation part      397.0000205 magnetization 

 Free energy of the ion-electron system (eV)
  ---------------------------------------------------
  alpha Z        PSCENC =       886.24823194
  Ewald energy   TEWEN  =    147534.02729397
  -Hartree energ DENC   =   -195148.21890190
  -exchange      EXHF   =         0.00000000
  -V(xc)+E(xc)   XCENC  =      1606.77098541
  PAW double counting   =     47083.39002447   -50832.24401222
  entropy T*S    EENTRO =         0.00000000
  eigenvalues    EBANDS =     -1228.83583689
  atomic energy  EATOM  =     49968.39612692
  Solvation  Ediel_sol  =         0.00000000
  ---------------------------------------------------
  free energy    TOTEN  =      -130.46608831 eV

  energy without entropy =     -130.46608831  energy(sigma->0) =     -130.46608831


--------------------------------------------------------------------------------------------------------




--------------------------------------- Iteration      1(  11)  ---------------------------------------


    EDDIAG:  cpu time    1.5599: real time    1.5601
  RMM-DIIS:  cpu time    6.2515: real time    6.2569
    ORTHCH:  cpu time    0.2796: real time    0.2796
 BZINTS: Fermi energy:    0.429760;  397.000000 electrons
         Band energy:-0.122884E+04;  BLOECHL correction:   -0.033124
       DOS:  cpu time    0.0141: real time    0.0141
    --------------------------------------------
      LOOP:  cpu time    8.1050: real time    8.1106

 eigenvalue-minimisations  :  6402
 total energy-change (2. order) :-0.3629128E-04  (-0.3443015E-04)
 number of electron     397.0000205 magnetization 
 augmentation part      397.0000205 magnetization 

 Free energy of the ion-electron system (eV)
  ---------------------------------------------------
  alpha Z        PSCENC =       886.24823194
  Ewald energy   TEWEN  =    147534.02729397
  -Hartree energ DENC   =   -195148.21890190
  -exchange      EXHF   =         0.00000000
  -V(xc)+E(xc)   XCENC  =      1606.77098541
  PAW double counting   =     47083.39002447   -50832.24401222
  entropy T*S    EENTRO =         0.00000000
  eigenvalues    EBANDS =     -1228.83587318
  atomic energy  EATOM  =     49968.39612692
  Solvation  Ediel_sol  =         0.00000000
  ---------------------------------------------------
  free energy    TOTEN  =      -130.46612460 eV

  energy without entropy =     -130.46612460  energy(sigma->0) =     -130.46612460


--------------------------------------------------------------------------------------------------------




--------------------------------------- Iteration      1(  12)  ---------------------------------------


    EDDIAG:  cpu time    1.5812: real time    1.5821
  RMM-DIIS:  cpu time    5.6960: real time    5.6976
    ORTHCH:  cpu time    0.2851: real time    0.2851
 BZINTS: Fermi energy:    0.429760;  397.000000 electrons
         Band energy:-0.122884E+04;  BLOECHL correction:   -0.033124
       DOS:  cpu time    0.0110: real time    0.0110
    --------------------------------------------
      LOOP:  cpu time    7.5733: real time    7.5758

 eigenvalue-minimisations  :  5631
 total energy-change (2. order) :-0.1450020E-04  (-0.1416765E-04)
 number of electron     397.0000205 magnetization 
 augmentation part      397.0000205 magnetization 

 Free energy of the ion-electron system (eV)
  ---------------------------------------------------
  alpha Z        PSCENC =       886.24823194
  Ewald energy   TEWEN  =    147534.02729397
  -Hartree energ DENC   =   -195148.21890190
  -exchange      EXHF   =         0.00000000
  -V(xc)+E(xc)   XCENC  =      1606.77098541
  PAW double counting   =     47083.39002447   -50832.24401222
  entropy T*S    EENTRO =         0.00000000
  eigenvalues    EBANDS =     -1228.83588768
  atomic energy  EATOM  =     49968.39612692
  Solvation  Ediel_sol  =         0.00000000
  ---------------------------------------------------
  free energy    TOTEN  =      -130.46613910 eV

  energy without entropy =     -130.46613910  energy(sigma->0) =     -130.46613910


--------------------------------------------------------------------------------------------------------




--------------------------------------- Iteration      1(  13)  ---------------------------------------


    EDDIAG:  cpu time    1.5541: real time    1.5543
WARNING in EDDRMM: call to ZHEGV failed, returncode =   6  3      4
  RMM-DIIS:  cpu time    5.2192: real time    5.2209
    ORTHCH:  cpu time    0.2791: real time    0.2793
 BZINTS: Fermi energy:    0.429760;  397.000000 electrons
         Band energy:-0.122884E+04;  BLOECHL correction:   -0.033125
       DOS:  cpu time    0.0111: real time    0.0111
    --------------------------------------------
      LOOP:  cpu time    7.0634: real time    7.0655

 eigenvalue-minimisations  :  5114
 total energy-change (2. order) :-0.6051327E-05  (-0.6181636E-05)
 number of electron     397.0000205 magnetization 
 augmentation part      397.0000205 magnetization 

 Free energy of the ion-electron system (eV)
  ---------------------------------------------------
  alpha Z        PSCENC =       886.24823194
  Ewald energy   TEWEN  =    147534.02729397
  -Hartree energ DENC   =   -195148.21890190
  -exchange      EXHF   =         0.00000000
  -V(xc)+E(xc)   XCENC  =      1606.77098541
  PAW double counting   =     47083.39002447   -50832.24401222
  entropy T*S    EENTRO =         0.00000000
  eigenvalues    EBANDS =     -1228.83589373
  atomic energy  EATOM  =     49968.39612692
  Solvation  Ediel_sol  =         0.00000000
  ---------------------------------------------------
  free energy    TOTEN  =      -130.46614515 eV

  energy without entropy =     -130.46614515  energy(sigma->0) =     -130.46614515


--------------------------------------------------------------------------------------------------------




 average (electrostatic) potential at core
  the test charge radii are     0.9430  1.0638
  (the norm of the test charge is              1.0000)
       1 -70.5839       2 -70.5836       3 -70.5835       4 -70.5836       5 -70.6049
       6 -70.5832       7 -70.5835       8 -70.5832       9 -70.5774      10 -70.8692
      11 -70.8327      12 -70.8689      13 -70.8327      14 -70.8322      15 -70.8507
      16 -70.8689      17 -70.8507      18 -70.8508      19 -70.8748      20 -70.9592
      21 -70.9588      22 -70.8391      23 -70.9588      24 -70.8387      25 -70.8748
      26 -70.8748      27 -70.8391      28 -70.6682      29 -70.9337      30 -70.9337
      31 -70.9337      32 -70.9334      33 -70.9337      34 -70.9334      35 -70.6476
      36 -84.1486
 
 
 
 E-fermi :   0.4298     XC(G=0):  -5.9208     alpha+bet : -5.4215

 Fermi energy:         0.4297597420

 k-point     1 :       0.0000    0.0000    0.0000
  band No.  band energies     occupation 
      1     -49.2154      2.00000
      2     -27.3815      2.00000
      3     -27.2115      2.00000
      4     -27.2115      2.00000
      5      -8.4173      2.00000
      6      -7.1369      2.00000
      7      -5.5574      2.00000
      8      -5.4705      2.00000
      9      -5.4704      2.00000
     10      -5.4467      2.00000
     11      -5.4124      2.00000
     12      -5.4124      2.00000
     13      -5.3323      2.00000
     14      -4.7487      2.00000
     15      -4.7487      2.00000
     16      -4.7050      2.00000
     17      -4.6910      2.00000
     18      -4.6639      2.00000
     19      -4.6639      2.00000
     20      -4.4953      2.00000
     21      -4.0671      2.00000
     22      -4.0671      2.00000
     23      -4.0261      2.00000
     24      -3.9895      2.00000
     25      -3.9895      2.00000
     26      -3.8835      2.00000
     27      -3.7008      2.00000
     28      -3.7007      2.00000
     29      -3.6789      2.00000
     30      -3.6747      2.00000
     31      -3.6746      2.00000
     32      -3.6470      2.00000
     33      -3.5670      2.00000
     34      -3.5531      2.00000
     35      -3.5531      2.00000
     36      -3.5291      2.00000
     37      -3.5291      2.00000
     38      -3.5287      2.00000
     39      -3.5044      2.00000
     40      -3.5044      2.00000
     41      -3.4884      2.00000
     42      -3.4883      2.00000
     43      -3.4872      2.00000
     44      -3.4776      2.00000
     45      -3.4338      2.00000
     46      -3.4338      2.00000
     47      -3.3397      2.00000
     48      -3.3397      2.00000
     49      -3.2811      2.00000
     50      -3.2774      2.00000
     51      -3.2251      2.00000
     52      -3.2139      2.00000
     53      -3.2138      2.00000
     54      -3.2026      2.00000
     55      -3.2026      2.00000
     56      -3.2026      2.00000
     57      -3.1241      2.00000
     58      -3.0993      2.00000
     59      -2.8977      2.00000
     60      -2.8645      2.00000
     61      -2.8645      2.00000
     62      -2.8493      2.00000
     63      -2.8402      2.00000
     64      -2.8401      2.00000
     65      -2.8223      2.00000
     66      -2.8223      2.00000
     67      -2.7687      2.00000
     68      -2.7686      2.00000
     69      -2.7421      2.00000
     70      -2.7252      2.00000
     71      -2.7251      2.00000
     72      -2.7051      2.00000
     73      -2.7051      2.00000
     74      -2.6790      2.00000
     75      -2.6514      2.00000
     76      -2.6421      2.00000
     77      -2.6421      2.00000
     78      -2.6335      2.00000
     79      -2.5718      2.00000
     80      -2.5718      2.00000
     81      -2.5309      2.00000
     82      -2.5308      2.00000
     83      -2.5196      2.00000
     84      -2.5170      2.00000
     85      -2.5170      2.00000
     86      -2.5056      2.00000
     87      -2.5056      2.00000
     88      -2.4649      2.00000
     89      -2.4603      2.00000
     90      -2.4603      2.00000
     91      -2.4276      2.00000
     92      -2.4054      2.00000
     93      -2.4054      2.00000
     94      -2.3971      2.00000
     95      -2.3610      2.00000
     96      -2.3606      2.00000
     97      -2.3605      2.00000
     98      -2.3353      2.00000
     99      -2.3353      2.00000
    100      -2.3084      2.00000
    101      -2.3084      2.00000
    102      -2.3012      2.00000
    103      -2.2899      2.00000
    104      -2.2734      2.00000
    105      -2.2734      2.00000
    106      -2.2721      2.00000
    107      -2.2721      2.00000
    108      -2.2500      2.00000
    109      -2.2500      2.00000
    110      -2.2298      2.00000
    111      -2.2298      2.00000
    112      -2.0629      2.00000
    113      -2.0554      2.00000
    114      -2.0554      2.00000
    115      -2.0523      2.00000
    116      -2.0431      2.00000
    117      -2.0430      2.00000
    118      -2.0335      2.00000
    119      -1.9527      2.00000
    120      -1.9518      2.00000
    121      -1.9518      2.00000
    122      -1.9233      2.00000
    123      -1.9076      2.00000
    124      -1.8933      2.00000
    125      -1.8933      2.00000
    126      -1.8570      2.00000
    127      -1.8569      2.00000
    128      -1.8382      2.00000
    129      -1.8382      2.00000
    130      -1.8111      2.00000
    131      -1.8111      2.00000
    132      -1.8049      2.00000
    133      -1.7976      2.00000
    134      -1.7791      2.00000
    135      -1.7791      2.00000
    136      -1.7212      2.00000
    137      -1.7212      2.00000
    138      -1.6996      2.00000
    139      -1.6917      2.00000
    140      -1.6695      2.00000
    141      -1.6695      2.00000
    142      -1.6564      2.00000
    143      -1.6564      2.00000
    144      -1.6564      2.00000
    145      -1.6291      2.00000
    146      -1.6003      2.00000
    147      -1.6003      2.00000
    148      -1.5800      2.00000
    149      -1.5800      2.00000
    150      -1.5641      2.00000
    151      -1.5641      2.00000
    152      -1.5453      2.00000
    153      -1.5365      2.00000
    154      -1.5017      2.00000
    155      -1.5017      2.00000
    156      -1.4967      2.00000
    157      -1.4825      2.00000
    158      -1.4824      2.00000
    159      -1.4693      2.00000
    160      -1.4669      2.00000
    161      -1.4393      2.00000
    162      -1.4368      2.00000
    163      -1.4368      2.00000
    164      -1.4217      2.00000
    165      -1.4216      2.00000
    166      -1.4147      2.00000
    167      -1.4087      2.00000
    168      -1.4086      2.00000
    169      -1.3842      2.00000
    170      -1.3731      2.00000
    171      -1.3731      2.00000
    172      -1.3537      2.00000
    173      -1.3537      2.00000
    174      -1.3323      2.00000
    175      -1.3322      2.00000
    176      -1.3092      2.00000
    177      -1.2946      2.00000
    178      -1.2946      2.00000
    179      -1.2916      2.00000
    180      -1.2912      2.00000
    181      -1.2910      2.00000
    182      -1.2910      2.00000
    183      -1.2901      2.00000
    184      -1.2881      2.00000
    185      -1.2773      2.00000
    186      -1.2773      2.00000
    187      -1.2247      2.00000
    188      -1.2246      2.00000
    189      -1.1863      2.00000
    190      -1.1863      2.00000
    191      -1.1860      2.00000
    192      -1.1795      2.00000
    193      -1.1758      2.00000
    194      -1.1758      2.00000
    195      -0.9784      2.00000
    196      -0.1157      2.00000
    197      -0.1157      2.00000
    198      -0.1103      2.00000
    199       0.0190      2.00000
    200       0.0259      2.00000
    201       0.0259      2.00000
    202       0.1723      2.51275
    203       1.0734      0.00000
    204       1.0734      0.00000
    205       1.1543      0.00000
    206       1.1543      0.00000
    207       1.2153      0.00000
    208       2.3615      0.00000
    209       2.3789      0.00000
    210       2.3789      0.00000
    211       2.5926      0.00000
    212       2.7263      0.00000
    213       2.7263      0.00000
    214       3.7532      0.00000
    215       3.8896      0.00000
    216       4.0563      0.00000
    217       4.0563      0.00000
    218       4.2089      0.00000
    219       4.2089      0.00000
    220       4.4926      0.00000
    221       4.6315      0.00000
    222       4.7416      0.00000
    223       4.7416      0.00000
    224       4.8467      0.00000
    225       4.8621      0.00000
    226       4.8621      0.00000
    227       4.9025      0.00000
    228       5.1838      0.00000
    229       5.1838      0.00000
    230       5.4370      0.00000
    231       5.5452      0.00000
    232       5.5452      0.00000
    233       5.7816      0.00000
    234       6.0386      0.00000
    235       6.2550      0.00000
    236       6.6822      0.00000
    237       6.6822      0.00000
    238       6.9551      0.00000
    239       6.9552      0.00000
    240       7.0957      0.00000
    241       7.1380      0.00000
    242       7.1381      0.00000
    243       7.1779      0.00000
    244       7.2649      0.00000
    245       7.2662      0.00000
    246       7.4805      0.00000
    247       7.6797      0.00000
    248       7.7099      0.00000
    249       7.7180      0.00000
    250       7.7382      0.00000
    251       7.7490      0.00000
    252       7.9169      0.00000

 k-point     2 :       0.1250   -0.0000    0.0000
  band No.  band energies     occupation 
      1     -49.2154      2.00000
      2     -27.3815      2.00000
      3     -27.2116      2.00000
      4     -27.2115      2.00000
      5      -8.3620      2.00000
      6      -7.0837      2.00000
      7      -5.9941      2.00000
      8      -5.6844      2.00000
      9      -5.6583      2.00000
     10      -5.4866      2.00000
     11      -5.1531      2.00000
     12      -5.1385      2.00000
     13      -5.0222      2.00000
     14      -4.9456      2.00000
     15      -4.8382      2.00000
     16      -4.7490      2.00000
     17      -4.6532      2.00000
     18      -4.5461      2.00000
     19      -4.5204      2.00000
     20      -4.4085      2.00000
     21      -4.0873      2.00000
     22      -4.0497      2.00000
     23      -4.0251      2.00000
     24      -3.9891      2.00000
     25      -3.9750      2.00000
     26      -3.8773      2.00000
     27      -3.7455      2.00000
     28      -3.7063      2.00000
     29      -3.6931      2.00000
     30      -3.6562      2.00000
     31      -3.6480      2.00000
     32      -3.6339      2.00000
     33      -3.6210      2.00000
     34      -3.6190      2.00000
     35      -3.6181      2.00000
     36      -3.5958      2.00000
     37      -3.5825      2.00000
     38      -3.5521      2.00000
     39      -3.5444      2.00000
     40      -3.4834      2.00000
     41      -3.4766      2.00000
     42      -3.4739      2.00000
     43      -3.4505      2.00000
     44      -3.4305      2.00000
     45      -3.4045      2.00000
     46      -3.4033      2.00000
     47      -3.3126      2.00000
     48      -3.3030      2.00000
     49      -3.2987      2.00000
     50      -3.2759      2.00000
     51      -3.2645      2.00000
     52      -3.2523      2.00000
     53      -3.2395      2.00000
     54      -3.1831      2.00000
     55      -3.1543      2.00000
     56      -3.1193      2.00000
     57      -3.1157      2.00000
     58      -3.0880      2.00000
     59      -2.9251      2.00000
     60      -2.9080      2.00000
     61      -2.9053      2.00000
     62      -2.8712      2.00000
     63      -2.8641      2.00000
     64      -2.8613      2.00000
     65      -2.8451      2.00000
     66      -2.8442      2.00000
     67      -2.7826      2.00000
     68      -2.7669      2.00000
     69      -2.7310      2.00000
     70      -2.7286      2.00000
     71      -2.7278      2.00000
     72      -2.7082      2.00000
     73      -2.6990      2.00000
     74      -2.6783      2.00000
     75      -2.6599      2.00000
     76      -2.6398      2.00000
     77      -2.6278      2.00000
     78      -2.6124      2.00000
     79      -2.5711      2.00000
     80      -2.5599      2.00000
     81      -2.5380      2.00000
     82      -2.5329      2.00000
     83      -2.5200      2.00000
     84      -2.5097      2.00000
     85      -2.5035      2.00000
     86      -2.4954      2.00000
     87      -2.4944      2.00000
     88      -2.4737      2.00000
     89      -2.4540      2.00000
     90      -2.4525      2.00000
     91      -2.4496      2.00000
     92      -2.4437      2.00000
     93      -2.4275      2.00000
     94      -2.4070      2.00000
     95      -2.3845      2.00000
     96      -2.3810      2.00000
     97      -2.3592      2.00000
     98      -2.3443      2.00000
     99      -2.3258      2.00000
    100      -2.3223      2.00000
    101      -2.3079      2.00000
    102      -2.3070      2.00000
    103      -2.2896      2.00000
    104      -2.2864      2.00000
    105      -2.2724      2.00000
    106      -2.2392      2.00000
    107      -2.2376      2.00000
    108      -2.2337      2.00000
    109      -2.2307      2.00000
    110      -2.2145      2.00000
    111      -2.2139      2.00000
    112      -2.2041      2.00000
    113      -2.1606      2.00000
    114      -2.1451      2.00000
    115      -2.1098      2.00000
    116      -2.0771      2.00000
    117      -2.0521      2.00000
    118      -2.0504      2.00000
    119      -2.0230      2.00000
    120      -2.0091      2.00000
    121      -1.9753      2.00000
    122      -1.9641      2.00000
    123      -1.9548      2.00000
    124      -1.9496      2.00000
    125      -1.8993      2.00000
    126      -1.8958      2.00000
    127      -1.8838      2.00000
    128      -1.8537      2.00000
    129      -1.8427      2.00000
    130      -1.8264      2.00000
    131      -1.8002      2.00000
    132      -1.7911      2.00000
    133      -1.7807      2.00000
    134      -1.7622      2.00000
    135      -1.7568      2.00000
    136      -1.7521      2.00000
    137      -1.7396      2.00000
    138      -1.7201      2.00000
    139      -1.7056      2.00000
    140      -1.7045      2.00000
    141      -1.6893      2.00000
    142      -1.6791      2.00000
    143      -1.6569      2.00000
    144      -1.6427      2.00000
    145      -1.6405      2.00000
    146      -1.6310      2.00000
    147      -1.6279      2.00000
    148      -1.5900      2.00000
    149      -1.5662      2.00000
    150      -1.5649      2.00000
    151      -1.5406      2.00000
    152      -1.5348      2.00000
[...]
  0.000   0.000   0.000   2.000   0.000   0.000   0.000   0.000   0.000   0.000   0.000   0.000   0.000   0.000   0.000   0.000
  0.000   0.000   0.000   0.000   2.000   0.000   0.000   0.000   0.000   0.000   0.000   0.000   0.000   0.000   0.000   0.000
  0.000   0.000   0.000   0.000   0.000   0.000   0.000   0.000   0.000   0.000   0.000   0.000   0.000   0.000   0.000   0.000
  0.000   0.000   0.000   0.000   0.000   0.000   0.000   0.000   0.000   0.000   0.000   0.000   0.000   0.000   0.000   0.000
  0.000   0.000   0.000   0.000   0.000   0.000   0.000   0.000   0.000   0.000   0.000   0.000   0.000   0.000   0.000   0.000
  0.000   0.000   0.000   0.000   0.000   0.000   0.000   0.000   0.000   0.000   0.000   0.000   0.000   0.000   0.000   0.000
  0.000   0.000   0.000   0.000   0.000   0.000   0.000   0.000   0.000   0.000   0.000   0.000   0.000   0.000   0.000   0.000
  0.000   0.000   0.000   0.000   0.000   0.000   0.000   0.000   0.000   0.000   1.000   0.000   0.000   0.000   0.000   0.000
  0.000   0.000   0.000   0.000   0.000   0.000   0.000   0.000   0.000   0.000   0.000   0.000   0.000   0.000   0.000   0.000
  0.000   0.000   0.000   0.000   0.000   0.000   0.000   0.000   0.000   0.000   0.000   0.000   0.000   0.000   0.000   0.000
  0.000   0.000   0.000   0.000   0.000   0.000   0.000   0.000   0.000   0.000   0.000   0.000   0.000   0.000   0.000   0.000
  0.000   0.000   0.000   0.000   0.000   0.000   0.000   0.000   0.000   0.000   0.000   0.000   0.000   0.000   0.000   0.000
  0.000   0.000   0.000   0.000   0.000   0.000   0.000   0.000   0.000   0.000   0.000   0.000   0.000   0.000   0.000   0.000
  0.000   0.000   0.000   0.000   0.000   0.000   0.000   0.000   0.000   0.000   0.000   0.000   0.000   0.000   0.000   0.000
  0.000   0.000   0.000   0.000   0.000   0.000   0.000   0.000   0.000   0.000   0.000   0.000   0.000   0.000   0.000   0.000


------------------------ aborting loop because EDIFF is reached ----------------------------------------





 total charge

# of ion       s       p       d       tot
------------------------------------------
    1        0.450   0.283   9.188   9.921
    2        0.448   0.286   9.186   9.920
    3        0.448   0.286   9.186   9.920
    4        0.448   0.286   9.186   9.920
    5        0.448   0.286   9.182   9.916
    6        0.448   0.286   9.186   9.920
    7        0.448   0.286   9.186   9.920
    8        0.448   0.286   9.186   9.920
    9        0.450   0.284   9.186   9.921
   10        0.443   0.372   9.176   9.990
   11        0.440   0.364   9.181   9.986
   12        0.443   0.372   9.176   9.990
   13        0.440   0.364   9.181   9.986
   14        0.440   0.364   9.181   9.986
   15        0.440   0.372   9.177   9.989
   16        0.443   0.372   9.176   9.990
   17        0.440   0.372   9.177   9.989
   18        0.440   0.372   9.177   9.989
   19        0.446   0.374   9.179   9.999
   20        0.454   0.380   9.160   9.994
   21        0.454   0.380   9.160   9.994
   22        0.435   0.376   9.178   9.989
   23        0.454   0.380   9.160   9.994
   24        0.435   0.376   9.178   9.989
   25        0.446   0.374   9.179   9.999
   26        0.446   0.374   9.179   9.999
   27        0.435   0.376   9.178   9.989
   28        0.442   0.300   9.179   9.921
   29        0.489   0.326   9.157   9.971
   30        0.489   0.326   9.157   9.971
   31        0.489   0.326   9.157   9.971
   32        0.489   0.326   9.157   9.971
   33        0.489   0.326   9.157   9.971
   34        0.489   0.326   9.157   9.971
   35        0.441   0.306   9.179   9.925
   36        2.226   5.954   1.608   9.788
--------------------------------------------------
tot         18.050  17.795 322.732 358.576
 
    CHARGE:  cpu time    0.3706: real time    0.3708
    FORLOC:  cpu time    0.0068: real time    0.0068
    FORNL :  cpu time    2.2288: real time    2.2306
    STRESS:  cpu time    5.9779: real time    6.0130
    FORCOR:  cpu time    0.0357: real time    0.0358
    FORHAR:  cpu time    0.0132: real time    0.0133
    OFIELD:  cpu time    0.0003: real time    0.0003

  FORCE on cell =-STRESS in cart. coord.  units (eV):
  Direction    XX          YY          ZZ          XY          YZ          ZX
  --------------------------------------------------------------------------------------
  Alpha Z   886.24823   886.24823   886.24823
  Ewald  173871.88181173871.88138************     0.00038     0.00013     0.00020
  Hartree186986.35718186986.35716************     0.00003     0.00006     0.00007
  E(xc)   -2297.19911 -2297.19862 -2302.21824    -0.00042    -0.00003    -0.00006
  Local  ************************374516.11789     0.01825    -0.00057    -0.00092
  n-local  -772.41685  -761.35654  -770.89886     6.34799    -0.38750     0.29121
  augment  3310.55180  3310.57141  3330.07804    -0.01698     0.00026     0.00043
  Kinetic  3360.79287  3361.22046  3376.85229     0.72008     2.12512    -1.56780
  Fock        0.00000     0.00000     0.00000     0.00000     0.00000     0.00000
  -------------------------------------------------------------------------------------
  Total      -6.53463    -6.53463    -2.08055     0.00000    -0.00000    -0.00000
  in kB      -9.58784    -9.58784    -3.05265     0.00000    -0.00000    -0.00000
  external pressure =       -7.41 kB  Pullay stress =        0.00 kB


 VOLUME and BASIS-vectors are now :
 -----------------------------------------------------------------------------
  energy-cutoff  :      500.00
  volume of cell :     1091.97
      direct lattice vectors                 reciprocal lattice vectors
     7.696786404  0.000000000  0.000000000     0.129924354 -0.075011849  0.000000000
     3.848392758  6.665612809  0.000000000     0.000000000  0.150023716  0.000000000
     0.000000000  0.000000000 21.284399033     0.000000000  0.000000000  0.046982769

  length of vectors
     7.696786404  7.696786404 21.284399033     0.150023716  0.150023716  0.046982769


 FORCES acting on ions
    electron-ion (+dipol)            ewald-force                    non-local-force                 convergence-correction
 -----------------------------------------------------------------------------------------------
   -.410E-04 0.477E-06 0.349E+04   0.579E-04 -.429E-05 -.348E+04   0.894E-19 -.471E-17 -.219E+01   -.334E-03 -.160E-03 -.469E-01
   -.971E+00 -.109E+01 0.348E+04   0.928E+00 0.101E+01 -.348E+04   0.325E-01 0.549E-01 -.192E+01   0.184E-01 0.234E-01 0.407E-01
   0.971E+00 -.109E+01 0.348E+04   -.928E+00 0.101E+01 -.348E+04   -.325E-01 0.549E-01 -.192E+01   -.175E-01 0.260E-01 0.416E-01
   -.143E+01 -.297E+00 0.348E+04   0.134E+01 0.297E+00 -.348E+04   0.638E-01 0.633E-03 -.192E+01   0.295E-01 0.418E-02 0.407E-01
   -.610E-04 -.294E-05 0.348E+04   0.116E-03 -.101E-04 -.348E+04   -.631E-17 -.306E-18 -.183E+01   0.122E-01 0.748E-02 0.756E-01
   0.143E+01 -.297E+00 0.348E+04   -.134E+01 0.297E+00 -.348E+04   -.638E-01 0.633E-03 -.192E+01   -.312E-01 0.541E-02 0.421E-01
   -.457E+00 0.139E+01 0.348E+04   0.414E+00 -.131E+01 -.348E+04   0.314E-01 -.556E-01 -.192E+01   0.138E-01 -.282E-01 0.418E-01
   0.457E+00 0.139E+01 0.348E+04   -.414E+00 -.131E+01 -.348E+04   -.314E-01 -.556E-01 -.192E+01   -.102E-01 -.297E-01 0.421E-01
   -.143E-03 -.326E-04 0.348E+04   0.263E-03 0.205E-04 -.348E+04   -.141E-17 -.508E-18 -.195E+01   -.133E-01 -.685E-02 0.175E-01
   -.109E+02 -.631E+01 0.118E+04   0.111E+02 0.640E+01 -.118E+04   -.182E+00 -.105E+00 -.950E+00   0.692E-01 0.400E-01 -.111E+00
   -.904E-04 -.926E+01 0.116E+04   0.189E-03 0.890E+01 -.116E+04   -.175E-07 0.263E+00 -.440E+00   0.118E-01 0.847E-01 -.135E+00
   0.109E+02 -.631E+01 0.118E+04   -.111E+02 0.640E+01 -.118E+04   0.182E+00 -.105E+00 -.950E+00   -.712E-01 0.420E-01 -.110E+00
   -.802E+01 0.463E+01 0.116E+04   0.771E+01 -.445E+01 -.116E+04   0.227E+00 -.131E+00 -.440E+00   0.798E-01 -.313E-01 -.135E+00
   0.802E+01 0.463E+01 0.116E+04   -.771E+01 -.445E+01 -.116E+04   -.227E+00 -.131E+00 -.440E+00   -.553E-01 -.323E-01 -.134E+00
   -.140E-03 -.190E+01 0.118E+04   0.295E-03 0.182E+01 -.118E+04   -.428E-08 0.643E-01 -.950E+00   -.405E-02 0.219E-01 -.119E+00
   -.922E-04 0.126E+02 0.118E+04   0.186E-03 -.128E+02 -.118E+04   -.140E-07 0.210E+00 -.950E+00   -.169E-03 -.839E-01 -.110E+00
   -.164E+01 0.948E+00 0.118E+04   0.157E+01 -.909E+00 -.118E+04   0.557E-01 -.321E-01 -.950E+00   0.176E-01 -.145E-01 -.119E+00
   0.164E+01 0.948E+00 0.118E+04   -.157E+01 -.909E+00 -.118E+04   -.557E-01 -.321E-01 -.950E+00   -.169E-01 -.114E-01 -.119E+00
   -.685E-04 -.542E+01 -.112E+04   0.680E-04 0.560E+01 0.112E+04   0.737E-08 -.111E+00 0.888E+00   -.247E-02 -.669E-01 -.860E-01
   -.303E+02 -.175E+02 -.121E+04   0.313E+02 0.180E+02 0.121E+04   -.102E+01 -.590E+00 -.652E+00   0.832E-01 0.479E-01 -.671E-01
   0.303E+02 -.175E+02 -.121E+04   -.313E+02 0.180E+02 0.121E+04   0.102E+01 -.590E+00 -.652E+00   -.592E-01 0.494E-01 -.677E-01
   -.141E+02 0.817E+01 -.115E+04   0.139E+02 -.802E+01 0.115E+04   0.214E+00 -.124E+00 0.665E+00   0.414E-01 -.250E-01 -.790E-01
   -.472E-04 0.350E+02 -.121E+04   0.150E-03 -.361E+02 0.121E+04   -.786E-07 0.118E+01 -.652E+00   0.120E-01 -.772E-01 -.678E-01
   0.141E+02 0.817E+01 -.115E+04   -.139E+02 -.802E+01 0.115E+04   -.214E+00 -.124E+00 0.665E+00   -.440E-01 -.263E-01 -.790E-01
   0.469E+01 0.271E+01 -.112E+04   -.485E+01 -.280E+01 0.112E+04   0.958E-01 0.553E-01 0.888E+00   0.594E-01 0.343E-01 -.864E-01
   -.469E+01 0.271E+01 -.112E+04   0.485E+01 -.280E+01 0.112E+04   -.958E-01 0.553E-01 0.888E+00   -.588E-01 0.315E-01 -.859E-01
   -.146E-03 -.163E+02 -.115E+04   0.242E-03 0.160E+02 0.115E+04   -.165E-07 0.247E+00 0.665E+00   -.953E-03 0.483E-01 -.789E-01
   -.178E-04 0.297E-04 -.345E+04   0.424E-04 -.322E-04 0.345E+04   0.703E-18 0.999E-18 0.167E+01   -.305E-03 -.123E-03 -.289E-01
   -.985E+01 -.312E+02 -.343E+04   0.102E+02 0.314E+02 0.343E+04   -.345E+00 -.231E+00 0.240E+00   -.112E-01 -.162E-01 -.143E+00
   0.985E+01 -.312E+02 -.343E+04   -.102E+02 0.314E+02 0.343E+04   0.345E+00 -.231E+00 0.240E+00   0.123E-01 -.137E-01 -.144E+00
   -.319E+02 0.705E+01 -.343E+04   0.323E+02 -.687E+01 0.343E+04   -.373E+00 -.183E+00 0.240E+00   -.196E-01 -.169E-02 -.143E+00
   0.319E+02 0.705E+01 -.343E+04   -.323E+02 -.687E+01 0.343E+04   0.373E+00 -.183E+00 0.240E+00   0.179E-01 -.727E-03 -.144E+00
   -.221E+02 0.241E+02 -.343E+04   0.221E+02 -.245E+02 0.343E+04   -.277E-01 0.414E+00 0.240E+00   -.570E-02 0.174E-01 -.144E+00
   0.221E+02 0.241E+02 -.343E+04   -.221E+02 -.245E+02 0.343E+04   0.277E-01 0.414E+00 0.240E+00   0.907E-02 0.159E-01 -.144E+00
   -.126E-03 -.694E-05 -.347E+04   0.256E-03 -.113E-05 0.347E+04   -.223E-16 -.748E-17 0.196E+01   -.133E-01 -.685E-02 -.664E-01
   0.124E-03 -.159E-03 -.397E+04   0.122E-03 0.327E-04 0.397E+04   -.481E-18 0.651E-18 0.490E+01   0.502E-02 0.303E-02 -.156E+00
 -----------------------------------------------------------------------------------------------
   -.380E-04 -.861E-04 0.145E+02   0.135E-12 0.865E-13 -.455E-12   0.952E-16 0.487E-16 -.118E+02   0.568E-01 0.298E-01 -.261E+01
 
 
 POSITION                                       TOTAL-FORCE (eV/Angst)
 -----------------------------------------------------------------------------------
      0.00000      0.00000      5.37156        -0.000000     -0.000000      0.012452
      2.56560      0.00000      5.37156         0.008302      0.005062      0.045688
      5.13119      0.00000      5.37156        -0.008302      0.005062      0.045688
      1.28280      2.22187      5.37156         0.008535      0.004659      0.045688
      3.84839      2.22187      5.37156         0.000000      0.000000      0.054039
      6.41399      2.22187      5.37156        -0.008535      0.004659      0.045688
      2.56560      4.44374      5.37156         0.000233     -0.009721      0.045688
      5.13119      4.44374      5.37156        -0.000233     -0.009721      0.045688
      7.69679      4.44374      5.37156        -0.000000      0.000000      0.021898
      1.28280      0.74062      7.46636         0.045059      0.026015     -0.100150
      3.84839      0.74062      7.46636         0.000000     -0.017708     -0.020098
      6.41399      0.74062      7.46636        -0.045059      0.026015     -0.100150
      2.56560      2.96249      7.46636        -0.015335      0.008854     -0.020098
      5.13119      2.96249      7.46636         0.015335      0.008854     -0.020098
      7.69679      2.96249      7.46636        -0.000000      0.008316     -0.035650
      3.84839      5.18437      7.46636         0.000000     -0.052029     -0.100150
      6.41399      5.18437      7.46636         0.007202     -0.004158     -0.035650
      8.97958      5.18437      7.46636        -0.007202     -0.004158     -0.035650
      7.69679      1.47435      9.52922        -0.000000      0.000390     -0.009650
      2.57570      1.48708      9.58099         0.006727      0.003884      0.002496
      5.12109      1.48708      9.58099        -0.006727      0.003884      0.002496
      8.97941      3.70322      9.55185        -0.003227      0.001863      0.001138
      3.84839      3.69145      9.58099         0.000000     -0.007768      0.002496
      6.41416      3.70322      9.55185         0.003227      0.001863      0.001138
     10.26835      5.92844      9.52922        -0.000338     -0.000195     -0.009650
      5.12522      5.92844      9.52922         0.000338     -0.000195     -0.009650
      7.69679      5.92479      9.55185         0.000000     -0.003726      0.001138
      0.00000      0.00000     11.63765        -0.000000     -0.000000      0.037860
      6.39598      6.62341     11.64088        -0.007794     -0.003356      0.009882
      8.99759      6.62341     11.64088         0.007794     -0.003356      0.009882
      8.93403      2.22738     11.64088        -0.006803     -0.005072      0.009882
      6.45955      2.22738     11.64088         0.006803     -0.005072      0.009882
     10.23483      4.48044     11.64088         0.000991      0.008428      0.009882
      5.15874      4.48044     11.64088        -0.000991      0.008428      0.009882
      7.69679      4.44374     11.66679        -0.000000      0.000000      0.021370
      3.84839      2.22187     12.03290         0.000000      0.000000      0.004705
 -----------------------------------------------------------------------------------
    total drift:                                0.056807      0.029733      0.007235


--------------------------------------------------------------------------------------------------------



  FREE ENERGIE OF THE ION-ELECTRON SYSTEM (eV)
  ---------------------------------------------------
  free  energy   TOTEN  =      -130.46614515 eV

  energy  without entropy=     -130.46614515  energy(sigma->0) =     -130.46614515
 


--------------------------------------------------------------------------------------------------------


    POTLOK:  cpu time    0.0396: real time    0.0396


--------------------------------------------------------------------------------------------------------


 stress matrix after NEB project (eV)
     -6.53463      0.00000     -0.00000
      0.00000     -6.53463      0.00000
     -0.00000     -0.00000     -2.08055
  FORCES: max atom, RMS     0.037860    0.009797
  FORCE total and by dimension    0.058780    0.037860
  Stress total and by dimension    9.472669    6.534630
     LOOP+:  cpu time  129.8787: real time  130.4000
 -----------------------------------------------------------------------------
|                                                                             |
|           W    W    AA    RRRRR   N    N  II  N    N   GGGG   !!!           |
|           W    W   A  A   R    R  NN   N  II  NN   N  G    G  !!!           |
|           W    W  A    A  R    R  N N  N  II  N N  N  G       !!!           |
|           W WW W  AAAAAA  RRRRR   N  N N  II  N  N N  G  GGG   !            |
|           WW  WW  A    A  R   R   N   NN  II  N   NN  G    G                |
|           W    W  A    A  R    R  N    N  II  N    N   GGGG   !!!           |
|                                                                             |
|     Tetrahedron method does not include variations of the Fermi             |
|     occupations, so forces and stress will be inaccurate. We suggest        |
|     using a different smearing scheme ISMEAR = 1 or 2 for metals in         |
|     relaxations.                                                            |
|                                                                             |
 -----------------------------------------------------------------------------

    4ORBIT:  cpu time    0.0000: real time    0.0000



 total charge

# of ion       s       p       d       tot
------------------------------------------
    1        0.450   0.283   9.188   9.921
    2        0.448   0.286   9.186   9.920
    3        0.448   0.286   9.186   9.920
    4        0.448   0.286   9.186   9.920
    5        0.448   0.286   9.182   9.916
    6        0.448   0.286   9.186   9.920
    7        0.448   0.286   9.186   9.920
    8        0.448   0.286   9.186   9.920
    9        0.450   0.284   9.186   9.921
   10        0.443   0.372   9.176   9.990
   11        0.440   0.364   9.181   9.986
   12        0.443   0.372   9.176   9.990
   13        0.440   0.364   9.181   9.986
   14        0.440   0.364   9.181   9.986
   15        0.440   0.372   9.177   9.989
   16        0.443   0.372   9.176   9.990
   17        0.440   0.372   9.177   9.989
   18        0.440   0.372   9.177   9.989
   19        0.446   0.374   9.179   9.999
   20        0.454   0.380   9.160   9.994
   21        0.454   0.380   9.160   9.994
   22        0.435   0.376   9.178   9.989
   23        0.454   0.380   9.160   9.994
   24        0.435   0.376   9.178   9.989
   25        0.446   0.374   9.179   9.999
   26        0.446   0.374   9.179   9.999
   27        0.435   0.376   9.178   9.989
   28        0.442   0.300   9.179   9.921
   29        0.489   0.326   9.157   9.971
   30        0.489   0.326   9.157   9.971
   31        0.489   0.326   9.157   9.971
   32        0.489   0.326   9.157   9.971
   33        0.489   0.326   9.157   9.971
   34        0.489   0.326   9.157   9.971
   35        0.441   0.306   9.179   9.925
   36        2.226   5.954   1.608   9.788
--------------------------------------------------
tot         18.050  17.795 322.732 358.576
 
 BZINTS: Fermi energy:    0.429760;  397.000000 electrons
         Band energy:-0.122884E+04;  BLOECHL correction:   -0.033125

 total amount of memory used by VASP MPI-rank0   103876. kBytes
=======================================================================

   base      :      30000. kBytes
   nonlr-proj:      17494. kBytes
   fftplans  :       2916. kBytes
   grid      :      11902. kBytes
   one-center:        559. kBytes
   wavefun   :      41005. kBytes
 
  
  
 General timing and accounting informations for this job:
 ========================================================
  
                  Total CPU time used (sec):      136.624
                            User time (sec):      132.854
                          System time (sec):        3.770
                         Elapsed time (sec):      137.538
  
                   Maximum memory used (kb):      340236.
                   Average memory used (kb):          N/A
  
                          Minor page faults:        85511
                          Major page faults:            0
                 Voluntary context switches:         5119
