 vasp.6.2.0 18Jan21 (build Jun 12 2021 23:27:24) complex                        
  
 executed on             LinuxIFC date 2022.05.27  06:15:38
 running on   28 total cores
 distrk:  each k-point on   28 cores,    1 groups
 distr:  one band on NCORE=   1 cores,   28 groups


--------------------------------------------------------------------------------------------------------


 INCAR:
   ISMEAR = -5
   SIGMA = 0.1
   ISPIN = 1
   EDIFF = 1.d-5
   EDIFFG = -0.01
   NSW = 0
   NELM = 150
   ENCUT = 500
   ISIF = 2
   IBRION = 2
   LREAL = Auto
   ALGO = Fast
   ICHARG = 11
   LORBIT = 10
   LCHARG = .F.
   LWAVE = .F.

 POTCAR:    PAW_PBE Cu 22Jun2005                  
 POTCAR:    PAW_PBE Hf 20Jan2003                  
 POTCAR:    PAW_PBE N 08Apr2002                   
 -----------------------------------------------------------------------------
|                                                                             |
|           W    W    AA    RRRRR   N    N  II  N    N   GGGG   !!!           |
|           W    W   A  A   R    R  NN   N  II  NN   N  G    G  !!!           |
|           W    W  A    A  R    R  N N  N  II  N N  N  G       !!!           |
|           W WW W  AAAAAA  RRRRR   N  N N  II  N  N N  G  GGG   !            |
|           WW  WW  A    A  R   R   N   NN  II  N   NN  G    G                |
|           W    W  A    A  R    R  N    N  II  N    N   GGGG   !!!           |
|                                                                             |
|     For optimal performance we recommend to set                             |
|       NCORE = 2 up to number-of-cores-per-socket                            |
|     NCORE specifies how many cores store one orbital (NPAR=cpu/NCORE).      |
|     This setting can greatly improve the performance of VASP for DFT.       |
|     The default, NCORE=1 might be grossly inefficient on modern             |
|     multi-core architectures or massively parallel machines. Do your        |
|     own testing! More info at https://www.vasp.at/wiki/index.php/NCORE      |
|     Unfortunately you need to use the default for GW and RPA                |
|     calculations (for HF NCORE is supported but not extensively tested      |
|     yet).                                                                   |
|                                                                             |
 -----------------------------------------------------------------------------

 POTCAR:    PAW_PBE Cu 22Jun2005                  
   VRHFIN =Cu: d10 p1                                                                               
   LEXCH  = PE                                                                                      
   EATOM  =  1390.9808 eV,  102.2342 Ry                                                             
                                                                                                    
   TITEL  = PAW_PBE Cu 22Jun2005                                                                    
   LULTRA =        F    use ultrasoft PP ?                                                          
   IUNSCR =        1    unscreen: 0-lin 1-nonlin 2-no                                               
   RPACOR =    2.000    partial core radius                                                         
   POMASS =   63.546; ZVAL   =   11.000    mass and valenz                                          
   RCORE  =    2.300    outmost cutoff radius                                                       
   RWIGS  =    2.200; RWIGS  =    1.164    wigner-seitz radius (au A)                               
   ENMAX  =  295.446; ENMIN  =  221.585 eV                                                          
   ICORE  =        3    local potential                                                             
   LCOR   =        T    correct aug charges                                                         
   LPAW   =        T    paw PP                                                                      
   EAUG   =  586.980                                                                                
   DEXC   =    0.000                                                                                
   RMAX   =    2.344    core radius for proj-oper                                                   
   RAUG   =    1.300    factor for augmentation sphere                                              
   RDEP   =    2.302    radius for radial grids                                                     
   RDEPT  =    1.771    core radius for aug-charge                                                  
                                                                                                    
   Atomic configuration                                                                             
    9 entries                                                                                       
     n  l   j            E        occ.                                                              
     1  0  0.50     -8850.2468   2.0000                                                             
     2  0  0.50     -1062.3498   2.0000                                                             
     2  1  1.50      -916.8226   6.0000                                                             
     3  0  0.50      -114.6929   2.0000                                                             
     3  1  1.50       -72.1325   6.0000                                                             
     3  2  2.50        -5.0394  10.0000                                                             
     4  0  0.50        -4.6097   1.0000                                                             
     4  1  0.50        -4.0817   0.0000                                                             
     4  3  2.50        -1.3606   0.0000                                                             
   Description                                                                                      
     l       E           TYP  RCUT    TYP  RCUT                                                     
     2     -5.0393973     23  2.200                                                                 
     2     10.8846608     23  2.200                                                                 
     0     -4.6097109     23  2.200                                                                 
     0      8.2520465     23  2.200                                                                 
     1     -2.7211652     23  2.200                                                                 
     1     21.7055443     23  2.200                                                                 
     3      2.7211652     23  2.300                                                                 
  local pseudopotential read in
  partial core-charges read in
  partial kinetic energy density read in
  atomic valenz-charges read in
  non local Contribution for L=           2  read in
    real space projection operators read in
  non local Contribution for L=           2  read in
    real space projection operators read in
  non local Contribution for L=           0  read in
    real space projection operators read in
  non local Contribution for L=           0  read in
    real space projection operators read in
  non local Contribution for L=           1  read in
    real space projection operators read in
  non local Contribution for L=           1  read in
    real space projection operators read in
    PAW grid and wavefunctions read in
 
   number of l-projection  operators is LMAX  =           6
   number of lm-projection operators is LMMAX =          18
 
 POTCAR:    PAW_PBE Hf 20Jan2003                  
   VRHFIN =Hf: 6s5d                                                                                 
   LEXCH  = PE                                                                                      
   EATOM  =    75.9011 eV,    5.5786 Ry                                                             
                                                                                                    
   TITEL  = PAW_PBE Hf 20Jan2003                                                                    
   LULTRA =        F    use ultrasoft PP ?                                                          
   IUNSCR =        1    unscreen: 0-lin 1-nonlin 2-no                                               
   RPACOR =    2.500    partial core radius                                                         
   POMASS =  178.490; ZVAL   =    4.000    mass and valenz                                          
   RCORE  =    3.000    outmost cutoff radius                                                       
   RWIGS  =    3.050; RWIGS  =    1.614    wigner-seitz radius (au A)                               
   ENMAX  =  220.334; ENMIN  =  165.250 eV                                                          
   RCLOC  =    2.212    cutoff for local pot                                                        
   LCOR   =        T    correct aug charges                                                         
   LPAW   =        T    paw PP                                                                      
   EAUG   =  335.116                                                                                
   DEXC   =    0.000                                                                                
   RMAX   =    3.077    core radius for proj-oper                                                   
   RAUG   =    1.300    factor for augmentation sphere                                              
   RDEP   =    3.047    radius for radial grids                                                     
   RDEPT  =    2.344    core radius for aug-charge                                                  
                                                                                                    
   Atomic configuration                                                                             
   16 entries                                                                                       
     n  l   j            E        occ.                                                              
     1  0  0.50    -65259.4397   2.0000                                                             
     2  0  0.50    -11157.9882   2.0000                                                             
     2  1  1.50     -9795.2113   6.0000                                                             
     3  0  0.50     -2541.4058   2.0000                                                             
     3  1  1.50     -2134.4770   6.0000                                                             
     3  2  2.50     -1653.5418  10.0000                                                             
     4  0  0.50      -510.9575   2.0000                                                             
     4  1  1.50      -377.5023   6.0000                                                             
     4  2  2.50      -205.2085  10.0000                                                             
     4  3  3.50       -15.4905  14.0000                                                             
     5  0  0.50       -65.6020   2.0000                                                             
     5  1  1.50       -34.2798   6.0000                                                             
     5  2  2.50        -1.9877   3.0000                                                             
     6  0  0.50        -4.7357   1.0000                                                             
     6  1  1.50        -1.3606   0.0000                                                             
     5  3  2.50        -1.3606   0.0000                                                             
   Description                                                                                      
     l       E           TYP  RCUT    TYP  RCUT                                                     
     2     -1.9876627     23  2.500                                                                 
     2      0.0744703     23  2.500                                                                 
     0     -4.7356889     23  2.600                                                                 
     0      3.2364747     23  2.600                                                                 
     1     -1.3605826     23  3.000                                                                 
     1     27.2116520     23  3.000                                                                 
  local pseudopotential read in
  partial core-charges read in
  partial kinetic energy density read in
  atomic valenz-charges read in
  non local Contribution for L=           2  read in
    real space projection operators read in
  non local Contribution for L=           2  read in
    real space projection operators read in
  non local Contribution for L=           0  read in
    real space projection operators read in
  non local Contribution for L=           0  read in
    real space projection operators read in
  non local Contribution for L=           1  read in
    real space projection operators read in
  non local Contribution for L=           1  read in
    real space projection operators read in
    PAW grid and wavefunctions read in
 
   number of l-projection  operators is LMAX  =           6
   number of lm-projection operators is LMMAX =          18
 
 POTCAR:    PAW_PBE N 08Apr2002                   
   VRHFIN =N: s2p3                                                                                  
   LEXCH  = PE                                                                                      
   EATOM  =   264.5486 eV,   19.4438 Ry                                                             
                                                                                                    
   TITEL  = PAW_PBE N 08Apr2002                                                                     
   LULTRA =        F    use ultrasoft PP ?                                                          
   IUNSCR =        1    unscreen: 0-lin 1-nonlin 2-no                                               
   RPACOR =    1.200    partial core radius                                                         
   POMASS =   14.001; ZVAL   =    5.000    mass and valenz                                          
   RCORE  =    1.500    outmost cutoff radius                                                       
   RWIGS  =    1.400; RWIGS  =    0.741    wigner-seitz radius (au A)                               
   ENMAX  =  400.000; ENMIN  =  300.000 eV                                                          
   ICORE  =        2    local potential                                                             
   LCOR   =        T    correct aug charges                                                         
   LPAW   =        T    paw PP                                                                      
   EAUG   =  627.112                                                                                
   DEXC   =    0.000                                                                                
   RMAX   =    1.529    core radius for proj-oper                                                   
   RAUG   =    1.300    factor for augmentation sphere                                              
   RDEP   =    1.514    radius for radial grids                                                     
   RDEPT  =    1.338    core radius for aug-charge                                                  
                                                                                                    
   Atomic configuration                                                                             
    4 entries                                                                                       
     n  l   j            E        occ.                                                              
     1  0  0.50      -384.7179   2.0000                                                             
     2  0  0.50       -18.5828   2.0000                                                             
     2  1  0.50        -7.0898   3.0000                                                             
     3  2  1.50        -6.8029   0.0000                                                             
   Description                                                                                      
     l       E           TYP  RCUT    TYP  RCUT                                                     
     0    -18.5828119     23  1.200                                                                 
     0    -13.5018863     23  1.200                                                                 
     1     -7.0897853     23  1.500                                                                 
     1      9.5240782     23  1.500                                                                 
     2     -6.8029130      7  1.500                                                                 
  local pseudopotential read in
  partial core-charges read in
  partial kinetic energy density read in
  atomic valenz-charges read in
  non local Contribution for L=           0  read in
    real space projection operators read in
  non local Contribution for L=           0  read in
    real space projection operators read in
  non local Contribution for L=           1  read in
    real space projection operators read in
  non local Contribution for L=           1  read in
    real space projection operators read in
    PAW grid and wavefunctions read in
 
   number of l-projection  operators is LMAX  =           4
   number of lm-projection operators is LMMAX =           8
 
 Optimization of the real space projectors (new method)

 maximal supplied QI-value         = 16.25
 optimisation between [QCUT,QGAM] = [ 11.38, 22.75] = [ 36.24,144.96] Ry 
 Optimized for a Real-space Cutoff    1.52 Angstroem

   l    n(q)    QCUT    max X(q) W(low)/X(q) W(high)/X(q)  e(spline) 
   2      9    11.376     4.610    0.21E-03    0.10E-03    0.26E-06
   2      9    11.376     8.522    0.33E-03    0.16E-03    0.37E-06
   0     10    11.376    51.609    0.62E-04    0.20E-04    0.13E-06
   0     10    11.376    27.747    0.54E-04    0.20E-04    0.13E-06
   1     10    11.376    20.408    0.13E-04    0.99E-04    0.19E-06
   1     10    11.376    13.425    0.12E-04    0.87E-04    0.17E-06
 Optimization of the real space projectors (new method)

 maximal supplied QI-value         = 12.47
 optimisation between [QCUT,QGAM] = [ 11.35, 22.82] = [ 36.07,145.88] Ry 
 Optimized for a Real-space Cutoff    1.66 Angstroem

   l    n(q)    QCUT    max X(q) W(low)/X(q) W(high)/X(q)  e(spline) 
   2     10    11.350    48.111    0.20E-03    0.11E-03    0.41E-06
   2     10    11.350    40.545    0.19E-03    0.10E-03    0.39E-06
   0     11    11.350   121.658    0.22E-04    0.19E-04    0.24E-06
   0     11    11.350    71.177    0.17E-04    0.17E-04    0.23E-06
   1     11    11.350    14.183    0.25E-03    0.43E-03    0.12E-05
   1     11    11.350     8.257    0.17E-03    0.29E-03    0.81E-06
 Optimization of the real space projectors (new method)

 maximal supplied QI-value         = 25.13
 optimisation between [QCUT,QGAM] = [ 11.31, 22.87] = [ 35.82,146.48] Ry 
 Optimized for a Real-space Cutoff    1.27 Angstroem

   l    n(q)    QCUT    max X(q) W(low)/X(q) W(high)/X(q)  e(spline) 
   0      9    11.310    79.467    0.75E-04    0.16E-03    0.36E-06
   0      9    11.310    66.151    0.74E-04    0.16E-03    0.36E-06
   1      8    11.310    17.416    0.35E-03    0.12E-03    0.95E-06
   1      8    11.310    12.382    0.37E-03    0.13E-03    0.98E-06
  PAW_PBE Cu 22Jun2005                  :
 energy of atom  1       EATOM=-1390.9808
 kinetic energy error for atom=    0.0043 (will be added to EATOM!!)
  PAW_PBE Hf 20Jan2003                  :
 energy of atom  2       EATOM=  -75.9011
 kinetic energy error for atom=    0.0007 (will be added to EATOM!!)
  PAW_PBE N 08Apr2002                   :
 energy of atom  3       EATOM= -264.5486
 kinetic energy error for atom=    0.0138 (will be added to EATOM!!)
 
 
 POSCAR: Cu-Hf-N2
  positions in direct lattice
  velocities in cartesian coordinates
 exchange correlation table for  LEXCH =        8
   RHO(1)=    0.500       N(1)  =     2000
   RHO(2)=  100.500       N(2)  =     4000

 VTST: version 3.2, (02/03/18)

 CHAIN: initializing optimizer
 
 OPT: Using VASP Conjugate-Gradient optimizer
 CHAIN: Read ICHAIN            0
 
 POSCAR: Cu-Hf-N2
  positions in direct lattice
  velocities in cartesian coordinates
 


--------------------------------------------------------------------------------------------------------


 ion  position               nearest neighbor table
   1  0.000  0.000  0.252-   7 2.57   3 2.57   4 2.57   2 2.57   6 2.57   8 2.57  12 2.57  10 2.57
                            16 2.57
   2  0.333  0.000  0.252-   8 2.57   9 2.57   5 2.57   1 2.57   3 2.57  11 2.57   4 2.57  10 2.57
                            17 2.57
   3  0.667  0.000  0.252-   1 2.57   7 2.57   6 2.57   9 2.57   2 2.57  12 2.57   5 2.57  18 2.57
                            11 2.57
   4  0.000  0.333  0.252-   5 2.57   6 2.57   1 2.57   7 2.57   2 2.57  13 2.57   9 2.57  10 2.57
                            15 2.57
   5  0.333  0.333  0.252-   4 2.57   2 2.57   7 2.57  13 2.57   8 2.57   6 2.57   3 2.57  11 2.57
                            14 2.57
   6  0.667  0.333  0.252-   4 2.57   9 2.57  15 2.57   3 2.57   1 2.57   8 2.57  14 2.57   5 2.57
                            12 2.57
   7  0.000  0.667  0.252-   1 2.57   3 2.57  16 2.57  18 2.57   4 2.57   5 2.57   8 2.57   9 2.57
                            13 2.57
   8  0.333  0.667  0.252-   9 2.57   2 2.57  17 2.57   6 2.57   1 2.57   7 2.57   5 2.57  14 2.57
                            16 2.57
   9  0.667  0.667  0.252-   8 2.57   6 2.57   2 2.57  17 2.57   3 2.57   7 2.57   4 2.57  15 2.57
                            18 2.57
  10  0.111  0.111  0.351-  26 2.54  19 2.54  11 2.57  12 2.57  13 2.57   1 2.57   2 2.57   4 2.57
                            15 2.57  16 2.57  17 2.57  20 2.58
  11  0.444  0.111  0.351-  27 2.56  10 2.57  13 2.57   2 2.57  17 2.57  14 2.57  12 2.57   5 2.57
                             3 2.57  18 2.57  20 2.57  21 2.57
  12  0.778  0.111  0.351-  19 2.54  25 2.54  15 2.57  10 2.57  14 2.57  18 2.57   3 2.57   1 2.57
                            16 2.57  11 2.57   6 2.57  21 2.58
  13  0.111  0.444  0.351-  22 2.56  16 2.57  18 2.57  10 2.57  11 2.57  14 2.57   5 2.57   4 2.57
                             7 2.57  15 2.57  23 2.57  20 2.57
  14  0.444  0.444  0.351-  24 2.56  15 2.57  17 2.57  12 2.57  16 2.57  13 2.57  11 2.57   6 2.57
                             8 2.57   5 2.57  21 2.57  23 2.57
  15  0.778  0.444  0.351-  19 2.55  24 2.56  22 2.56  14 2.57  17 2.57  12 2.57   6 2.57  18 2.57
                            10 2.57   9 2.57  13 2.57   4 2.57
  16  0.111  0.778  0.351-  25 2.54  26 2.54  18 2.57  13 2.57   7 2.57  14 2.57  17 2.57  12 2.57
                            10 2.57   8 2.57   1 2.57  23 2.58
  17  0.444  0.778  0.351-  26 2.55  27 2.56  24 2.56  14 2.57  15 2.57   8 2.57   9 2.57  11 2.57
                            16 2.57  18 2.57  10 2.57   2 2.57
  18  0.778  0.778  0.351-  25 2.55  22 2.56  27 2.56  16 2.57  13 2.57   7 2.57  15 2.57  12 2.57
                            17 2.57   9 2.57   3 2.57  11 2.57
  19  0.889  0.221  0.448-  12 2.54  10 2.54  15 2.55  25 2.56  26 2.56  32 2.57  31 2.57  22 2.57
                            24 2.57  21 2.57  20 2.57  28 2.57
  20  0.223  0.223  0.450-  23 2.55  21 2.55  27 2.57  22 2.57  26 2.57  19 2.57  11 2.57  13 2.57
                            10 2.58  29 2.58  31 2.58  36 2.77
  21  0.555  0.223  0.450-  20 2.55  23 2.55  24 2.57  27 2.57  19 2.57  25 2.57  14 2.57  11 2.57
                            12 2.58  32 2.58  30 2.58  36 2.77
  22  0.889  0.556  0.449-  18 2.56  15 2.56  13 2.56  24 2.56  27 2.56  23 2.57  20 2.57  31 2.57
                            33 2.57  19 2.57  25 2.57  35 2.58
  23  0.223  0.555  0.450-  20 2.55  21 2.55  22 2.57  24 2.57  25 2.57  26 2.57  13 2.57  14 2.57
                            16 2.58  33 2.58  34 2.58  36 2.77
  24  0.556  0.556  0.449-  15 2.56  17 2.56  14 2.56  22 2.56  27 2.56  21 2.57  23 2.57  32 2.57
                            34 2.57  19 2.57  26 2.57  35 2.58
  25  0.889  0.889  0.448-  12 2.54  16 2.54  18 2.55  19 2.56  26 2.56  33 2.57  30 2.57  22 2.57
                            27 2.57  21 2.57  23 2.57  28 2.57
  26  0.221  0.889  0.448-  10 2.54  16 2.54  17 2.55  25 2.56  19 2.56  29 2.57  34 2.57  27 2.57
                            24 2.57  20 2.57  23 2.57  28 2.57
  27  0.556  0.889  0.449-  17 2.56  18 2.56  11 2.56  24 2.56  22 2.56  20 2.57  21 2.57  29 2.57
                            30 2.57  26 2.57  25 2.57  35 2.58
  28  0.000  0.000  0.547-  33 2.55  30 2.55  31 2.55  29 2.55  32 2.55  34 2.55  25 2.57  19 2.57
                            26 2.57
  29  0.334  0.994  0.548-  34 2.48  35 2.54  28 2.55  26 2.57  27 2.57  20 2.58  30 2.60  31 2.61
                            36 2.62
  30  0.672  0.994  0.548-  33 2.48  35 2.54  28 2.55  25 2.57  27 2.57  21 2.58  29 2.60  32 2.61
                            36 2.62
  31  0.994  0.334  0.548-  32 2.48  35 2.54  28 2.55  19 2.57  22 2.57  20 2.58  33 2.60  29 2.61
                            36 2.62
  32  0.672  0.334  0.548-  31 2.48  35 2.54  28 2.55  19 2.57  24 2.57  21 2.58  34 2.60  30 2.61
                            36 2.62
  33  0.994  0.672  0.548-  30 2.48  35 2.54  28 2.55  25 2.57  22 2.57  23 2.58  31 2.60  34 2.61
                            36 2.62
  34  0.334  0.672  0.548-  29 2.48  35 2.54  28 2.55  26 2.57  24 2.57  23 2.58  32 2.60  33 2.61
                            36 2.62
  35  0.667  0.667  0.548-  34 2.54  32 2.54  29 2.54  30 2.54  33 2.54  31 2.54  24 2.58  27 2.58
                            22 2.58
  36  0.333  0.333  0.560-  38 2.56  37 2.56  31 2.62  29 2.62  33 2.62  32 2.62  34 2.62  30 2.62
                            23 2.77  20 2.77  21 2.77
  37  0.258  0.335  0.677-  38 1.14  36 2.56
  38  0.406  0.335  0.677-  37 1.14  36 2.56
 
  LATTYP: Found a hexagonal cell.
 ALAT       =     7.6967864036
 C/A-ratio  =     2.7653617908
  
  Lattice vectors:
  
 A1 = (  -3.8483927580,  -6.6656128093,   0.0000000000)
 A2 = (   7.6967864037,   0.0000000000,   0.0000000000)
 A3 = (   0.0000000000,   0.0000000000,  21.2843990326)


Analysis of symmetry for initial positions (statically):
=====================================================================
 Subroutine PRICEL returns:
 Original cell was already a primitive cell.
 

 Routine SETGRP: Setting up the symmetry group for a 
 hexagonal supercell.


 Subroutine GETGRP returns: Found  2 space group operations
 (whereof  2 operations were pure point group operations)
 out of a pool of 24 trial point group operations.


The static configuration has the point symmetry C_1h.


Analysis of symmetry for dynamics (positions and initial velocities):
=====================================================================
 Subroutine PRICEL returns:
 Original cell was already a primitive cell.
 

 Routine SETGRP: Setting up the symmetry group for a 
 hexagonal supercell.


 Subroutine GETGRP returns: Found  2 space group operations
 (whereof  2 operations were pure point group operations)
 out of a pool of 24 trial point group operations.


The dynamic configuration has the point symmetry C_1h.


Analysis of constrained symmetry for selective dynamics:
=====================================================================
 Subroutine PRICEL returns:
 Original cell was already a primitive cell.
 

 Routine SETGRP: Setting up the symmetry group for a 
 hexagonal supercell.


 Subroutine GETGRP returns: Found  2 space group operations
 (whereof  2 operations were pure point group operations)
 out of a pool of 24 trial point group operations.


The constrained configuration has the point symmetry C_1h.


 Subroutine INISYM returns: Found  2 space group operations
 (whereof  2 operations are pure point group operations),
 and found     1 'primitive' translations


----------------------------------------------------------------------------------------

                                     Primitive cell                                     

  volume of cell :    1091.9705

  direct lattice vectors                    reciprocal lattice vectors
     7.696786404  0.000000000  0.000000000     0.129924354 -0.075011849  0.000000000
     3.848392758  6.665612809  0.000000000     0.000000000  0.150023716  0.000000000
     0.000000000  0.000000000 21.284399033     0.000000000  0.000000000  0.046982769

  length of vectors
     7.696786404  7.696786404 21.284399033     0.150023716  0.150023716  0.046982769

  position of ions in fractional coordinates (direct lattice)
     0.000000000  0.000000000  0.252370745
     0.333333343  0.000000000  0.252370745
     0.666666687  0.000000000  0.252370745
     1.000000000  0.333333343  0.252370745
     0.333333313  0.333333343  0.252370745
     0.666666687  0.333333343  0.252370745
     1.000000000  0.666666687  0.252370745
     0.333333373  0.666666687  0.252370745
     0.666666627  0.666666687  0.252370745
     0.111111119  0.111111112  0.350790262
     0.444444418  0.111111112  0.350790262
     0.777777791  0.111111112  0.350790262
     0.111111119  0.444444448  0.350790262
     0.444444478  0.444444448  0.350790262
     0.777777731  0.444444448  0.350790262
     0.111111112  0.777777731  0.350790262
     0.444444478  0.777777731  0.350790262
     0.777777851  0.777777731  0.350790262
     0.889263854  0.221472309  0.448017292
     0.222727760  0.222727745  0.449740995
     0.554544539  0.222727745  0.449740995
     0.888734740  0.555632600  0.448896737
     0.222727730  0.554544479  0.449740995
     0.555632660  0.555632600  0.448896737
     0.889263854  0.889263854  0.448017292
     0.221472324  0.889263854  0.448017292
     0.555632600  0.888734740  0.448896737
     0.000000000  0.000000000  0.547024706
     0.333803354  0.994491360  0.547616151
     0.671705316  0.994491360  0.547616151
     0.994491360  0.333803354  0.547616151
     0.671705316  0.333803354  0.547616151
     0.994491360  0.671705316  0.547616151
     0.333803384  0.671705316  0.547616151
     0.666666627  0.666666687  0.548174583
     0.333333313  0.333333343  0.559848234
     0.258435508  0.335095284  0.677134208
     0.406469177  0.335095284  0.677134208

  ion indices of the primitive-cell ions
   primitive index   ion index
                 1           1
                 2           2
                 3           3
                 4           4
                 5           5
                 6           6
                 7           7
                 8           8
                 9           9
                10          10
                11          11
                12          12
                13          13
                14          14
                15          15
                16          16
                17          17
                18          18
                19          19
                20          20
                21          21
                22          22
                23          23
                24          24
                25          25
                26          26
                27          27
                28          28
                29          29
                30          30
                31          31
                32          32
                33          33
                34          34
                35          35
                36          36
                37          37
                38          38

----------------------------------------------------------------------------------------

 
 
 KPOINTS: Automatic mesh                          

Automatic generation of k-mesh.
 Grid dimensions read from file:
 generate k-points for:    8    8    1

 Generating k-lattice:

  Cartesian coordinates                     Fractional coordinates (reciprocal lattice)
     0.016240544 -0.009376481  0.000000000     0.125000000 -0.000000000  0.000000000
     0.000000000  0.018752964  0.000000000     0.000000000  0.125000000  0.000000000
     0.000000000  0.000000000  0.046982769     0.000000000  0.000000000  1.000000000

  Length of vectors
     0.018752964  0.018752964  0.046982769

  Shift w.r.t. Gamma in fractional coordinates (k-lattice)
     0.000000000  0.000000000  0.000000000

 TETIRR: Found    100 inequivalent tetrahedra from      384
 
 Subroutine IBZKPT returns following result:
 ===========================================
 
 Found     21 irreducible k-points:
 
 Following reciprocal coordinates:
            Coordinates               Weight
  0.000000  0.000000  0.000000      1.000000
  0.125000 -0.000000  0.000000      4.000000
  0.000000  0.125000  0.000000      2.000000
  0.250000 -0.000000  0.000000      4.000000
  0.000000  0.250000  0.000000      2.000000
  0.375000 -0.000000  0.000000      4.000000
  0.000000  0.375000  0.000000      2.000000
  0.500000 -0.000000  0.000000      2.000000
  0.000000  0.500000  0.000000      1.000000
  0.250000  0.125000  0.000000      2.000000
  0.125000  0.250000  0.000000      4.000000
  0.375000  0.125000  0.000000      4.000000
  0.250000  0.375000  0.000000      4.000000
 -0.125000  0.250000  0.000000      4.000000
  0.500000  0.125000  0.000000      4.000000
  0.375000  0.500000  0.000000      4.000000
 -0.125000  0.375000  0.000000      4.000000
  0.500000  0.250000  0.000000      2.000000
  0.250000  0.500000  0.000000      4.000000
 -0.375000  0.250000  0.000000      4.000000
 -0.250000  0.375000  0.000000      2.000000
 
 Following cartesian coordinates:
            Coordinates               Weight
  0.000000  0.000000  0.000000      1.000000
  0.016241 -0.009376  0.000000      4.000000
  0.000000  0.018753  0.000000      2.000000
  0.032481 -0.018753  0.000000      4.000000
  0.000000  0.037506  0.000000      2.000000
  0.048722 -0.028129  0.000000      4.000000
  0.000000  0.056259  0.000000      2.000000
  0.064962 -0.037506  0.000000      2.000000
  0.000000  0.075012  0.000000      1.000000
  0.032481  0.000000  0.000000      2.000000
  0.016241  0.028129  0.000000      4.000000
  0.048722 -0.009376  0.000000      4.000000
  0.032481  0.037506  0.000000      4.000000
 -0.016241  0.046882  0.000000      4.000000
  0.064962 -0.018753  0.000000      4.000000
  0.048722  0.046882  0.000000      4.000000
 -0.016241  0.065635  0.000000      4.000000
  0.064962  0.000000  0.000000      2.000000
  0.032481  0.056259  0.000000      4.000000
 -0.048722  0.065635  0.000000      4.000000
 -0.032481  0.075012  0.000000      2.000000
 


--------------------------------------------------------------------------------------------------------




 Dimension of arrays:
   k-points           NKPTS =     21   k-points in BZ     NKDIM =     21   number of bands    NBANDS=    252
   number of dos      NEDOS =    301   number of ions     NIONS =     38
   non local maximal  LDIM  =      6   non local SUM 2l+1 LMDIM =     18
   total plane-waves  NPLWV = 211680
   max r-space proj   IRMAX =   3760   max aug-charges    IRDMAX=  13214
   dimension x,y,z NGX =    42 NGY =   42 NGZ =  120
   dimension x,y,z NGXF=    84 NGYF=   84 NGZF=  240
   support grid    NGXF=    84 NGYF=   84 NGZF=  240
   ions per type =              35   1   2
   NGX,Y,Z   is equivalent  to a cutoff of   9.07,  9.07,  9.37 a.u.
   NGXF,Y,Z  is equivalent  to a cutoff of  18.14, 18.14, 18.75 a.u.

 SYSTEM =  unknown system                          
 POSCAR =  Cu-Hf-N2                                

 Startparameter for this run:
   NWRITE =      2    write-flag & timer
   PREC   = normal    normal or accurate (medium, high low for compatibility)
   ISTART =      0    job   : 0-new  1-cont  2-samecut
   ICHARG =     11    charge: 1-file 2-atom 10-const
   ISPIN  =      1    spin polarized calculation?
   LNONCOLLINEAR =      F non collinear calculations
   LSORBIT =      F    spin-orbit coupling
   INIWAV =      1    electr: 0-lowe 1-rand  2-diag
   LASPH  =      F    aspherical Exc in radial PAW
   METAGGA=      F    non-selfconsistent MetaGGA calc.

 Electronic Relaxation 1
   ENCUT  =  500.0 eV  36.75 Ry    6.06 a.u.  14.03 14.03 38.81*2*pi/ulx,y,z
   ENINI  =  500.0     initial cutoff
   ENAUG  =  627.1 eV  augmentation charge cutoff
   NELM   =    150;   NELMIN=  2; NELMDL= -5     # of ELM steps 
   EDIFF  = 0.1E-04   stopping-criterion for ELM
   LREAL  =      T    real-space projection
   NLSPLINE    = F    spline interpolate recip. space projectors
   LCOMPAT=      F    compatible to vasp.4.4
   GGA_COMPAT  = T    GGA compatible to vasp.4.4-vasp.4.6
   LMAXPAW     = -100 max onsite density
   LMAXMIX     =    2 max onsite mixed and CHGCAR
   VOSKOWN=      0    Vosko Wilk Nusair interpolation
   ROPT   =   -0.00050  -0.00050  -0.00050
 Ionic relaxation
   EDIFFG = -.1E-01   stopping-criterion for IOM
   NSW    =      0    number of steps for IOM
   NBLOCK =      1;   KBLOCK =      1    inner block; outer block 
   IBRION =     -1    ionic relax: 0-MD 1-quasi-New 2-CG
   NFREE  =      1    steps in history (QN), initial steepest desc. (CG)
   ISIF   =      2    stress and relaxation
   IWAVPR =     10    prediction:  0-non 1-charg 2-wave 3-comb
   ISYM   =      2    0-nonsym 1-usesym 2-fastsym
   LCORR  =      T    Harris-Foulkes like correction to forces

   POTIM  = 0.5000    time-step for ionic-motion
   TEIN   =    0.0    initial temperature
   TEBEG  =    0.0;   TEEND  =   0.0 temperature during run
   SMASS  =  -3.00    Nose mass-parameter (am)
   estimated Nose-frequenzy (Omega)   =  0.10E-29 period in steps = 0.13E+47 mass=  -0.135E-26a.u.
   SCALEE = 1.0000    scale energy and forces
   NPACO  =    256;   APACO  = 16.0  distance and # of slots for P.C.
   PSTRESS=    0.0 pullay stress

  Mass of Ions in am
   POMASS =  63.55178.49 14.00
  Ionic Valenz
   ZVAL   =  11.00  4.00  5.00
  Atomic Wigner-Seitz radii
   RWIGS  =  -1.00 -1.00 -1.00
  virtual crystal weights 
   VCA    =   1.00  1.00  1.00
   NELECT =     399.0000    total number of electrons
   NUPDOWN=      -1.0000    fix difference up-down

 DOS related values:
   EMIN   =  10.00;   EMAX   =-10.00  energy-range for DOS
   EFERMI =   0.00
   ISMEAR =    -5;   SIGMA  =   0.10  broadening in eV -4-tet -1-fermi 0-gaus

 Electronic relaxation 2 (details)
   IALGO  =     68    algorithm
   LDIAG  =      T    sub-space diagonalisation (order eigenvalues)
   LSUBROT=      F    optimize rotation matrix (better conditioning)
   TURBO    =      0    0=normal 1=particle mesh
   IRESTART =      0    0=no restart 2=restart with 2 vectors
   NREBOOT  =      0    no. of reboots
   NMIN     =      0    reboot dimension
   EREF     =   0.00    reference energy to select bands
   IMIX   =      4    mixing-type and parameters
     AMIX     =   0.40;   BMIX     =  1.00
     AMIX_MAG =   1.60;   BMIX_MAG =  1.00
     AMIN     =   0.10
     WC   =   100.;   INIMIX=   1;  MIXPRE=   1;  MAXMIX= -45

 Intra band minimization:
   WEIMIN = 0.0000     energy-eigenvalue tresh-hold
   EBREAK =  0.99E-08  absolut break condition
   DEPER  =   0.30     relativ break condition  

   TIME   =   0.40     timestep for ELM

  volume/ion in A,a.u.               =      28.74       193.92
  Fermi-wavevector in a.u.,A,eV,Ry     =   1.170385  2.211707 18.637282  1.369802
  Thomas-Fermi vector in A             =   2.306844
 
 Write flags
   LWAVE        =      F    write WAVECAR
   LDOWNSAMPLE  =      F    k-point downsampling of WAVECAR
   LCHARG       =      F    write CHGCAR
   LVTOT        =      F    write LOCPOT, total local potential
   LVHAR        =      F    write LOCPOT, Hartree potential only
   LELF         =      F    write electronic localiz. function (ELF)
   LORBIT       =     10    0 simple, 1 ext, 2 COOP (PROOUT), +10 PAW based schemes


 Dipole corrections
   LMONO  =      F    monopole corrections only (constant potential shift)
   LDIPOL =      F    correct potential (dipole corrections)
   IDIPOL =      0    1-x, 2-y, 3-z, 4-all directions 
   EPSILON=  1.0000000 bulk dielectric constant

 Exchange correlation treatment:
   GGA     =    --    GGA type
   LEXCH   =     8    internal setting for exchange type
   VOSKOWN=      0    Vosko Wilk Nusair interpolation
   LHFCALC =     F    Hartree Fock is set to
   LHFONE  =     F    Hartree Fock one center treatment
   AEXX    =    0.0000 exact exchange contribution

 Linear response parameters
   LEPSILON=     F    determine dielectric tensor
   LRPA    =     F    only Hartree local field effects (RPA)
   LNABLA  =     F    use nabla operator in PAW spheres
   LVEL    =     F    velocity operator in full k-point grid
   LINTERFAST=   F  fast interpolation
   KINTER  =     0    interpolate to denser k-point grid
   CSHIFT  =0.1000    complex shift for real part using Kramers Kronig
   OMEGAMAX=  -1.0    maximum frequency
   DEG_THRESHOLD= 0.2000000E-02 threshold for treating states as degnerate
   RTIME   =   -0.100 relaxation time in fs
  (WPLASMAI=    0.000 imaginary part of plasma frequency in eV, 0.658/RTIME)
   DFIELD  = 0.0000000 0.0000000 0.0000000 field for delta impulse in time
 
 Orbital magnetization related:
   ORBITALMAG=     F  switch on orbital magnetization
   LCHIMAG   =     F  perturbation theory with respect to B field
   DQ        =  0.001000  dq finite difference perturbation B field
   LLRAUG    =     F  two centre corrections for induced B field



--------------------------------------------------------------------------------------------------------


 Static calculation
 charge density and potential remain constant during run
 non-spin polarized calculation
 RMM-DIIS sequential band-by-band and
  variant of blocked Davidson during initial phase
 perform sub-space diagonalisation
    before iterative eigenvector-optimisation
 no mixing
 using additional bands           52
 real space projection scheme for non local part
 use partial core corrections
 calculate Harris-corrections to forces 
   (improved forces if not selfconsistent)
 use gradient corrections 
 WARNING: stress and forces are not correct
  (second derivative of E(xc) not defined)
 use of overlap-Matrix (Vanderbilt PP)
 Fermi weights with tetrahedron method with Bloechl corrections


--------------------------------------------------------------------------------------------------------


  energy-cutoff  :      500.00
  volume of cell :     1091.97
      direct lattice vectors                 reciprocal lattice vectors
     7.696786404  0.000000000  0.000000000     0.129924354 -0.075011849  0.000000000
     3.848392758  6.665612809  0.000000000     0.000000000  0.150023716  0.000000000
     0.000000000  0.000000000 21.284399033     0.000000000  0.000000000  0.046982769

  length of vectors
     7.696786404  7.696786404 21.284399033     0.150023716  0.150023716  0.046982769


 
 k-points in units of 2pi/SCALE and weight: Automatic mesh                          
   0.00000000  0.00000000  0.00000000       0.016
   0.01624054 -0.00937648  0.00000000       0.062
   0.00000000  0.01875296  0.00000000       0.031
   0.03248109 -0.01875296  0.00000000       0.062
   0.00000000  0.03750593  0.00000000       0.031
   0.04872163 -0.02812944  0.00000000       0.062
   0.00000000  0.05625889  0.00000000       0.031
   0.06496218 -0.03750592  0.00000000       0.031
   0.00000000  0.07501186  0.00000000       0.016
   0.03248109  0.00000000  0.00000000       0.031
   0.01624054  0.02812945  0.00000000       0.062
   0.04872163 -0.00937648  0.00000000       0.062
   0.03248109  0.03750593  0.00000000       0.062
  -0.01624054  0.04688241  0.00000000       0.062
   0.06496218 -0.01875296  0.00000000       0.062
   0.04872163  0.04688241  0.00000000       0.062
  -0.01624054  0.06563537  0.00000000       0.062
   0.06496218  0.00000000  0.00000000       0.031
   0.03248109  0.05625890  0.00000000       0.062
  -0.04872163  0.06563537  0.00000000       0.062
  -0.03248109  0.07501186  0.00000000       0.031
 
 k-points in reciprocal lattice and weights: Automatic mesh                          
   0.00000000  0.00000000  0.00000000       0.016
   0.12500000 -0.00000000  0.00000000       0.062
   0.00000000  0.12500000  0.00000000       0.031
   0.25000000 -0.00000000  0.00000000       0.062
   0.00000000  0.25000000  0.00000000       0.031
   0.37500000 -0.00000000  0.00000000       0.062
   0.00000000  0.37500000  0.00000000       0.031
   0.50000000 -0.00000000  0.00000000       0.031
   0.00000000  0.50000000  0.00000000       0.016
   0.25000000  0.12500000  0.00000000       0.031
   0.12500000  0.25000000  0.00000000       0.062
   0.37500000  0.12500000  0.00000000       0.062
   0.25000000  0.37500000  0.00000000       0.062
  -0.12500000  0.25000000  0.00000000       0.062
   0.50000000  0.12500000  0.00000000       0.062
   0.37500000  0.50000000  0.00000000       0.062
  -0.12500000  0.37500000  0.00000000       0.062
   0.50000000  0.25000000  0.00000000       0.031
   0.25000000  0.50000000  0.00000000       0.062
  -0.37500000  0.25000000  0.00000000       0.062
  -0.25000000  0.37500000  0.00000000       0.031
 
 position of ions in fractional coordinates (direct lattice) 
   0.00000000  0.00000000  0.25237075
   0.33333334  0.00000000  0.25237075
   0.66666669  0.00000000  0.25237075
   0.00000000  0.33333334  0.25237075
   0.33333331  0.33333334  0.25237075
   0.66666669  0.33333334  0.25237075
   0.00000000  0.66666669  0.25237075
   0.33333337  0.66666669  0.25237075
   0.66666663  0.66666669  0.25237075
   0.11111112  0.11111111  0.35079026
   0.44444442  0.11111111  0.35079026
   0.77777779  0.11111111  0.35079026
   0.11111112  0.44444445  0.35079026
   0.44444448  0.44444445  0.35079026
   0.77777773  0.44444445  0.35079026
   0.11111111  0.77777773  0.35079026
   0.44444448  0.77777773  0.35079026
   0.77777785  0.77777773  0.35079026
   0.88926385  0.22147231  0.44801729
   0.22272776  0.22272775  0.44974099
   0.55454454  0.22272775  0.44974099
   0.88873474  0.55563260  0.44889674
   0.22272773  0.55454448  0.44974099
   0.55563266  0.55563260  0.44889674
   0.88926385  0.88926385  0.44801729
   0.22147232  0.88926385  0.44801729
   0.55563260  0.88873474  0.44889674
   0.00000000  0.00000000  0.54702471
   0.33380335  0.99449136  0.54761615
   0.67170532  0.99449136  0.54761615
   0.99449136  0.33380335  0.54761615
   0.67170532  0.33380335  0.54761615
   0.99449136  0.67170532  0.54761615
   0.33380338  0.67170532  0.54761615
   0.66666663  0.66666669  0.54817458
   0.33333331  0.33333334  0.55984823
   0.25843551  0.33509528  0.67713421
   0.40646918  0.33509528  0.67713421
 
 position of ions in cartesian coordinates  (Angst):
   0.00000000  0.00000000  5.37155964
   2.56559554  0.00000000  5.37155964
   5.13119109  0.00000000  5.37155964
   1.28279762  2.22187100  5.37155964
   3.84839293  2.22187100  5.37155964
   6.41398872  2.22187100  5.37155964
   2.56559525  4.44374201  5.37155964
   5.13119102  4.44374201  5.37155964
   7.69678588  4.44374201  5.37155964
   1.28279775  0.74062365  7.46635991
   3.84839295  0.74062365  7.46635991
   6.41398873  0.74062365  7.46635991
   2.56559535  2.96249461  7.46635991
   5.13119101  2.96249461  7.46635991
   7.69678586  2.96249461  7.46635991
   3.84839268  5.18436521  7.46635991
   6.41398840  5.18436521  7.46635991
   8.97958418  5.18436521  7.46635991
   7.69678637  1.47624866  9.53577883
   2.57143184  1.48461691  9.57246679
   5.12535471  1.48461691  9.57246679
   8.97869394  3.70363178  9.55449728
   3.84839272  3.69637878  9.57246679
   6.41487838  3.70363178  9.55449728
  10.26671051  5.92748853  9.53577883
   5.12686175  5.92748853  9.53577883
   7.69678578  5.92396167  9.55449728
   0.00000000  0.00000000 11.64309213
   6.39640647  6.62889435 11.65568068
   8.99716569  6.62889435 11.65568068
   8.93899399  2.22500391 11.65568068
   6.45457875  2.22500391 11.65568068
  10.23937345  4.47732756 11.65568068
   5.15419922  4.47732756 11.65568068
   7.69678588  4.44374201 11.66756656
   3.84839293  2.22187100 11.91603321
   3.27870117  2.23361542 14.41239468
   4.41808470  2.23361542 14.41239468
 


--------------------------------------------------------------------------------------------------------


 k-point   1 :   0.0000 0.0000 0.0000  plane waves:   27671
 k-point   2 :   0.1250-0.0000 0.0000  plane waves:   27649
 k-point   3 :   0.0000 0.1250 0.0000  plane waves:   27649
 k-point   4 :   0.2500-0.0000 0.0000  plane waves:   27714
 k-point   5 :   0.0000 0.2500 0.0000  plane waves:   27714
 k-point   6 :   0.3750-0.0000 0.0000  plane waves:   27740
 k-point   7 :   0.0000 0.3750 0.0000  plane waves:   27740
 k-point   8 :   0.5000-0.0000 0.0000  plane waves:   27782
 k-point   9 :   0.0000 0.5000 0.0000  plane waves:   27782
 k-point  10 :   0.2500 0.1250 0.0000  plane waves:   27698
 k-point  11 :   0.1250 0.2500 0.0000  plane waves:   27698
 k-point  12 :   0.3750 0.1250 0.0000  plane waves:   27702
 k-point  13 :   0.2500 0.3750 0.0000  plane waves:   27702
 k-point  14 :  -0.1250 0.2500 0.0000  plane waves:   27702
 k-point  15 :   0.5000 0.1250 0.0000  plane waves:   27747
 k-point  16 :   0.3750 0.5000 0.0000  plane waves:   27747
 k-point  17 :  -0.1250 0.3750 0.0000  plane waves:   27747
 k-point  18 :   0.5000 0.2500 0.0000  plane waves:   27734
 k-point  19 :   0.2500 0.5000 0.0000  plane waves:   27734
 k-point  20 :  -0.3750 0.2500 0.0000  plane waves:   27782
 k-point  21 :  -0.2500 0.3750 0.0000  plane waves:   27782

 maximum and minimum number of plane-waves per node :     27782    27649

 maximum number of plane-waves:     27782
 maximum index in each direction: 
   IXMAX=   14   IYMAX=   14   IZMAX=   38
   IXMIN=  -14   IYMIN=  -14   IZMIN=  -38


 serial   3D FFT for wavefunctions
 parallel 3D FFT for charge:
    minimum data exchange during FFTs selected (reduces bandwidth)


 total amount of memory used by VASP MPI-rank0   150541. kBytes
=======================================================================

   base      :      30000. kBytes
   nonlr-proj:      18534. kBytes
   fftplans  :       2916. kBytes
   grid      :      12390. kBytes
   one-center:        590. kBytes
   wavefun   :      86111. kBytes
 
     INWAV:  cpu time    0.0000: real time    0.0000
 initial charge density was supplied:
 number of electron     399.0000369 magnetization 
 keeping initial charge density in first step


--------------------------------------------------------------------------------------------------------


 Maximum index for non-local projection operator         3595
 Maximum index for augmentation-charges          602 (set IRDMAX)


--------------------------------------------------------------------------------------------------------


 First call to EWALD:  gamma=   0.172
 Maximum number of real-space cells 4x 4x 2
 Maximum number of reciprocal cells 2x 2x 5

    FEWALD:  cpu time    0.0013: real time    0.0014


--------------------------------------- Iteration      1(   1)  ---------------------------------------


    POTLOK:  cpu time    0.0266: real time    0.0270
    SETDIJ:  cpu time    0.0047: real time    0.0048
     EDDAV:  cpu time   12.0456: real time   12.0477
 BZINTS: Fermi energy:   14.041443;  399.000000 electrons
         Band energy: 0.266117E+04;  BLOECHL correction:   -0.034866
       DOS:  cpu time    0.0288: real time    0.0289
    --------------------------------------------
      LOOP:  cpu time   12.1058: real time   12.1084

 eigenvalue-minimisations  : 10584
 total energy-change (2. order) : 0.3605180E+04  (-0.1709261E+05)
 number of electron     399.0000369 magnetization 
 augmentation part      399.0000369 magnetization 

 Free energy of the ion-electron system (eV)
  ---------------------------------------------------
  alpha Z        PSCENC =       896.16164618
  Ewald energy   TEWEN  =    140963.45036203
  -Hartree energ DENC   =   -188035.78631920
  -exchange      EXHF   =         0.00000000
  -V(xc)+E(xc)   XCENC  =      1544.81348368
  PAW double counting   =     47002.67473075   -50716.45801146
  entropy T*S    EENTRO =         0.00000000
  eigenvalues    EBANDS =      2661.17467896
  atomic energy  EATOM  =     49289.14913687
  Solvation  Ediel_sol  =         0.00000000
  ---------------------------------------------------
  free energy    TOTEN  =      3605.17970781 eV

  energy without entropy =     3605.17970781  energy(sigma->0) =     3605.17970781


--------------------------------------------------------------------------------------------------------




--------------------------------------- Iteration      1(   2)  ---------------------------------------


     EDDAV:  cpu time   12.0271: real time   12.0279
 BZINTS: Fermi energy:    3.349611;  399.000000 electrons
         Band energy:-0.580549E+03;  BLOECHL correction:   -0.025319
       DOS:  cpu time    0.0303: real time    0.0303
    --------------------------------------------
      LOOP:  cpu time   12.0574: real time   12.0582

 eigenvalue-minimisations  : 10584
 total energy-change (2. order) :-0.3241724E+04  (-0.3114364E+04)
 number of electron     399.0000369 magnetization 
 augmentation part      399.0000369 magnetization 

 Free energy of the ion-electron system (eV)
  ---------------------------------------------------
  alpha Z        PSCENC =       896.16164618
  Ewald energy   TEWEN  =    140963.45036203
  -Hartree energ DENC   =   -188035.78631920
  -exchange      EXHF   =         0.00000000
  -V(xc)+E(xc)   XCENC  =      1544.81348368
  PAW double counting   =     47002.67473075   -50716.45801146
  entropy T*S    EENTRO =         0.00000000
  eigenvalues    EBANDS =      -580.54945459
  atomic energy  EATOM  =     49289.14913687
  Solvation  Ediel_sol  =         0.00000000
  ---------------------------------------------------
  free energy    TOTEN  =       363.45557426 eV

  energy without entropy =      363.45557426  energy(sigma->0) =      363.45557426


--------------------------------------------------------------------------------------------------------




--------------------------------------- Iteration      1(   3)  ---------------------------------------


     EDDAV:  cpu time   14.0717: real time   14.0725
 BZINTS: Fermi energy:    0.607248;  399.000000 electrons
         Band energy:-0.105737E+04;  BLOECHL correction:   -0.053892
       DOS:  cpu time    0.0295: real time    0.0295
    --------------------------------------------
      LOOP:  cpu time   14.1013: real time   14.1021

 eigenvalue-minimisations  : 12796
 total energy-change (2. order) :-0.4768162E+03  (-0.4479621E+03)
 number of electron     399.0000369 magnetization 
 augmentation part      399.0000369 magnetization 

 Free energy of the ion-electron system (eV)
  ---------------------------------------------------
  alpha Z        PSCENC =       896.16164618
  Ewald energy   TEWEN  =    140963.45036203
  -Hartree energ DENC   =   -188035.78631920
  -exchange      EXHF   =         0.00000000
  -V(xc)+E(xc)   XCENC  =      1544.81348368
  PAW double counting   =     47002.67473075   -50716.45801146
  entropy T*S    EENTRO =         0.00000000
  eigenvalues    EBANDS =     -1057.36569708
  atomic energy  EATOM  =     49289.14913687
  Solvation  Ediel_sol  =         0.00000000
  ---------------------------------------------------
  free energy    TOTEN  =      -113.36066824 eV

  energy without entropy =     -113.36066824  energy(sigma->0) =     -113.36066824


--------------------------------------------------------------------------------------------------------




--------------------------------------- Iteration      1(   4)  ---------------------------------------


     EDDAV:  cpu time   16.2706: real time   16.2713
 BZINTS: Fermi energy:    0.395939;  399.000000 electrons
         Band energy:-0.109190E+04;  BLOECHL correction:   -0.036604
       DOS:  cpu time    0.0289: real time    0.0289
    --------------------------------------------
      LOOP:  cpu time   16.2994: real time   16.3001

 eigenvalue-minimisations  : 15204
 total energy-change (2. order) :-0.3453287E+02  (-0.3388277E+02)
 number of electron     399.0000369 magnetization 
 augmentation part      399.0000369 magnetization 

 Free energy of the ion-electron system (eV)
  ---------------------------------------------------
  alpha Z        PSCENC =       896.16164618
  Ewald energy   TEWEN  =    140963.45036203
  -Hartree energ DENC   =   -188035.78631920
  -exchange      EXHF   =         0.00000000
  -V(xc)+E(xc)   XCENC  =      1544.81348368
  PAW double counting   =     47002.67473075   -50716.45801146
  entropy T*S    EENTRO =         0.00000000
  eigenvalues    EBANDS =     -1091.89856690
  atomic energy  EATOM  =     49289.14913687
  Solvation  Ediel_sol  =         0.00000000
  ---------------------------------------------------
  free energy    TOTEN  =      -147.89353806 eV

  energy without entropy =     -147.89353806  energy(sigma->0) =     -147.89353806


--------------------------------------------------------------------------------------------------------




--------------------------------------- Iteration      1(   5)  ---------------------------------------


     EDDAV:  cpu time   13.5582: real time   13.5589
 BZINTS: Fermi energy:    0.377948;  399.000000 electrons
         Band energy:-0.109257E+04;  BLOECHL correction:   -0.032298
       DOS:  cpu time    0.0279: real time    0.0279
    --------------------------------------------
      LOOP:  cpu time   13.5861: real time   13.5868

 eigenvalue-minimisations  : 12264
 total energy-change (2. order) :-0.6685094E+00  (-0.6683623E+00)
 number of electron     399.0000369 magnetization 
 augmentation part      399.0000369 magnetization 

 Free energy of the ion-electron system (eV)
  ---------------------------------------------------
  alpha Z        PSCENC =       896.16164618
  Ewald energy   TEWEN  =    140963.45036203
  -Hartree energ DENC   =   -188035.78631920
  -exchange      EXHF   =         0.00000000
  -V(xc)+E(xc)   XCENC  =      1544.81348368
  PAW double counting   =     47002.67473075   -50716.45801146
  entropy T*S    EENTRO =         0.00000000
  eigenvalues    EBANDS =     -1092.56707626
  atomic energy  EATOM  =     49289.14913687
  Solvation  Ediel_sol  =         0.00000000
  ---------------------------------------------------
  free energy    TOTEN  =      -148.56204741 eV

  energy without entropy =     -148.56204741  energy(sigma->0) =     -148.56204741


--------------------------------------------------------------------------------------------------------




--------------------------------------- Iteration      1(   6)  ---------------------------------------


    EDDIAG:  cpu time    2.2307: real time    2.2310
  RMM-DIIS:  cpu time    6.5181: real time    6.5184
    ORTHCH:  cpu time    0.4364: real time    0.4365
 BZINTS: Fermi energy:    0.377858;  399.000000 electrons
         Band energy:-0.109258E+04;  BLOECHL correction:   -0.032284
       DOS:  cpu time    0.0305: real time    0.0305
    --------------------------------------------
      LOOP:  cpu time    9.2158: real time    9.2165

 eigenvalue-minimisations  : 11486
 total energy-change (2. order) :-0.1519411E-01  (-0.1520646E-01)
 number of electron     399.0000369 magnetization 
 augmentation part      399.0000369 magnetization 

 Free energy of the ion-electron system (eV)
  ---------------------------------------------------
  alpha Z        PSCENC =       896.16164618
  Ewald energy   TEWEN  =    140963.45036203
  -Hartree energ DENC   =   -188035.78631920
  -exchange      EXHF   =         0.00000000
  -V(xc)+E(xc)   XCENC  =      1544.81348368
  PAW double counting   =     47002.67473075   -50716.45801146
  entropy T*S    EENTRO =         0.00000000
  eigenvalues    EBANDS =     -1092.58227038
  atomic energy  EATOM  =     49289.14913687
  Solvation  Ediel_sol  =         0.00000000
  ---------------------------------------------------
  free energy    TOTEN  =      -148.57724153 eV

  energy without entropy =     -148.57724153  energy(sigma->0) =     -148.57724153


--------------------------------------------------------------------------------------------------------




--------------------------------------- Iteration      1(   7)  ---------------------------------------


    EDDIAG:  cpu time    2.2270: real time    2.2272
  RMM-DIIS:  cpu time    9.2694: real time    9.2697
    ORTHCH:  cpu time    0.4361: real time    0.4362
 BZINTS: Fermi energy:    0.377819;  399.000000 electrons
         Band energy:-0.109259E+04;  BLOECHL correction:   -0.032279
       DOS:  cpu time    0.0311: real time    0.0311
    --------------------------------------------
      LOOP:  cpu time   11.9635: real time   11.9642

 eigenvalue-minimisations  : 16347
 total energy-change (2. order) :-0.6729069E-02  (-0.6685849E-02)
 number of electron     399.0000369 magnetization 
 augmentation part      399.0000369 magnetization 

 Free energy of the ion-electron system (eV)
  ---------------------------------------------------
  alpha Z        PSCENC =       896.16164618
  Ewald energy   TEWEN  =    140963.45036203
  -Hartree energ DENC   =   -188035.78631920
  -exchange      EXHF   =         0.00000000
  -V(xc)+E(xc)   XCENC  =      1544.81348368
  PAW double counting   =     47002.67473075   -50716.45801146
  entropy T*S    EENTRO =         0.00000000
  eigenvalues    EBANDS =     -1092.58899944
  atomic energy  EATOM  =     49289.14913687
  Solvation  Ediel_sol  =         0.00000000
  ---------------------------------------------------
  free energy    TOTEN  =      -148.58397060 eV

  energy without entropy =     -148.58397060  energy(sigma->0) =     -148.58397060


--------------------------------------------------------------------------------------------------------




--------------------------------------- Iteration      1(   8)  ---------------------------------------


    EDDIAG:  cpu time    2.2259: real time    2.2260
  RMM-DIIS:  cpu time    9.0641: real time    9.0644
    ORTHCH:  cpu time    0.4362: real time    0.4362
 BZINTS: Fermi energy:    0.377817;  399.000000 electrons
         Band energy:-0.109259E+04;  BLOECHL correction:   -0.032279
       DOS:  cpu time    0.0310: real time    0.0310
    --------------------------------------------
      LOOP:  cpu time   11.7572: real time   11.7577

 eigenvalue-minimisations  : 16030
 total energy-change (2. order) :-0.5658394E-03  (-0.6454345E-03)
 number of electron     399.0000369 magnetization 
 augmentation part      399.0000369 magnetization 

 Free energy of the ion-electron system (eV)
  ---------------------------------------------------
  alpha Z        PSCENC =       896.16164618
  Ewald energy   TEWEN  =    140963.45036203
  -Hartree energ DENC   =   -188035.78631920
  -exchange      EXHF   =         0.00000000
  -V(xc)+E(xc)   XCENC  =      1544.81348368
  PAW double counting   =     47002.67473075   -50716.45801146
  entropy T*S    EENTRO =         0.00000000
  eigenvalues    EBANDS =     -1092.58956528
  atomic energy  EATOM  =     49289.14913687
  Solvation  Ediel_sol  =         0.00000000
  ---------------------------------------------------
  free energy    TOTEN  =      -148.58453644 eV

  energy without entropy =     -148.58453644  energy(sigma->0) =     -148.58453644


--------------------------------------------------------------------------------------------------------




--------------------------------------- Iteration      1(   9)  ---------------------------------------


    EDDIAG:  cpu time    2.2249: real time    2.2253
  RMM-DIIS:  cpu time    9.2942: real time    9.2945
    ORTHCH:  cpu time    0.4363: real time    0.4363
 BZINTS: Fermi energy:    0.377817;  399.000000 electrons
         Band energy:-0.109259E+04;  BLOECHL correction:   -0.032279
       DOS:  cpu time    0.0303: real time    0.0303
    --------------------------------------------
      LOOP:  cpu time   11.9858: real time   11.9864

 eigenvalue-minimisations  : 16454
 total energy-change (2. order) :-0.1012977E-03  (-0.1014612E-03)
 number of electron     399.0000369 magnetization 
 augmentation part      399.0000369 magnetization 

 Free energy of the ion-electron system (eV)
  ---------------------------------------------------
  alpha Z        PSCENC =       896.16164618
  Ewald energy   TEWEN  =    140963.45036203
  -Hartree energ DENC   =   -188035.78631920
  -exchange      EXHF   =         0.00000000
  -V(xc)+E(xc)   XCENC  =      1544.81348368
  PAW double counting   =     47002.67473075   -50716.45801146
  entropy T*S    EENTRO =         0.00000000
  eigenvalues    EBANDS =     -1092.58966658
  atomic energy  EATOM  =     49289.14913687
  Solvation  Ediel_sol  =         0.00000000
  ---------------------------------------------------
  free energy    TOTEN  =      -148.58463773 eV

  energy without entropy =     -148.58463773  energy(sigma->0) =     -148.58463773


--------------------------------------------------------------------------------------------------------




--------------------------------------- Iteration      1(  10)  ---------------------------------------


    EDDIAG:  cpu time    2.2264: real time    2.2296
  RMM-DIIS:  cpu time    7.7140: real time    7.7143
    ORTHCH:  cpu time    0.4358: real time    0.4359
 BZINTS: Fermi energy:    0.377817;  399.000000 electrons
         Band energy:-0.109259E+04;  BLOECHL correction:   -0.032279
       DOS:  cpu time    0.0297: real time    0.0297
    --------------------------------------------
      LOOP:  cpu time   10.4060: real time   10.4095

 eigenvalue-minimisations  : 13258
 total energy-change (2. order) :-0.1814903E-04  (-0.1829859E-04)
 number of electron     399.0000369 magnetization 
 augmentation part      399.0000369 magnetization 

 Free energy of the ion-electron system (eV)
  ---------------------------------------------------
  alpha Z        PSCENC =       896.16164618
  Ewald energy   TEWEN  =    140963.45036203
  -Hartree energ DENC   =   -188035.78631920
  -exchange      EXHF   =         0.00000000
  -V(xc)+E(xc)   XCENC  =      1544.81348368
  PAW double counting   =     47002.67473075   -50716.45801146
  entropy T*S    EENTRO =         0.00000000
  eigenvalues    EBANDS =     -1092.58968473
  atomic energy  EATOM  =     49289.14913687
  Solvation  Ediel_sol  =         0.00000000
  ---------------------------------------------------
  free energy    TOTEN  =      -148.58465588 eV

  energy without entropy =     -148.58465588  energy(sigma->0) =     -148.58465588


--------------------------------------------------------------------------------------------------------




--------------------------------------- Iteration      1(  11)  ---------------------------------------


    EDDIAG:  cpu time    2.2252: real time    2.2254
  RMM-DIIS:  cpu time    5.5056: real time    5.5059
    ORTHCH:  cpu time    0.4360: real time    0.4360
 BZINTS: Fermi energy:    0.377817;  399.000000 electrons
         Band energy:-0.109259E+04;  BLOECHL correction:   -0.032279
       DOS:  cpu time    0.0304: real time    0.0304
    --------------------------------------------
      LOOP:  cpu time    8.1972: real time    8.1977

 eigenvalue-minimisations  :  8420
 total energy-change (2. order) :-0.2782093E-05  (-0.2803237E-05)
 number of electron     399.0000369 magnetization 
 augmentation part      399.0000369 magnetization 

 Free energy of the ion-electron system (eV)
  ---------------------------------------------------
  alpha Z        PSCENC =       896.16164618
  Ewald energy   TEWEN  =    140963.45036203
  -Hartree energ DENC   =   -188035.78631920
  -exchange      EXHF   =         0.00000000
  -V(xc)+E(xc)   XCENC  =      1544.81348368
  PAW double counting   =     47002.67473075   -50716.45801146
  entropy T*S    EENTRO =         0.00000000
  eigenvalues    EBANDS =     -1092.58968751
  atomic energy  EATOM  =     49289.14913687
  Solvation  Ediel_sol  =         0.00000000
  ---------------------------------------------------
  free energy    TOTEN  =      -148.58465867 eV

  energy without entropy =     -148.58465867  energy(sigma->0) =     -148.58465867


--------------------------------------------------------------------------------------------------------




 average (electrostatic) potential at core
  the test charge radii are     0.9430  1.2481  0.7089
  (the norm of the test charge is              1.0000)
       1 -70.6242       2 -70.6283       3 -70.6283       4 -70.6281       5 -70.6417
       6 -70.6278       7 -70.6269       8 -70.6266       9 -70.6165      10 -70.9151
      11 -70.8815      12 -70.9150      13 -70.8805      14 -70.8801      15 -70.8943
      16 -70.9153      17 -70.8964      18 -70.8966      19 -70.9301      20 -71.0682
      21 -71.0683      22 -70.8809      23 -71.0716      24 -70.8805      25 -70.9198
      26 -70.9195      27 -70.8787      28 -70.7158      29 -70.9715      30 -70.9717
      31 -70.9498      32 -70.9497      33 -70.9718      34 -70.9716      35 -70.6904
      36 -41.5295      37 -71.6253      38 -71.6253
 
 
 
 E-fermi :   0.3778     XC(G=0):  -6.1161     alpha+bet : -5.4921

 Fermi energy:         0.3778169929

 k-point     1 :       0.0000    0.0000    0.0000
  band No.  band energies     occupation 
      1     -23.5439      2.00000
      2      -9.3528      2.00000
      3      -8.5021      2.00000
      4      -7.6818      2.00000
      5      -7.1657      2.00000
      6      -7.0479      2.00000
      7      -5.7792      2.00000
      8      -5.5513      2.00000
      9      -5.5156      2.00000
     10      -5.5093      2.00000
     11      -5.4868      2.00000
     12      -5.4766      2.00000
     13      -5.4754      2.00000
     14      -5.4038      2.00000
     15      -4.7937      2.00000
     16      -4.7913      2.00000
     17      -4.7589      2.00000
     18      -4.7321      2.00000
     19      -4.7268      2.00000
     20      -4.7235      2.00000
     21      -4.6154      2.00000
     22      -4.1249      2.00000
     23      -4.1225      2.00000
     24      -4.0688      2.00000
     25      -4.0405      2.00000
     26      -4.0388      2.00000
     27      -4.0128      2.00000
     28      -3.7524      2.00000
     29      -3.7521      2.00000
     30      -3.7492      2.00000
     31      -3.7297      2.00000
     32      -3.7290      2.00000
     33      -3.7139      2.00000
     34      -3.6084      2.00000
     35      -3.6015      2.00000
     36      -3.6003      2.00000
     37      -3.5835      2.00000
     38      -3.5820      2.00000
     39      -3.5794      2.00000
     40      -3.5517      2.00000
     41      -3.5515      2.00000
     42      -3.5415      2.00000
     43      -3.5403      2.00000
     44      -3.5388      2.00000
     45      -3.5376      2.00000
     46      -3.4890      2.00000
     47      -3.4885      2.00000
     48      -3.3846      2.00000
     49      -3.3840      2.00000
     50      -3.3227      2.00000
     51      -3.3188      2.00000
     52      -3.2812      2.00000
     53      -3.2595      2.00000
     54      -3.2591      2.00000
     55      -3.2506      2.00000
     56      -3.2494      2.00000
     57      -3.2482      2.00000
     58      -3.1681      2.00000
     59      -3.1537      2.00000
     60      -2.9343      2.00000
     61      -2.9069      2.00000
     62      -2.9051      2.00000
     63      -2.8953      2.00000
     64      -2.8847      2.00000
     65      -2.8834      2.00000
     66      -2.8644      2.00000
     67      -2.8625      2.00000
     68      -2.8244      2.00000
     69      -2.8230      2.00000
     70      -2.8192      2.00000
     71      -2.7681      2.00000
     72      -2.7670      2.00000
     73      -2.7504      2.00000
     74      -2.7490      2.00000
     75      -2.7203      2.00000
     76      -2.7081      2.00000
     77      -2.6836      2.00000
     78      -2.6822      2.00000
     79      -2.6756      2.00000
     80      -2.6320      2.00000
     81      -2.6309      2.00000
     82      -2.5739      2.00000
     83      -2.5728      2.00000
     84      -2.5661      2.00000
     85      -2.5649      2.00000
     86      -2.5621      2.00000
     87      -2.5524      2.00000
     88      -2.5513      2.00000
     89      -2.5188      2.00000
     90      -2.5115      2.00000
     91      -2.5111      2.00000
     92      -2.4858      2.00000
     93      -2.4512      2.00000
     94      -2.4511      2.00000
     95      -2.4337      2.00000
     96      -2.4152      2.00000
     97      -2.4151      2.00000
     98      -2.3876      2.00000
     99      -2.3784      2.00000
    100      -2.3768      2.00000
    101      -2.3512      2.00000
    102      -2.3510      2.00000
    103      -2.3452      2.00000
    104      -2.3233      2.00000
    105      -2.3156      2.00000
    106      -2.3152      2.00000
    107      -2.3138      2.00000
    108      -2.3131      2.00000
    109      -2.2982      2.00000
    110      -2.2973      2.00000
    111      -2.2760      2.00000
    112      -2.2747      2.00000
    113      -2.1027      2.00000
    114      -2.0989      2.00000
    115      -2.0956      2.00000
    116      -2.0916      2.00000
    117      -2.0872      2.00000
    118      -2.0859      2.00000
    119      -2.0691      2.00000
    120      -2.0091      2.00000
    121      -2.0029      2.00000
    122      -2.0028      2.00000
    123      -1.9855      2.00000
    124      -1.9694      2.00000
    125      -1.9660      2.00000
    126      -1.9588      2.00000
    127      -1.9027      2.00000
    128      -1.9018      2.00000
    129      -1.8865      2.00000
    130      -1.8848      2.00000
    131      -1.8634      2.00000
    132      -1.8630      2.00000
    133      -1.8495      2.00000
    134      -1.8443      2.00000
    135      -1.8386      2.00000
    136      -1.8361      2.00000
    137      -1.7771      2.00000
    138      -1.7671      2.00000
    139      -1.7665      2.00000
    140      -1.7399      2.00000
    141      -1.7182      2.00000
    142      -1.7181      2.00000
    143      -1.7105      2.00000
    144      -1.7054      2.00000
    145      -1.7047      2.00000
    146      -1.6708      2.00000
    147      -1.6596      2.00000
    148      -1.6574      2.00000
    149      -1.6376      2.00000
    150      -1.6374      2.00000
    151      -1.6120      2.00000
    152      -1.6094      2.00000
    153      -1.5883      2.00000
    154      -1.5874      2.00000
    155      -1.5657      2.00000
    156      -1.5530      2.00000
    157      -1.5525      2.00000
    158      -1.5321      2.00000
    159      -1.5318      2.00000
    160      -1.5164      2.00000
    161      -1.5154      2.00000
    162      -1.4982      2.00000
    163      -1.4869      2.00000
    164      -1.4866      2.00000
    165      -1.4672      2.00000
    166      -1.4664      2.00000
    167      -1.4614      2.00000
    168      -1.4593      2.00000
    169      -1.4585      2.00000
    170      -1.4277      2.00000
    171      -1.4223      2.00000
    172      -1.4219      2.00000
    173      -1.4014      2.00000
    174      -1.4012      2.00000
    175      -1.3858      2.00000
    176      -1.3842      2.00000
    177      -1.3821      2.00000
    178      -1.3412      2.00000
    179      -1.3410      2.00000
    180      -1.3383      2.00000
    181      -1.3354      2.00000
    182      -1.3353      2.00000
    183      -1.3350      2.00000
    184      -1.3334      2.00000
    185      -1.3325      2.00000
    186      -1.3240      2.00000
    187      -1.3238      2.00000
    188      -1.2708      2.00000
    189      -1.2707      2.00000
    190      -1.2364      2.00000
    191      -1.2321      2.00000
    192      -1.2320      2.00000
    193      -1.2255      2.00000
    194      -1.2215      2.00000
    195      -1.2213      2.00000
    196      -0.9107      2.00000
    197      -0.2005      2.00000
    198      -0.1485      2.00000
    199      -0.1290      2.00000
    200      -0.0893      2.00000
    201      -0.0402      2.00000
    202      -0.0313      2.00000
    203       0.1454      2.55651
    204       0.6020      0.00000
    205       1.2220      0.00000
    206       1.2689      0.00000
    207       1.3913      0.00000
    208       1.6770      0.00000
    209       2.1014      0.00000
    210       2.3123      0.00000
    211       2.3281      0.00000
    212       2.4001      0.00000
    213       2.4613      0.00000
    214       2.9248      0.00000
    215       3.3117      0.00000
    216       3.5061      0.00000
    217       3.6965      0.00000
    218       4.0117      0.00000
    219       4.0254      0.00000
    220       4.0807      0.00000
    221       4.2001      0.00000
    222       4.3205      0.00000
    223       4.6584      0.00000
    224       4.6733      0.00000
    225       4.7633      0.00000
    226       4.7702      0.00000
    227       4.8198      0.00000
    228       4.8280      0.00000
    229       4.8762      0.00000
    230       5.3034      0.00000
    231       5.3172      0.00000
    232       5.3925      0.00000
    233       5.4532      0.00000
    234       5.6184      0.00000
    235       5.7502      0.00000
    236       6.0529      0.00000
    237       6.1067      0.00000
    238       6.2315      0.00000
    239       6.6483      0.00000
    240       6.6584      0.00000
    241       6.9354      0.00000
    242       6.9588      0.00000
    243       7.1111      0.00000
    244       7.1532      0.00000
    245       7.2458      0.00000
    246       7.3056      0.00000
    247       7.3319      0.00000
    248       7.4393      0.00000
[...]
  0.000   0.000   0.000   0.000   0.000   0.000   0.000   0.000   0.000   0.000   0.000   0.000   0.000   0.000   0.000   0.000
  0.000   0.000   0.000   0.000   0.000   0.000   0.000   0.000   0.000   0.000   0.000   0.000   0.000   0.000   0.000   0.000
  0.000   0.000   0.000   0.000   0.000   0.000   0.000   0.000   0.000   0.000   1.000   0.000   0.000   0.000   0.000   0.000
  0.000   0.000   0.000   0.000   0.000   0.000   0.000   0.000   0.000   0.000   0.000   0.000   0.000   0.000   0.000   0.000
  0.000   0.000   0.000   0.000   0.000   0.000   0.000   0.000   0.000   0.000   0.000   0.000   0.000   0.000   0.000   0.000
  0.000   0.000   0.000   0.000   0.000   0.000   0.000   0.000   0.000   0.000   0.000   0.000   0.000   0.000   0.000   0.000
  0.000   0.000   0.000   0.000   0.000   0.000   0.000   0.000   0.000   0.000   0.000   0.000   0.000   0.000   0.000   0.000
  0.000   0.000   0.000   0.000   0.000   0.000   0.000   0.000   0.000   0.000   0.000   0.000   0.000   0.000   0.000   0.000
  0.000   0.000   0.000   0.000   0.000   0.000   0.000   0.000   0.000   0.000   0.000   0.000   0.000   0.000   0.000   0.000
  0.000   0.000   0.000   0.000   0.000   0.000   0.000   0.000   0.000   0.000   0.000   0.000   0.000   0.000   0.000   0.000


------------------------ aborting loop because EDIFF is reached ----------------------------------------





 total charge

# of ion       s       p       d       tot
------------------------------------------
    1        0.450   0.282   9.188   9.920
    2        0.447   0.286   9.185   9.918
    3        0.447   0.286   9.185   9.918
    4        0.446   0.285   9.187   9.918
    5        0.449   0.286   9.181   9.917
    6        0.446   0.285   9.187   9.918
    7        0.447   0.286   9.186   9.919
    8        0.447   0.286   9.186   9.919
    9        0.450   0.283   9.188   9.921
   10        0.443   0.371   9.175   9.989
   11        0.442   0.364   9.181   9.987
   12        0.443   0.371   9.175   9.989
   13        0.441   0.364   9.182   9.987
   14        0.441   0.364   9.182   9.987
   15        0.440   0.372   9.176   9.988
   16        0.442   0.371   9.176   9.989
   17        0.440   0.372   9.175   9.987
   18        0.440   0.372   9.175   9.987
   19        0.444   0.373   9.177   9.994
   20        0.458   0.386   9.160  10.004
   21        0.458   0.386   9.160  10.004
   22        0.434   0.374   9.178   9.986
   23        0.459   0.385   9.160  10.004
   24        0.434   0.374   9.178   9.986
   25        0.445   0.371   9.179   9.996
   26        0.445   0.371   9.179   9.996
   27        0.435   0.373   9.178   9.986
   28        0.444   0.300   9.179   9.923
   29        0.488   0.324   9.160   9.971
   30        0.488   0.324   9.160   9.971
   31        0.486   0.321   9.160   9.967
   32        0.486   0.321   9.160   9.967
   33        0.488   0.324   9.160   9.972
   34        0.488   0.324   9.160   9.972
   35        0.442   0.303   9.180   9.925
   36        0.605   0.504   2.006   3.115
   37        1.361   2.454   0.000   3.815
   38        1.361   2.454   0.000   3.815
--------------------------------------------------
tot         19.152  17.228 323.149 359.529
 
    CHARGE:  cpu time    0.4143: real time    0.4145
    FORLOC:  cpu time    0.0075: real time    0.0075
    FORNL :  cpu time    2.4406: real time    2.4408
    STRESS:  cpu time    7.2668: real time    7.2672
    FORCOR:  cpu time    0.0290: real time    0.0290
    FORHAR:  cpu time    0.0116: real time    0.0117
    OFIELD:  cpu time    0.0001: real time    0.0001

  FORCE on cell =-STRESS in cart. coord.  units (eV):
  Direction    XX          YY          ZZ          XY          YZ          ZX
  --------------------------------------------------------------------------------------
  Alpha Z   896.16165   896.16165   896.16165
  Ewald  166673.21359166365.92576************     0.00035    -1.12087     0.00016
  Hartree179602.19351179496.85347************     0.00002    -1.49190     0.00005
  E(xc)   -2304.50481 -2305.48388 -2308.63778    -0.00028    -0.01455    -0.00005
  Local  ************************358623.04247     0.01997     2.74845    -0.00070
  n-local  -775.21286  -761.91551  -778.32961     1.68124    -0.12364     0.03186
  augment  3310.12164  3309.68132  3333.27561    -0.01800    -0.01230     0.00026
  Kinetic  3343.25592  3356.57840  3386.57502     0.61437    -0.05183    -0.25608
  Fock        0.00000     0.00000     0.00000     0.00000     0.00000     0.00000
  -------------------------------------------------------------------------------------
  Total      -6.59445    -6.33325    -2.39147     0.00000    -0.06664     0.00000
  in kB      -9.67560    -9.29237    -3.50886     0.00000    -0.09778     0.00000
  external pressure =       -7.49 kB  Pullay stress =        0.00 kB


 VOLUME and BASIS-vectors are now :
 -----------------------------------------------------------------------------
  energy-cutoff  :      500.00
  volume of cell :     1091.97
      direct lattice vectors                 reciprocal lattice vectors
     7.696786404  0.000000000  0.000000000     0.129924354 -0.075011849  0.000000000
     3.848392758  6.665612809  0.000000000     0.000000000  0.150023716  0.000000000
     0.000000000  0.000000000 21.284399033     0.000000000  0.000000000  0.046982769

  length of vectors
     7.696786404  7.696786404 21.284399033     0.150023716  0.150023716  0.046982769


 FORCES acting on ions
    electron-ion (+dipol)            ewald-force                    non-local-force                 convergence-correction
 -----------------------------------------------------------------------------------------------
   -.405E-04 0.321E-01 0.346E+04   0.581E-04 -.680E-02 -.345E+04   0.308E-08 -.462E-01 -.216E+01   -.222E-03 0.114E-01 0.752E-01
   -.113E+01 -.143E+01 0.345E+04   0.116E+01 0.145E+01 -.345E+04   0.284E-01 0.848E-01 -.185E+01   -.408E-01 -.998E-01 0.188E+00
   0.113E+01 -.143E+01 0.345E+04   -.116E+01 0.145E+01 -.345E+04   -.284E-01 0.848E-01 -.185E+01   0.415E-01 -.972E-01 0.188E+00
   -.192E+01 -.280E+00 0.345E+04   0.184E+01 0.272E+00 -.345E+04   0.150E+00 -.886E-02 -.202E+01   -.594E-01 0.202E-01 0.175E+00
   -.613E-04 0.767E-01 0.345E+04   0.116E-03 -.131E-02 -.345E+04   0.333E-08 -.500E-01 -.153E+01   0.122E-01 -.230E-01 0.375E+00
   0.192E+01 -.280E+00 0.345E+04   -.184E+01 0.272E+00 -.345E+04   -.150E+00 -.886E-02 -.202E+01   0.578E-01 0.215E-01 0.176E+00
   -.554E+00 0.169E+01 0.345E+04   0.683E+00 -.172E+01 -.345E+04   0.177E-01 -.577E-01 -.189E+01   -.133E+00 0.785E-01 0.212E+00
   0.554E+00 0.169E+01 0.345E+04   -.683E+00 -.172E+01 -.345E+04   -.177E-01 -.577E-01 -.189E+01   0.136E+00 0.772E-01 0.212E+00
   -.142E-03 -.486E-01 0.345E+04   0.263E-03 0.811E-02 -.345E+04   -.231E-08 0.347E-01 -.195E+01   -.133E-01 0.147E-01 0.173E+00
   -.125E+02 -.713E+01 0.116E+04   0.127E+02 0.725E+01 -.115E+04   -.201E+00 -.127E+00 -.921E+00   0.297E-01 0.166E-01 -.288E+00
   -.907E-04 -.136E+02 0.114E+04   0.189E-03 0.133E+02 -.113E+04   -.166E-07 0.250E+00 -.286E+00   0.113E-01 -.198E-01 -.296E+00
   0.125E+02 -.713E+01 0.116E+04   -.127E+02 0.725E+01 -.115E+04   0.201E+00 -.127E+00 -.921E+00   -.308E-01 0.182E-01 -.290E+00
   -.118E+02 0.678E+01 0.114E+04   0.116E+02 -.667E+01 -.113E+04   0.221E+00 -.127E+00 -.287E+00   -.212E-01 0.261E-01 -.254E+00
   0.118E+02 0.678E+01 0.114E+04   -.116E+02 -.667E+01 -.113E+04   -.221E+00 -.127E+00 -.287E+00   0.452E-01 0.258E-01 -.254E+00
   -.139E-03 -.823E+00 0.116E+04   0.295E-03 0.704E+00 -.116E+04   -.412E-08 0.619E-01 -.105E+01   -.344E-02 0.638E-01 -.287E+00
   -.932E-04 0.144E+02 0.116E+04   0.187E-03 -.146E+02 -.115E+04   -.151E-07 0.227E+00 -.828E+00   0.842E-04 -.433E-01 -.256E+00
   -.686E+00 0.376E+00 0.116E+04   0.583E+00 -.307E+00 -.116E+04   0.649E-01 -.279E-01 -.858E+00   0.435E-01 -.458E-01 -.265E+00
   0.686E+00 0.376E+00 0.116E+04   -.584E+00 -.308E+00 -.116E+04   -.649E-01 -.279E-01 -.858E+00   -.430E-01 -.435E-01 -.265E+00
   -.668E-04 -.948E+01 -.112E+04   0.738E-04 0.949E+01 0.112E+04   0.168E-08 -.253E-01 0.997E+00   0.106E-02 0.115E-01 -.490E+00
   -.765E+02 -.439E+02 -.125E+04   0.777E+02 0.445E+02 0.125E+04   -.109E+01 -.577E+00 -.563E+00   -.170E+00 -.536E-01 -.674E+00
   0.765E+02 -.439E+02 -.125E+04   -.777E+02 0.445E+02 0.125E+04   0.109E+01 -.577E+00 -.563E+00   0.149E+00 -.517E-01 -.676E+00
   -.372E+02 0.211E+02 -.115E+04   0.370E+02 -.210E+02 0.115E+04   0.264E+00 -.171E+00 0.685E+00   -.786E-01 0.258E-01 -.604E+00
   -.693E-04 0.879E+02 -.125E+04   0.157E-03 -.893E+02 0.125E+04   -.786E-07 0.118E+01 -.392E+00   0.130E-02 0.172E+00 -.719E+00
   0.372E+02 0.211E+02 -.115E+04   -.370E+02 -.210E+02 0.115E+04   -.264E+00 -.171E+00 0.685E+00   0.561E-01 0.279E-01 -.604E+00
   0.838E+01 0.495E+01 -.112E+04   -.847E+01 -.499E+01 0.112E+04   0.891E-01 0.543E-01 0.897E+00   0.129E-01 -.990E-02 -.531E+00
   -.838E+01 0.495E+01 -.112E+04   0.847E+01 -.499E+01 0.112E+04   -.891E-01 0.543E-01 0.897E+00   -.965E-02 -.109E-01 -.531E+00
   -.140E-03 -.428E+02 -.115E+04   0.239E-03 0.427E+02 0.115E+04   -.181E-07 0.272E+00 0.713E+00   -.132E-01 -.120E+00 -.615E+00
   -.290E-04 0.183E+01 -.335E+04   0.483E-04 -.195E+01 0.335E+04   -.592E-08 0.888E-01 0.170E+01   -.102E-02 0.214E-01 -.313E+00
   -.611E+02 -.111E+03 -.333E+04   0.614E+02 0.112E+03 0.333E+04   -.341E+00 -.337E+00 0.314E+00   -.478E-02 -.117E+00 -.319E+00
   0.611E+02 -.111E+03 -.333E+04   -.614E+02 0.112E+03 0.333E+04   0.341E+00 -.337E+00 0.314E+00   0.268E-01 -.116E+00 -.318E+00
   -.127E+03 0.487E+01 -.332E+04   0.127E+03 -.473E+01 0.332E+04   -.410E+00 -.155E+00 0.592E+00   -.108E+00 0.128E-01 -.343E+00
   0.127E+03 0.487E+01 -.332E+04   -.127E+03 -.473E+01 0.332E+04   0.410E+00 -.155E+00 0.592E+00   0.129E+00 0.146E-01 -.343E+00
   -.687E+02 0.106E+03 -.333E+04   0.688E+02 -.107E+03 0.333E+04   -.873E-01 0.493E+00 0.347E+00   -.716E-01 0.117E+00 -.351E+00
   0.687E+02 0.106E+03 -.333E+04   -.688E+02 -.107E+03 0.333E+04   0.873E-01 0.493E+00 0.347E+00   0.972E-01 0.117E+00 -.352E+00
   -.126E-03 -.222E+01 -.337E+04   0.249E-03 0.230E+01 0.337E+04   0.638E-08 -.959E-01 0.198E+01   -.148E-01 0.148E-01 -.305E+00
   -.316E-04 0.355E+00 -.121E+04   0.434E-04 -.341E+00 0.120E+04   0.263E-08 -.395E-01 0.356E+01   -.173E-03 -.587E-02 -.875E-01
   0.221E+03 0.194E+00 -.148E+04   -.265E+03 -.198E+00 0.148E+04   0.435E+02 0.128E-01 -.442E+01   -.342E-01 -.618E-02 0.825E-01
   -.221E+03 0.194E+00 -.148E+04   0.265E+03 -.198E+00 0.148E+04   -.435E+02 0.128E-01 -.442E+01   0.342E-01 -.614E-02 0.825E-01
 -----------------------------------------------------------------------------------------------
   -.153E-03 -.536E-02 0.279E+02   0.114E-12 0.278E-12 -.296E-11   0.203E-08 -.305E-01 -.192E+02   0.353E-01 0.385E-01 -.869E+01
 
 
 POSITION                                       TOTAL-FORCE (eV/Angst)
 -----------------------------------------------------------------------------------
      0.00000      0.00000      5.37156         0.000000     -0.009610     -0.001851
      2.56560      0.00000      5.37156         0.018616      0.007171      0.049631
      5.13119      0.00000      5.37156        -0.018616      0.007171      0.049631
      1.28280      2.22187      5.37156         0.015512      0.004049      0.042550
      3.84839      2.22187      5.37156        -0.000000      0.002343      0.050158
      6.41399      2.22187      5.37156        -0.015512      0.004049      0.042550
      2.56560      4.44374      5.37156         0.012369     -0.012753      0.039465
      5.13119      4.44374      5.37156        -0.012369     -0.012753      0.039465
      7.69679      4.44374      5.37156        -0.000000      0.008802      0.019047
      1.28280      0.74062      7.46636         0.011053      0.009073     -0.103554
      3.84839      0.74062      7.46636         0.000000     -0.019404     -0.023539
      6.41399      0.74062      7.46636        -0.011053      0.009073     -0.103554
      2.56560      2.96249      7.46636        -0.011943      0.013688     -0.031462
      5.13119      2.96249      7.46636         0.011943      0.013688     -0.031462
      7.69679      2.96249      7.46636        -0.000000      0.006017     -0.050594
      3.84839      5.18437      7.46636         0.000000     -0.019927     -0.097000
      6.41399      5.18437      7.46636         0.005221     -0.004168     -0.026089
      8.97958      5.18437      7.46636        -0.005221     -0.004168     -0.026089
      7.69679      1.47625      9.53578         0.000000     -0.002233      0.026238
      2.57143      1.48462      9.57247        -0.014124      0.001373     -0.038239
      5.12535      1.48462      9.57247         0.014124      0.001373     -0.038239
      8.97869      3.70363      9.55450        -0.000386     -0.005725      0.027353
      3.84839      3.69638      9.57247        -0.000000      0.016073     -0.049552
      6.41488      3.70363      9.55450         0.000386     -0.005725      0.027353
     10.26671      5.92749      9.53578         0.015091      0.009082      0.002370
      5.12686      5.92749      9.53578        -0.015091      0.009082      0.002370
      7.69679      5.92396      9.55450        -0.000000      0.010152      0.024173
      0.00000      0.00000     11.64309         0.000000     -0.002563      0.015190
      6.39641      6.62889     11.65568        -0.052201     -0.055226     -0.086409
      8.99717      6.62889     11.65568         0.052201     -0.055226     -0.086409
      8.93899      2.22500     11.65568        -0.022371     -0.000214     -0.012544
      6.45458      2.22500     11.65568         0.022371     -0.000214     -0.012544
     10.23937      4.47733     11.65568        -0.047783      0.051357     -0.083882
      5.15420      4.47733     11.65568         0.047783      0.051357     -0.083882
      7.69679      4.44374     11.66757        -0.000000      0.000465      0.001967
      3.84839      2.22187     11.91603         0.000000     -0.030917      0.562904
      3.27870      2.23362     14.41239        -0.054640      0.002693     -0.017759
      4.41808      2.23362     14.41239         0.054640      0.002693     -0.017759
 -----------------------------------------------------------------------------------
    total drift:                                0.035170      0.002552      0.003889


--------------------------------------------------------------------------------------------------------



  FREE ENERGIE OF THE ION-ELECTRON SYSTEM (eV)
  ---------------------------------------------------
  free  energy   TOTEN  =      -148.58465867 eV

  energy  without entropy=     -148.58465867  energy(sigma->0) =     -148.58465867
 


--------------------------------------------------------------------------------------------------------


    POTLOK:  cpu time    0.0293: real time    0.0294


--------------------------------------------------------------------------------------------------------


 stress matrix after NEB project (eV)
     -6.59445      0.00000      0.00000
      0.00000     -6.33325     -0.06664
      0.00000     -0.06664     -2.39147
  FORCES: max atom, RMS     0.057517    0.013195
  FORCE total and by dimension    0.081341    0.054640
  Stress total and by dimension    9.451181    6.594447
     LOOP+:  cpu time  141.9608: real time  141.9790
 -----------------------------------------------------------------------------
|                                                                             |
|           W    W    AA    RRRRR   N    N  II  N    N   GGGG   !!!           |
|           W    W   A  A   R    R  NN   N  II  NN   N  G    G  !!!           |
|           W    W  A    A  R    R  N N  N  II  N N  N  G       !!!           |
|           W WW W  AAAAAA  RRRRR   N  N N  II  N  N N  G  GGG   !            |
|           WW  WW  A    A  R   R   N   NN  II  N   NN  G    G                |
|           W    W  A    A  R    R  N    N  II  N    N   GGGG   !!!           |
|                                                                             |
|     Tetrahedron method does not include variations of the Fermi             |
|     occupations, so forces and stress will be inaccurate. We suggest        |
|     using a different smearing scheme ISMEAR = 1 or 2 for metals in         |
|     relaxations.                                                            |
|                                                                             |
 -----------------------------------------------------------------------------

    4ORBIT:  cpu time    0.0000: real time    0.0000



 total charge

# of ion       s       p       d       tot
------------------------------------------
    1        0.450   0.282   9.188   9.920
    2        0.447   0.286   9.185   9.918
    3        0.447   0.286   9.185   9.918
    4        0.446   0.285   9.187   9.918
    5        0.449   0.286   9.181   9.917
    6        0.446   0.285   9.187   9.918
    7        0.447   0.286   9.186   9.919
    8        0.447   0.286   9.186   9.919
    9        0.450   0.283   9.188   9.921
   10        0.443   0.371   9.175   9.989
   11        0.442   0.364   9.181   9.987
   12        0.443   0.371   9.175   9.989
   13        0.441   0.364   9.182   9.987
   14        0.441   0.364   9.182   9.987
   15        0.440   0.372   9.176   9.988
   16        0.442   0.371   9.176   9.989
   17        0.440   0.372   9.175   9.987
   18        0.440   0.372   9.175   9.987
   19        0.444   0.373   9.177   9.994
   20        0.458   0.386   9.160  10.004
   21        0.458   0.386   9.160  10.004
   22        0.434   0.374   9.178   9.986
   23        0.459   0.385   9.160  10.004
   24        0.434   0.374   9.178   9.986
   25        0.445   0.371   9.179   9.996
   26        0.445   0.371   9.179   9.996
   27        0.435   0.373   9.178   9.986
   28        0.444   0.300   9.179   9.923
   29        0.488   0.324   9.160   9.971
   30        0.488   0.324   9.160   9.971
   31        0.486   0.321   9.160   9.967
   32        0.486   0.321   9.160   9.967
   33        0.488   0.324   9.160   9.972
   34        0.488   0.324   9.160   9.972
   35        0.442   0.303   9.180   9.925
   36        0.605   0.504   2.006   3.115
   37        1.361   2.454   0.000   3.815
   38        1.361   2.454   0.000   3.815
--------------------------------------------------
tot         19.152  17.228 323.149 359.529
 
 BZINTS: Fermi energy:    0.377817;  399.000000 electrons
         Band energy:-0.109259E+04;  BLOECHL correction:   -0.032279

 total amount of memory used by VASP MPI-rank0   150541. kBytes
=======================================================================

   base      :      30000. kBytes
   nonlr-proj:      18534. kBytes
   fftplans  :       2916. kBytes
   grid      :      12390. kBytes
   one-center:        590. kBytes
   wavefun   :      86111. kBytes
 
  
  
 General timing and accounting informations for this job:
 ========================================================
  
                  Total CPU time used (sec):      153.139
                            User time (sec):      147.434
                          System time (sec):        5.705
                         Elapsed time (sec):      153.602
  
                   Maximum memory used (kb):      399876.
                   Average memory used (kb):          N/A
  
                          Minor page faults:        98272
                          Major page faults:            0
                 Voluntary context switches:         6604
