PROCAR new format
# of k-points:   10         # of bands:  252         # of ions:   39

 k-point     1 :    0.00000000 0.00000000 0.00000000     weight = 0.01562500

band     1 # energy  -25.46722091 # occ.  2.00000000
 
ion      s      p      d    tot
    1  0.000  0.000  0.000  0.000
    2  0.000  0.000  0.000  0.000
    3  0.000  0.000  0.000  0.000
    4  0.000  0.000  0.000  0.000
    5  0.000  0.000  0.000  0.000
    6  0.000  0.000  0.000  0.000
    7  0.000  0.000  0.000  0.000
    8  0.000  0.000  0.000  0.000
    9  0.000  0.000  0.000  0.000
   10  0.000  0.000  0.000  0.000
   11  0.000  0.000  0.000  0.000
   12  0.000  0.000  0.000  0.000
   13  0.000  0.000  0.000  0.000
   14  0.000  0.000  0.000  0.000
   15  0.000  0.000  0.000  0.000
   16  0.000  0.000  0.000  0.000
   17  0.000  0.000  0.000  0.000
   18  0.000  0.000  0.000  0.000
   19  0.000  0.000  0.000  0.000
   20  0.000  0.000  0.000  0.000
   21  0.000  0.000  0.000  0.000
   22  0.000  0.000  0.000  0.000
   23  0.000  0.000  0.000  0.000
   24  0.000  0.000  0.000  0.000
   25  0.000  0.000  0.000  0.000
   26  0.000  0.000  0.000  0.000
   27  0.000  0.000  0.000  0.000
   28  0.000  0.000  0.000  0.000
   29  0.000  0.000  0.000  0.000
   30  0.000  0.000  0.000  0.000
   31  0.000  0.000  0.000  0.000
   32  0.000  0.000  0.000  0.000
   33  0.000  0.000  0.000  0.000
   34  0.000  0.000  0.000  0.000
   35  0.000  0.000  0.000  0.000
   36  0.000  0.000  0.000  0.000
   37  0.083  0.061  0.000  0.144
   38  0.722  0.010  0.000  0.732
   39  0.055  0.012  0.000  0.067
tot    0.861  0.083  0.000  0.944
 
band     2 # energy  -16.07483453 # occ.  2.00000000
 
ion      s      p      d    tot
    1  0.000  0.000  0.000  0.000
    2  0.000  0.000  0.000  0.000
    3  0.000  0.000  0.000  0.000
    4  0.000  0.000  0.000  0.000
    5  0.000  0.000  0.000  0.000
    6  0.000  0.000  0.000  0.000
    7  0.000  0.000  0.000  0.000
    8  0.000  0.000  0.000  0.000
    9  0.000  0.000  0.000  0.000
   10  0.000  0.000  0.000  0.000
   11  0.000  0.000  0.000  0.000
   12  0.000  0.000  0.000  0.000
   13  0.000  0.000  0.000  0.000
   14  0.000  0.000  0.000  0.000
   15  0.000  0.000  0.000  0.000
   16  0.000  0.000  0.000  0.000
   17  0.000  0.000  0.000  0.000
   18  0.000  0.000  0.000  0.000
   19  0.000  0.000  0.000  0.000
   20  0.000  0.000  0.000  0.000
   21  0.000  0.000  0.000  0.000
   22  0.000  0.000  0.000  0.000
   23  0.000  0.000  0.000  0.000
   24  0.000  0.000  0.000  0.000
   25  0.000  0.000  0.000  0.000
   26  0.000  0.000  0.000  0.000
   27  0.000  0.000  0.000  0.000
   28  0.000  0.000  0.000  0.000
   29  0.000  0.000  0.000  0.000
   30  0.000  0.000  0.000  0.000
   31  0.000  0.000  0.000  0.000
   32  0.000  0.000  0.000  0.000
   33  0.000  0.000  0.000  0.000
   34  0.000  0.000  0.000  0.000
   35  0.000  0.000  0.000  0.000
   36  0.004  0.003  0.005  0.012
   37  0.164  0.045  0.000  0.209
   38  0.022  0.517  0.000  0.539
   39  0.197  0.031  0.000  0.229
tot    0.387  0.596  0.005  0.988
 
band     3 # energy  -10.14886818 # occ.  2.00000000
 
ion      s      p      d    tot
    1  0.000  0.000  0.000  0.000
    2  0.000  0.000  0.000  0.000
    3  0.000  0.000  0.000  0.000
    4  0.000  0.000  0.000  0.000
    5  0.000  0.000  0.000  0.000
    6  0.000  0.000  0.000  0.000
    7  0.000  0.000  0.000  0.000
    8  0.000  0.000  0.000  0.000
    9  0.000  0.000  0.000  0.000
   10  0.000  0.000  0.000  0.000
   11  0.000  0.000  0.000  0.000
   12  0.000  0.000  0.000  0.000
   13  0.000  0.000  0.000  0.000
   14  0.000  0.000  0.000  0.000
   15  0.000  0.000  0.000  0.000
   16  0.000  0.000  0.000  0.000
   17  0.000  0.000  0.000  0.000
   18  0.000  0.000  0.000  0.000
   19  0.001  0.000  0.000  0.001
   20  0.004  0.001  0.001  0.006
   21  0.004  0.001  0.001  0.006
   22  0.001  0.000  0.000  0.001
   23  0.004  0.001  0.001  0.006
   24  0.001  0.000  0.000  0.001
   25  0.001  0.000  0.000  0.001
   26  0.001  0.000  0.000  0.001
   27  0.001  0.000  0.000  0.001
   28  0.000  0.000  0.000  0.000
   29  0.002  0.000  0.000  0.002
   30  0.002  0.000  0.000  0.002
   31  0.002  0.000  0.000  0.002
   32  0.002  0.000  0.000  0.002
   33  0.002  0.000  0.000  0.002
   34  0.002  0.000  0.000  0.002
   35  0.000  0.000  0.000  0.000
   36  0.158  0.052  0.273  0.483
   37  0.159  0.180  0.000  0.339
   38  0.009  0.052  0.000  0.060
   39  0.014  0.001  0.000  0.015
tot    0.368  0.290  0.277  0.935
 
band     4 # energy   -8.64266859 # occ.  2.00000000
 
ion      s      p      d    tot
    1  0.006  0.001  0.000  0.007
    2  0.006  0.001  0.000  0.007
    3  0.006  0.001  0.000  0.007
    4  0.006  0.001  0.000  0.007
    5  0.006  0.001  0.000  0.007
    6  0.006  0.001  0.000  0.007
    7  0.006  0.001  0.000  0.007
    8  0.006  0.001  0.000  0.007
    9  0.006  0.001  0.000  0.007
   10  0.024  0.000  0.000  0.024
   11  0.024  0.000  0.000  0.024
   12  0.024  0.000  0.000  0.024
   13  0.024  0.000  0.000  0.024
   14  0.024  0.000  0.000  0.024
   15  0.024  0.000  0.000  0.024
   16  0.024  0.000  0.000  0.024
   17  0.024  0.000  0.000  0.024
   18  0.024  0.000  0.000  0.024
   19  0.024  0.000  0.000  0.024
   20  0.022  0.000  0.000  0.022
   21  0.022  0.000  0.000  0.022
   22  0.024  0.000  0.000  0.024
   23  0.022  0.000  0.000  0.022
   24  0.024  0.000  0.000  0.024
   25  0.024  0.000  0.000  0.024
   26  0.024  0.000  0.000  0.024
   27  0.024  0.000  0.000  0.024
   28  0.007  0.001  0.000  0.008
   29  0.007  0.001  0.000  0.007
   30  0.007  0.001  0.000  0.007
   31  0.007  0.001  0.000  0.007
   32  0.007  0.001  0.000  0.007
   33  0.007  0.001  0.000  0.007
   34  0.007  0.001  0.000  0.007
   35  0.007  0.001  0.000  0.008
   36  0.002  0.008  0.021  0.032
   37  0.008  0.007  0.000  0.015
   38  0.000  0.001  0.000  0.002
   39  0.000  0.000  0.000  0.000
tot    0.547  0.033  0.022  0.602
 
band     5 # energy   -8.24715637 # occ.  2.00000000
 
ion      s      p      d    tot
    1  0.000  0.000  0.000  0.000
    2  0.000  0.000  0.000  0.000
    3  0.000  0.000  0.000  0.000
    4  0.000  0.000  0.000  0.000
    5  0.000  0.000  0.000  0.000
    6  0.000  0.000  0.000  0.000
    7  0.000  0.000  0.000  0.000
    8  0.000  0.000  0.000  0.000
    9  0.000  0.000  0.000  0.000
   10  0.000  0.000  0.000  0.000
   11  0.000  0.000  0.000  0.000
   12  0.000  0.000  0.000  0.000
   13  0.000  0.000  0.000  0.000
   14  0.000  0.000  0.000  0.000
   15  0.000  0.000  0.000  0.000
   16  0.000  0.000  0.000  0.000
   17  0.000  0.000  0.000  0.000
   18  0.000  0.000  0.000  0.000
   19  0.000  0.000  0.000  0.000
   20  0.000  0.000  0.000  0.000
   21  0.000  0.000  0.000  0.000
   22  0.000  0.000  0.000  0.000
   23  0.000  0.000  0.000  0.000
   24  0.000  0.000  0.000  0.000
   25  0.000  0.000  0.000  0.000
   26  0.000  0.000  0.000  0.000
   27  0.000  0.000  0.000  0.000
   28  0.000  0.000  0.000  0.000
   29  0.000  0.000  0.000  0.001
   30  0.000  0.000  0.000  0.000
   31  0.000  0.000  0.000  0.001
   32  0.000  0.000  0.000  0.001
   33  0.000  0.000  0.000  0.000
   34  0.000  0.000  0.000  0.001
   35  0.000  0.000  0.000  0.000
   36  0.000  0.002  0.034  0.037
   37  0.000  0.123  0.000  0.123
   38  0.000  0.520  0.000  0.520
   39  0.000  0.007  0.000  0.007
tot    0.001  0.653  0.036  0.690
 
band     6 # energy   -8.24700430 # occ.  2.00000000
 
ion      s      p      d    tot
    1  0.000  0.000  0.000  0.000
    2  0.000  0.000  0.000  0.000
    3  0.000  0.000  0.000  0.000
    4  0.000  0.000  0.000  0.000
    5  0.000  0.000  0.000  0.000
    6  0.000  0.000  0.000  0.000
    7  0.000  0.000  0.000  0.000
    8  0.000  0.000  0.000  0.000
    9  0.000  0.000  0.000  0.000
   10  0.000  0.000  0.000  0.000
   11  0.000  0.000  0.000  0.000
   12  0.000  0.000  0.000  0.000
   13  0.000  0.000  0.000  0.000
   14  0.000  0.000  0.000  0.000
   15  0.000  0.000  0.000  0.000
   16  0.000  0.000  0.000  0.000
   17  0.000  0.000  0.000  0.000
   18  0.000  0.000  0.000  0.000
   19  0.000  0.000  0.000  0.000
   20  0.000  0.000  0.000  0.000
   21  0.000  0.000  0.000  0.000
   22  0.000  0.000  0.000  0.000
   23  0.000  0.000  0.000  0.000
   24  0.000  0.000  0.000  0.000
   25  0.000  0.000  0.000  0.000
   26  0.000  0.000  0.000  0.000
   27  0.000  0.000  0.000  0.000
   28  0.000  0.000  0.000  0.000
   29  0.000  0.000  0.000  0.000
   30  0.000  0.000  0.000  0.001
   31  0.000  0.000  0.000  0.000
   32  0.000  0.000  0.000  0.000
   33  0.000  0.000  0.000  0.001
   34  0.000  0.000  0.000  0.000
   35  0.000  0.000  0.000  0.000
   36  0.000  0.002  0.034  0.037
   37  0.000  0.123  0.000  0.123
   38  0.000  0.520  0.000  0.520
   39  0.000  0.007  0.000  0.007
tot    0.001  0.653  0.036  0.690
 
band     7 # energy   -7.43823590 # occ.  2.00000000
 
ion      s      p      d    tot
    1  0.016  0.001  0.000  0.017
    2  0.016  0.001  0.000  0.017
    3  0.016  0.001  0.000  0.017
    4  0.016  0.001  0.000  0.017
    5  0.016  0.001  0.000  0.017
    6  0.016  0.001  0.000  0.017
    7  0.016  0.001  0.000  0.017
    8  0.016  0.001  0.000  0.017
    9  0.016  0.001  0.000  0.017
   10  0.011  0.002  0.000  0.013
   11  0.011  0.002  0.000  0.013
   12  0.011  0.002  0.000  0.013
   13  0.011  0.002  0.000  0.013
   14  0.011  0.002  0.000  0.013
   15  0.011  0.002  0.001  0.013
   16  0.011  0.002  0.000  0.013
   17  0.011  0.002  0.001  0.013
   18  0.011  0.002  0.001  0.013
   19  0.007  0.002  0.000  0.010
   20  0.006  0.002  0.000  0.009
   21  0.006  0.002  0.000  0.009
   22  0.008  0.002  0.000  0.010
   23  0.006  0.002  0.000  0.009
   24  0.008  0.002  0.000  0.010
   25  0.007  0.002  0.000  0.010
   26  0.007  0.002  0.000  0.010
   27  0.008  0.002  0.000  0.010
   28  0.018  0.001  0.001  0.019
   29  0.020  0.001  0.001  0.022
   30  0.020  0.001  0.001  0.022
   31  0.020  0.001  0.001  0.022
   32  0.020  0.001  0.001  0.022
   33  0.020  0.001  0.001  0.022
   34  0.020  0.001  0.001  0.022
   35  0.018  0.001  0.001  0.019
   36  0.025  0.005  0.046  0.076
   37  0.004  0.003  0.000  0.007
   38  0.000  0.000  0.000  0.000
   39  0.000  0.000  0.000  0.000
tot    0.491  0.058  0.065  0.614
 
band     8 # energy   -6.00834052 # occ.  2.00000000
 
ion      s      p      d    tot
    1  0.014  0.000  0.004  0.017
    2  0.015  0.000  0.004  0.018
    3  0.015  0.000  0.004  0.018
    4  0.015  0.000  0.004  0.018
    5  0.016  0.000  0.003  0.020
    6  0.015  0.000  0.004  0.018
    7  0.015  0.000  0.004  0.018
    8  0.015  0.000  0.004  0.018
    9  0.014  0.000  0.004  0.018
   10  0.002  0.004  0.000  0.006
   11  0.001  0.003  0.001  0.004
   12  0.002  0.004  0.000  0.006
   13  0.000  0.003  0.001  0.004
   14  0.001  0.003  0.001  0.004
   15  0.001  0.004  0.000  0.006
   16  0.002  0.004  0.000  0.006
   17  0.001  0.004  0.000  0.006
   18  0.001  0.004  0.000  0.006
   19  0.012  0.002  0.003  0.017
   20  0.006  0.002  0.008  0.016
   21  0.006  0.002  0.008  0.016
   22  0.009  0.002  0.004  0.014
   23  0.006  0.002  0.008  0.016
   24  0.009  0.002  0.004  0.014
   25  0.012  0.002  0.003  0.017
   26  0.012  0.002  0.003  0.017
   27  0.009  0.002  0.004  0.014
   28  0.004  0.001  0.005  0.010
   29  0.014  0.001  0.010  0.025
   30  0.014  0.001  0.010  0.025
   31  0.014  0.001  0.010  0.025
   32  0.014  0.001  0.010  0.025
   33  0.014  0.001  0.010  0.025
   34  0.014  0.001  0.010  0.025
   35  0.005  0.000  0.005  0.010
   36  0.056  0.000  0.099  0.156
   37  0.000  0.000  0.000  0.000
   38  0.000  0.000  0.000  0.000
   39  0.000  0.000  0.000  0.000
tot    0.370  0.059  0.249  0.678
 
band     9 # energy   -5.82269148 # occ.  2.00000000
 
ion      s      p      d    tot
    1  0.000  0.001  0.003  0.004
    2  0.005  0.001  0.001  0.007
    3  0.000  0.000  0.001  0.002
    4  0.005  0.001  0.001  0.007
    5  0.000  0.001  0.002  0.003
    6  0.002  0.001  0.001  0.004
    7  0.000  0.000  0.001  0.002
    8  0.003  0.001  0.001  0.005
    9  0.000  0.000  0.001  0.001
   10  0.035  0.004  0.003  0.042
   11  0.006  0.006  0.004  0.017
   12  0.009  0.001  0.008  0.017
   13  0.006  0.007  0.004  0.017
   14  0.024  0.001  0.004  0.029
   15  0.000  0.004  0.004  0.008
   16  0.009  0.001  0.007  0.018
   17  0.000  0.004  0.004  0.008
   18  0.001  0.001  0.002  0.005
   19  0.004  0.009  0.002  0.015
   20  0.074  0.002  0.010  0.086
   21  0.018  0.003  0.014  0.035
   22  0.003  0.003  0.008  0.015
   23  0.019  0.003  0.014  0.037
   24  0.013  0.003  0.002  0.018
   25  0.016  0.000  0.006  0.021
   26  0.004  0.009  0.002  0.015
   27  0.003  0.003  0.008  0.015
   28  0.000  0.002  0.003  0.005
   29  0.012  0.004  0.006  0.022
   30  0.003  0.001  0.003  0.008
   31  0.012  0.004  0.006  0.022
   32  0.003  0.002  0.005  0.010
   33  0.004  0.001  0.003  0.008
   34  0.003  0.002  0.006  0.010
   35  0.000  0.000  0.003  0.003
   36  0.000  0.007  0.132  0.138
   37  0.000  0.001  0.000  0.001
   38  0.000  0.009  0.000  0.009
   39  0.000  0.000  0.000  0.000
tot    0.295  0.107  0.286  0.689
 
band    10 # energy   -5.82260905 # occ.  2.00000000
 
ion      s      p      d    tot
    1  0.000  0.001  0.003  0.004
    2  0.000  0.000  0.001  0.002
    3  0.005  0.001  0.001  0.007
    4  0.000  0.001  0.001  0.002
    5  0.000  0.001  0.002  0.003
    6  0.003  0.001  0.001  0.005
    7  0.005  0.001  0.001  0.007
    8  0.003  0.001  0.001  0.004
    9  0.000  0.000  0.001  0.001
   10  0.000  0.000  0.009  0.009
   11  0.017  0.003  0.004  0.025
   12  0.027  0.003  0.004  0.034
   13  0.018  0.003  0.004  0.025
   14  0.000  0.008  0.004  0.013
   15  0.001  0.002  0.003  0.006
   16  0.026  0.003  0.004  0.034
   17  0.001  0.002  0.003  0.006
   18  0.000  0.005  0.004  0.009
   19  0.012  0.003  0.004  0.019
   20  0.000  0.004  0.016  0.019
   21  0.056  0.003  0.012  0.070
   22  0.010  0.003  0.004  0.017
   23  0.054  0.003  0.012  0.069
   24  0.000  0.003  0.010  0.014
   25  0.000  0.012  0.000  0.012
   26  0.012  0.003  0.004  0.019
   27  0.009  0.003  0.004  0.017
   28  0.000  0.002  0.003  0.005
   29  0.000  0.001  0.004  0.005
   30  0.009  0.004  0.006  0.019
   31  0.000  0.001  0.004  0.005
   32  0.010  0.003  0.004  0.017
   33  0.009  0.004  0.006  0.019
   34  0.009  0.003  0.004  0.016
   35  0.000  0.000  0.003  0.003
   36  0.000  0.007  0.132  0.138
   37  0.000  0.001  0.000  0.001
   38  0.000  0.009  0.000  0.009
   39  0.000  0.000  0.000  0.000
tot    0.295  0.107  0.286  0.689
 
band    11 # energy   -5.72805068 # occ.  2.00000000
 
ion      s      p      d    tot
    1  0.000  0.001  0.002  0.002
    2  0.006  0.002  0.002  0.009
    3  0.000  0.001  0.001  0.002
    4  0.006  0.002  0.002  0.009
    5  0.000  0.000  0.002  0.003
    6  0.003  0.001  0.002  0.006
    7  0.000  0.001  0.001  0.002
    8  0.003  0.001  0.002  0.006
    9  0.000  0.002  0.004  0.006
   10  0.000  0.010  0.002  0.011
   11  0.014  0.003  0.004  0.020
   12  0.004  0.003  0.004  0.010
   13  0.014  0.003  0.004  0.020
   14  0.000  0.001  0.009  0.010
   15  0.033  0.003  0.005  0.041
   16  0.004  0.003  0.004  0.010
   17  0.033  0.003  0.005  0.041
   18  0.000  0.005  0.009  0.013
   19  0.033  0.003  0.006  0.042
   20  0.000  0.013  0.002  0.014
   21  0.000  0.004  0.004  0.008
   22  0.039  0.004  0.005  0.047
   23  0.000  0.004  0.004  0.008
   24  0.000  0.010  0.005  0.015
   25  0.000  0.000  0.016  0.016
   26  0.034  0.003  0.005  0.042
   27  0.038  0.004  0.005  0.047
   28  0.000  0.002  0.006  0.008
   29  0.020  0.003  0.005  0.028
   30  0.002  0.003  0.006  0.010
   31  0.020  0.003  0.005  0.028
   32  0.009  0.001  0.005  0.015
   33  0.002  0.003  0.006  0.010
   34  0.009  0.001  0.005  0.015
   35  0.000  0.005  0.005  0.010
   36  0.000  0.001  0.065  0.066
   37  0.000  0.000  0.000  0.000
   38  0.000  0.001  0.000  0.001
   39  0.000  0.000  0.000  0.000
tot    0.327  0.109  0.221  0.657
 
band    12 # energy   -5.72799207 # occ.  2.00000000
 
ion      s      p      d    tot
    1  0.000  0.001  0.002  0.002
    2  0.000  0.001  0.001  0.002
    3  0.006  0.002  0.002  0.009
    4  0.000  0.001  0.001  0.002
    5  0.000  0.000  0.002  0.003
    6  0.003  0.001  0.001  0.006
    7  0.006  0.002  0.002  0.009
    8  0.003  0.001  0.001  0.006
    9  0.000  0.002  0.004  0.006
   10  0.006  0.000  0.004  0.010
   11  0.005  0.002  0.007  0.014
   12  0.001  0.007  0.002  0.011
   13  0.005  0.002  0.008  0.014
   14  0.018  0.003  0.002  0.024
   15  0.011  0.004  0.008  0.023
   16  0.001  0.007  0.002  0.011
   17  0.011  0.004  0.008  0.023
   18  0.044  0.002  0.004  0.051
   19  0.011  0.001  0.012  0.025
   20  0.000  0.001  0.005  0.006
   21  0.000  0.010  0.003  0.012
   22  0.013  0.008  0.005  0.026
   23  0.000  0.010  0.003  0.012
   24  0.051  0.002  0.005  0.058
   25  0.045  0.004  0.002  0.051
   26  0.011  0.001  0.013  0.025
   27  0.013  0.008  0.005  0.026
   28  0.000  0.002  0.006  0.008
   29  0.001  0.001  0.005  0.008
   30  0.018  0.002  0.005  0.025
   31  0.001  0.001  0.005  0.008
   32  0.012  0.003  0.005  0.020
   33  0.018  0.002  0.005  0.025
   34  0.011  0.003  0.005  0.020
   35  0.000  0.005  0.005  0.010
   36  0.000  0.001  0.065  0.066
   37  0.000  0.000  0.000  0.000
   38  0.000  0.001  0.000  0.001
   39  0.000  0.000  0.000  0.000
tot    0.327  0.109  0.221  0.657
 
band    13 # energy   -5.65998834 # occ.  2.00000000
 
ion      s      p      d    tot
    1  0.002  0.001  0.001  0.003
    2  0.000  0.002  0.004  0.006
    3  0.000  0.002  0.004  0.006
    4  0.000  0.002  0.004  0.006
    5  0.005  0.001  0.000  0.006
    6  0.000  0.002  0.004  0.006
    7  0.000  0.002  0.004  0.006
    8  0.000  0.002  0.004  0.006
    9  0.022  0.003  0.001  0.026
   10  0.008  0.000  0.011  0.020
   11  0.009  0.007  0.004  0.020
   12  0.008  0.000  0.011  0.020
   13  0.009  0.007  0.004  0.020
   14  0.009  0.007  0.004  0.020
   15  0.028  0.006  0.005  0.039
   16  0.008  0.000  0.011  0.020
   17  0.028  0.006  0.005  0.039
   18  0.028  0.006  0.005  0.039
   19  0.001  0.004  0.008  0.013
   20  0.022  0.001  0.010  0.033
   21  0.022  0.001  0.010  0.033
   22  0.025  0.009  0.002  0.037
   23  0.022  0.001  0.010  0.033
   24  0.025  0.009  0.002  0.037
   25  0.001  0.004  0.008  0.013
   26  0.001  0.004  0.008  0.013
   27  0.025  0.009  0.002  0.037
   28  0.000  0.000  0.000  0.001
   29  0.000  0.002  0.005  0.007
   30  0.000  0.002  0.005  0.007
   31  0.000  0.002  0.005  0.007
   32  0.000  0.002  0.005  0.007
   33  0.000  0.002  0.005  0.007
   34  0.000  0.002  0.005  0.007
   35  0.025  0.003  0.000  0.028
   36  0.010  0.009  0.001  0.021
   37  0.002  0.001  0.000  0.003
   38  0.000  0.000  0.000  0.000
   39  0.000  0.000  0.000  0.000
tot    0.347  0.124  0.177  0.648
 
band    14 # energy   -5.65505198 # occ.  2.00000000
 
ion      s      p      d    tot
    1  0.021  0.002  0.000  0.024
    2  0.000  0.002  0.004  0.006
    3  0.000  0.002  0.004  0.006
    4  0.000  0.002  0.004  0.006
    5  0.008  0.002  0.002  0.012
    6  0.000  0.002  0.004  0.006
    7  0.000  0.002  0.004  0.006
    8  0.000  0.002  0.004  0.006
    9  0.000  0.000  0.000  0.000
   10  0.020  0.009  0.003  0.031
   11  0.024  0.002  0.008  0.035
   12  0.020  0.009  0.003  0.031
   13  0.024  0.002  0.008  0.035
   14  0.024  0.002  0.008  0.035
   15  0.000  0.003  0.009  0.012
   16  0.020  0.009  0.003  0.031
   17  0.000  0.003  0.009  0.012
   18  0.000  0.003  0.009  0.012
   19  0.029  0.006  0.006  0.040
   20  0.012  0.008  0.004  0.023
   21  0.012  0.008  0.004  0.023
   22  0.007  0.000  0.012  0.019
   23  0.012  0.008  0.004  0.023
   24  0.007  0.000  0.012  0.019
   25  0.029  0.006  0.006  0.040
   26  0.029  0.006  0.006  0.040
   27  0.007  0.000  0.012  0.019
   28  0.028  0.003  0.000  0.032
   29  0.000  0.002  0.005  0.007
   30  0.000  0.002  0.005  0.007
   31  0.000  0.002  0.005  0.007
   32  0.000  0.002  0.005  0.007
   33  0.000  0.002  0.005  0.007
   34  0.000  0.002  0.005  0.007
   35  0.001  0.000  0.001  0.002
   36  0.008  0.006  0.001  0.016
   37  0.001  0.001  0.000  0.002
   38  0.000  0.000  0.000  0.000
   39  0.000  0.000  0.000  0.000
tot    0.346  0.120  0.179  0.645
 
band    15 # energy   -5.19466682 # occ.  2.00000000
 
ion      s      p      d    tot
    1  0.000  0.001  0.005  0.006
    2  0.013  0.003  0.003  0.018
    3  0.003  0.001  0.003  0.007
    4  0.013  0.003  0.003  0.019
    5  0.000  0.001  0.005  0.006
    6  0.004  0.002  0.003  0.009
    7  0.002  0.001  0.003  0.006
    8  0.004  0.002  0.003  0.008
    9  0.000  0.004  0.006  0.010
   10  0.000  0.006  0.003  0.010
   11  0.014  0.002  0.005  0.020
   12  0.002  0.002  0.005  0.008
   13  0.013  0.002  0.005  0.020
   14  0.000  0.001  0.016  0.017
   15  0.024  0.002  0.005  0.031
   16  0.002  0.002  0.005  0.008
   17  0.024  0.002  0.005  0.031
   18  0.000  0.003  0.009  0.012
   19  0.000  0.003  0.005  0.008
   20  0.000  0.001  0.035  0.036
   21  0.000  0.000  0.015  0.015
   22  0.000  0.003  0.008  0.011
   23  0.000  0.000  0.015  0.015
   24  0.000  0.000  0.016  0.016
   25  0.000  0.000  0.000  0.000
   26  0.000  0.003  0.005  0.008
   27  0.000  0.004  0.007  0.011
   28  0.000  0.001  0.002  0.004
   29  0.016  0.002  0.012  0.030
   30  0.000  0.002  0.013  0.015
   31  0.016  0.001  0.012  0.030
   32  0.012  0.000  0.012  0.025
   33  0.000  0.002  0.013  0.015
   34  0.012  0.000  0.012  0.024
   35  0.000  0.002  0.002  0.004
   36  0.000  0.000  0.239  0.239
   37  0.000  0.001  0.000  0.001
   38  0.000  0.006  0.000  0.006
   39  0.000  0.000  0.000  0.000
tot    0.174  0.071  0.515  0.760
 
band    16 # energy   -5.19462958 # occ.  2.00000000
 
ion      s      p      d    tot
    1  0.000  0.001  0.005  0.006
    2  0.000  0.001  0.003  0.004
    3  0.010  0.002  0.003  0.016
    4  0.000  0.001  0.003  0.004
    5  0.000  0.001  0.005  0.006
    6  0.009  0.002  0.003  0.014
    7  0.010  0.002  0.003  0.016
    8  0.009  0.002  0.003  0.014
    9  0.000  0.004  0.006  0.010
   10  0.002  0.000  0.005  0.007
   11  0.004  0.001  0.012  0.018
   12  0.001  0.005  0.004  0.009
   13  0.005  0.001  0.012  0.018
   14  0.018  0.002  0.001  0.022
   15  0.008  0.003  0.008  0.018
   16  0.001  0.005  0.004  0.009
   17  0.008  0.003  0.007  0.018
   18  0.032  0.002  0.004  0.037
   19  0.000  0.001  0.002  0.003
   20  0.000  0.000  0.008  0.008
   21  0.000  0.000  0.028  0.029
   22  0.000  0.001  0.013  0.015
   23  0.000  0.000  0.029  0.029
   24  0.000  0.005  0.005  0.009
   25  0.000  0.004  0.007  0.010
   26  0.000  0.001  0.002  0.003
   27  0.000  0.001  0.014  0.015
   28  0.000  0.001  0.002  0.004
   29  0.003  0.001  0.012  0.017
   30  0.019  0.000  0.012  0.031
   31  0.003  0.001  0.012  0.016
   32  0.007  0.002  0.013  0.022
   33  0.019  0.001  0.012  0.031
   34  0.007  0.002  0.013  0.022
   35  0.000  0.002  0.002  0.004
   36  0.000  0.000  0.239  0.239
   37  0.000  0.001  0.000  0.001
   38  0.000  0.006  0.000  0.006
   39  0.000  0.000  0.000  0.000
tot    0.174  0.071  0.515  0.760
 
band    17 # energy   -5.10465649 # occ.  2.00000000
 
ion      s      p      d    tot
    1  0.000  0.004  0.009  0.014
    2  0.020  0.004  0.005  0.028
    3  0.004  0.002  0.004  0.010
    4  0.020  0.004  0.005  0.028
    5  0.000  0.005  0.008  0.013
    6  0.006  0.002  0.005  0.013
    7  0.004  0.002  0.004  0.010
    8  0.006  0.002  0.005  0.013
    9  0.000  0.000  0.009  0.009
   10  0.041  0.004  0.004  0.048
   11  0.005  0.005  0.007  0.018
   12  0.010  0.001  0.018  0.029
   13  0.005  0.005  0.007  0.018
   14  0.022  0.001  0.006  0.029
   15  0.001  0.004  0.011  0.016
   16  0.010  0.001  0.018  0.029
   17  0.001  0.004  0.011  0.016
   18  0.003  0.002  0.005  0.010
   19  0.000  0.001  0.011  0.012
   20  0.002  0.010  0.005  0.017
   21  0.000  0.002  0.010  0.013
   22  0.000  0.000  0.005  0.005
   23  0.000  0.002  0.010  0.013
   24  0.000  0.001  0.007  0.007
   25  0.000  0.002  0.001  0.002
   26  0.000  0.001  0.011  0.012
   27  0.000  0.000  0.005  0.005
   28  0.000  0.001  0.001  0.002
   29  0.005  0.002  0.007  0.014
   30  0.003  0.000  0.004  0.007
   31  0.005  0.002  0.007  0.014
   32  0.000  0.001  0.007  0.008
   33  0.003  0.000  0.004  0.007
   34  0.000  0.001  0.007  0.008
   35  0.000  0.000  0.002  0.002
   36  0.000  0.001  0.224  0.225
   37  0.000  0.005  0.000  0.005
   38  0.000  0.019  0.000  0.019
   39  0.000  0.000  0.000  0.000
tot    0.177  0.104  0.468  0.749
 
band    18 # energy   -5.10457571 # occ.  2.00000000
 
ion      s      p      d    tot
    1  0.000  0.004  0.009  0.014
    2  0.000  0.002  0.004  0.006
    3  0.016  0.004  0.005  0.024
    4  0.000  0.002  0.004  0.006
    5  0.000  0.005  0.008  0.013
    6  0.014  0.003  0.004  0.021
    7  0.016  0.004  0.005  0.024
    8  0.014  0.003  0.004  0.022
    9  0.000  0.000  0.009  0.009
   10  0.000  0.000  0.022  0.023
   11  0.016  0.002  0.007  0.025
   12  0.030  0.003  0.009  0.042
   13  0.016  0.002  0.007  0.025
   14  0.000  0.007  0.008  0.015
   15  0.002  0.002  0.007  0.012
   16  0.031  0.003  0.009  0.042
   17  0.002  0.002  0.007  0.012
   18  0.000  0.005  0.012  0.017
   19  0.000  0.001  0.004  0.005
   20  0.000  0.000  0.011  0.011
   21  0.001  0.007  0.007  0.015
   22  0.000  0.000  0.006  0.006
   23  0.001  0.007  0.006  0.015
   24  0.000  0.000  0.004  0.004
   25  0.000  0.000  0.015  0.015
   26  0.000  0.001  0.004  0.005
   27  0.000  0.000  0.006  0.006
   28  0.000  0.001  0.001  0.002
   29  0.001  0.000  0.005  0.006
   30  0.002  0.002  0.008  0.012
   31  0.001  0.000  0.005  0.006
   32  0.005  0.001  0.005  0.011
   33  0.002  0.002  0.008  0.012
   34  0.005  0.001  0.005  0.011
   35  0.000  0.000  0.002  0.002
   36  0.000  0.001  0.224  0.225
   37  0.000  0.005  0.000  0.005
   38  0.000  0.019  0.000  0.019
   39  0.000  0.000  0.000  0.000
tot    0.177  0.104  0.468  0.749
 
band    19 # energy   -5.07101520 # occ.  2.00000000
 
ion      s      p      d    tot
    1  0.001  0.002  0.010  0.013
    2  0.007  0.001  0.011  0.019
    3  0.007  0.001  0.011  0.019
    4  0.007  0.001  0.011  0.019
    5  0.033  0.000  0.006  0.039
    6  0.007  0.001  0.011  0.019
    7  0.007  0.001  0.011  0.019
    8  0.007  0.001  0.011  0.019
    9  0.002  0.001  0.011  0.015
   10  0.013  0.001  0.018  0.031
   11  0.000  0.002  0.020  0.022
   12  0.013  0.001  0.018  0.031
   13  0.000  0.002  0.020  0.022
   14  0.000  0.002  0.020  0.022
   15  0.015  0.000  0.019  0.035
   16  0.013  0.001  0.018  0.031
   17  0.015  0.000  0.019  0.035
   18  0.015  0.000  0.019  0.035
   19  0.005  0.002  0.008  0.016
   20  0.001  0.000  0.017  0.018
   21  0.001  0.000  0.017  0.018
   22  0.003  0.002  0.010  0.014
   23  0.001  0.000  0.017  0.018
   24  0.003  0.002  0.010  0.014
   25  0.005  0.002  0.008  0.016
   26  0.005  0.002  0.008  0.016
   27  0.003  0.002  0.010  0.014
   28  0.006  0.001  0.001  0.007
   29  0.000  0.002  0.009  0.011
   30  0.000  0.002  0.009  0.011
   31  0.000  0.002  0.009  0.011
   32  0.000  0.002  0.009  0.011
   33  0.000  0.002  0.009  0.011
   34  0.000  0.002  0.009  0.011
   35  0.005  0.001  0.001  0.007
   36  0.034  0.000  0.049  0.083
   37  0.000  0.000  0.000  0.000
   38  0.000  0.000  0.000  0.000
   39  0.000  0.000  0.000  0.000
tot    0.236  0.046  0.471  0.753
 
band    20 # energy   -4.89905899 # occ.  2.00000000
 
ion      s      p      d    tot
    1  0.034  0.001  0.001  0.037
    2  0.001  0.002  0.010  0.013
    3  0.001  0.002  0.010  0.013
    4  0.001  0.002  0.010  0.013
    5  0.013  0.004  0.005  0.023
    6  0.001  0.002  0.010  0.013
    7  0.001  0.002  0.010  0.013
    8  0.001  0.002  0.010  0.013
    9  0.002  0.000  0.002  0.004
   10  0.000  0.002  0.021  0.024
   11  0.018  0.003  0.013  0.034
   12  0.000  0.002  0.021  0.024
   13  0.018  0.003  0.013  0.034
   14  0.018  0.003  0.013  0.034
   15  0.000  0.000  0.015  0.015
   16  0.000  0.002  0.021  0.024
   17  0.000  0.000  0.015  0.015
   18  0.000  0.000  0.015  0.015
   19  0.001  0.002  0.012  0.016
   20  0.011  0.003  0.018  0.032
   21  0.011  0.003  0.018  0.032
   22  0.003  0.000  0.019  0.022
   23  0.011  0.003  0.018  0.032
   24  0.003  0.000  0.019  0.022
   25  0.001  0.002  0.012  0.016
   26  0.001  0.002  0.012  0.016
   27  0.003  0.000  0.019  0.022
   28  0.031  0.001  0.001  0.033
   29  0.001  0.002  0.010  0.014
   30  0.001  0.002  0.010  0.014
   31  0.001  0.002  0.010  0.014
   32  0.001  0.002  0.010  0.014
   33  0.001  0.002  0.010  0.014
   34  0.001  0.002  0.010  0.014
   35  0.003  0.000  0.003  0.006
   36  0.016  0.016  0.000  0.032
   37  0.003  0.001  0.000  0.004
   38  0.000  0.000  0.000  0.001
   39  0.000  0.000  0.000  0.000