PROCAR new format
# of k-points:   10         # of bands:  252         # of ions:   37

 k-point     1 :    0.00000000 0.00000000 0.00000000     weight = 0.01562500

band     1 # energy   -9.63060581 # occ.  2.00000000
 
ion      s      p      d    tot
    1  0.000  0.000  0.000  0.000
    2  0.000  0.000  0.000  0.000
    3  0.000  0.000  0.000  0.000
    4  0.000  0.000  0.000  0.000
    5  0.000  0.000  0.000  0.000
    6  0.000  0.000  0.000  0.000
    7  0.000  0.000  0.000  0.000
    8  0.000  0.000  0.000  0.000
    9  0.000  0.000  0.000  0.000
   10  0.000  0.000  0.000  0.000
   11  0.000  0.000  0.000  0.000
   12  0.000  0.000  0.000  0.000
   13  0.000  0.000  0.000  0.000
   14  0.000  0.000  0.000  0.000
   15  0.000  0.000  0.000  0.000
   16  0.000  0.000  0.000  0.000
   17  0.000  0.000  0.000  0.000
   18  0.000  0.000  0.000  0.000
   19  0.000  0.000  0.000  0.000
   20  0.001  0.000  0.001  0.001
   21  0.001  0.000  0.001  0.001
   22  0.000  0.000  0.000  0.000
   23  0.001  0.000  0.001  0.001
   24  0.000  0.000  0.000  0.000
   25  0.000  0.000  0.000  0.000
   26  0.000  0.000  0.000  0.000
   27  0.000  0.000  0.000  0.000
   28  0.000  0.000  0.000  0.000
   29  0.001  0.000  0.001  0.003
   30  0.001  0.000  0.001  0.003
   31  0.001  0.000  0.001  0.003
   32  0.001  0.000  0.001  0.003
   33  0.001  0.000  0.001  0.003
   34  0.001  0.000  0.001  0.003
   35  0.000  0.000  0.000  0.000
   36  0.106  0.067  0.117  0.291
   37  0.426  0.024  0.000  0.451
tot    0.542  0.095  0.126  0.763
 
band     2 # energy   -6.81455095 # occ.  2.00000000
 
ion      s      p      d    tot
    1  0.006  0.001  0.000  0.007
    2  0.006  0.001  0.000  0.007
    3  0.006  0.001  0.000  0.007
    4  0.006  0.001  0.000  0.007
    5  0.006  0.001  0.000  0.007
    6  0.006  0.001  0.000  0.007
    7  0.006  0.001  0.000  0.007
    8  0.006  0.001  0.000  0.007
    9  0.006  0.001  0.000  0.007
   10  0.023  0.000  0.000  0.024
   11  0.024  0.000  0.000  0.025
   12  0.023  0.000  0.000  0.024
   13  0.024  0.000  0.000  0.025
   14  0.024  0.000  0.000  0.025
   15  0.024  0.000  0.000  0.024
   16  0.023  0.000  0.000  0.024
   17  0.024  0.000  0.000  0.024
   18  0.024  0.000  0.000  0.024
   19  0.022  0.000  0.001  0.023
   20  0.024  0.000  0.000  0.025
   21  0.024  0.000  0.000  0.025
   22  0.023  0.000  0.000  0.024
   23  0.024  0.000  0.000  0.025
   24  0.023  0.000  0.000  0.024
   25  0.022  0.000  0.001  0.023
   26  0.022  0.000  0.001  0.023
   27  0.023  0.000  0.000  0.024
   28  0.005  0.001  0.000  0.006
   29  0.005  0.001  0.000  0.005
   30  0.005  0.001  0.000  0.005
   31  0.005  0.001  0.000  0.005
   32  0.005  0.001  0.000  0.005
   33  0.005  0.001  0.000  0.005
   34  0.005  0.001  0.000  0.005
   35  0.005  0.001  0.000  0.006
   36  0.002  0.003  0.001  0.006
   37  0.004  0.000  0.000  0.004
tot    0.521  0.016  0.009  0.546
 
band     3 # energy   -5.94433389 # occ.  2.00000000
 
ion      s      p      d    tot
    1  0.007  0.000  0.000  0.008
    2  0.007  0.000  0.000  0.008
    3  0.007  0.000  0.000  0.008
    4  0.007  0.000  0.000  0.008
    5  0.007  0.000  0.000  0.008
    6  0.007  0.000  0.000  0.008
    7  0.007  0.000  0.000  0.008
    8  0.007  0.000  0.000  0.008
    9  0.007  0.000  0.000  0.008
   10  0.011  0.001  0.016  0.027
   11  0.010  0.001  0.017  0.028
   12  0.011  0.001  0.016  0.027
   13  0.010  0.001  0.017  0.028
   14  0.010  0.001  0.017  0.028
   15  0.010  0.001  0.015  0.027
   16  0.011  0.001  0.016  0.027
   17  0.010  0.001  0.015  0.027
   18  0.010  0.001  0.015  0.027
   19  0.012  0.001  0.019  0.032
   20  0.014  0.001  0.022  0.037
   21  0.014  0.001  0.022  0.037
   22  0.013  0.001  0.019  0.032
   23  0.014  0.001  0.022  0.037
   24  0.013  0.001  0.019  0.032
   25  0.012  0.001  0.019  0.032
   26  0.012  0.001  0.019  0.032
   27  0.013  0.001  0.019  0.032
   28  0.005  0.000  0.000  0.006
   29  0.004  0.000  0.000  0.005
   30  0.004  0.000  0.000  0.005
   31  0.005  0.000  0.000  0.005
   32  0.004  0.000  0.000  0.005
   33  0.005  0.000  0.000  0.005
   34  0.004  0.000  0.000  0.005
   35  0.005  0.000  0.000  0.005
   36  0.002  0.002  0.001  0.005
   37  0.002  0.000  0.000  0.002
tot    0.317  0.025  0.330  0.672
 
band     4 # energy   -5.64814864 # occ.  2.00000000
 
ion      s      p      d    tot
    1  0.017  0.000  0.025  0.043
    2  0.017  0.000  0.026  0.043
    3  0.017  0.000  0.026  0.043
    4  0.017  0.000  0.026  0.043
    5  0.017  0.000  0.029  0.046
    6  0.017  0.000  0.026  0.043
    7  0.017  0.000  0.026  0.043
    8  0.017  0.000  0.026  0.043
    9  0.017  0.000  0.025  0.041
   10  0.000  0.001  0.019  0.020
   11  0.001  0.001  0.022  0.024
   12  0.000  0.001  0.019  0.020
   13  0.001  0.001  0.022  0.024
   14  0.001  0.001  0.022  0.024
   15  0.001  0.001  0.021  0.022
   16  0.000  0.001  0.019  0.020
   17  0.001  0.001  0.021  0.022
   18  0.001  0.001  0.021  0.022
   19  0.000  0.000  0.005  0.005
   20  0.000  0.000  0.008  0.008
   21  0.000  0.000  0.008  0.008
   22  0.000  0.000  0.010  0.010
   23  0.000  0.000  0.008  0.008
   24  0.000  0.000  0.010  0.010
   25  0.000  0.000  0.005  0.005
   26  0.000  0.000  0.005  0.005
   27  0.000  0.000  0.010  0.010
   28  0.006  0.000  0.005  0.011
   29  0.005  0.000  0.006  0.011
   30  0.005  0.000  0.006  0.011
   31  0.005  0.000  0.006  0.011
   32  0.005  0.000  0.006  0.011
   33  0.005  0.000  0.006  0.011
   34  0.005  0.000  0.006  0.011
   35  0.006  0.000  0.007  0.013
   36  0.002  0.000  0.004  0.006
   37  0.001  0.000  0.000  0.001
tot    0.203  0.008  0.546  0.756
 
band     5 # energy   -5.57579319 # occ.  2.00000000
 
ion      s      p      d    tot
    1  0.004  0.001  0.001  0.006
    2  0.000  0.000  0.004  0.004
    3  0.000  0.000  0.004  0.004
    4  0.000  0.000  0.004  0.004
    5  0.001  0.000  0.000  0.001
    6  0.000  0.000  0.004  0.004
    7  0.000  0.000  0.004  0.004
    8  0.000  0.000  0.004  0.004
    9  0.001  0.000  0.001  0.002
   10  0.003  0.000  0.031  0.035
   11  0.001  0.001  0.020  0.022
   12  0.003  0.000  0.031  0.035
   13  0.001  0.001  0.020  0.022
   14  0.001  0.001  0.020  0.021
   15  0.007  0.001  0.011  0.019
   16  0.003  0.000  0.031  0.035
   17  0.007  0.001  0.011  0.019
   18  0.007  0.001  0.011  0.019
   19  0.001  0.001  0.037  0.038
   20  0.009  0.000  0.090  0.100
   21  0.009  0.000  0.090  0.099
   22  0.015  0.001  0.009  0.026
   23  0.009  0.000  0.090  0.099
   24  0.015  0.001  0.010  0.026
   25  0.001  0.001  0.037  0.038
   26  0.001  0.001  0.037  0.038
   27  0.015  0.001  0.009  0.026
   28  0.000  0.000  0.001  0.001
   29  0.000  0.000  0.006  0.006
   30  0.000  0.000  0.006  0.006
   31  0.000  0.000  0.006  0.006
   32  0.000  0.000  0.006  0.006
   33  0.000  0.000  0.006  0.006
   34  0.000  0.000  0.006  0.006
   35  0.004  0.001  0.003  0.007
   36  0.004  0.004  0.002  0.010
   37  0.002  0.000  0.000  0.002
tot    0.124  0.019  0.663  0.806
 
band     6 # energy   -5.55124141 # occ.  2.00000000
 
ion      s      p      d    tot
    1  0.000  0.000  0.007  0.007
    2  0.000  0.000  0.003  0.003
    3  0.001  0.000  0.003  0.004
    4  0.000  0.000  0.003  0.003
    5  0.000  0.000  0.008  0.009
    6  0.002  0.000  0.003  0.006
    7  0.001  0.000  0.003  0.003
    8  0.002  0.000  0.003  0.006
    9  0.000  0.000  0.000  0.000
   10  0.012  0.001  0.005  0.018
   11  0.003  0.001  0.021  0.025
   12  0.003  0.000  0.027  0.030
   13  0.002  0.001  0.020  0.023
   14  0.011  0.000  0.028  0.040
   15  0.000  0.000  0.019  0.019
   16  0.004  0.000  0.025  0.029
   17  0.000  0.000  0.019  0.019
   18  0.000  0.000  0.017  0.018
   19  0.003  0.001  0.015  0.019
   20  0.033  0.001  0.013  0.046
   21  0.007  0.001  0.090  0.097
   22  0.001  0.000  0.081  0.083
   23  0.010  0.001  0.081  0.091
   24  0.006  0.001  0.016  0.023
   25  0.010  0.000  0.042  0.052
   26  0.002  0.001  0.012  0.015
   27  0.002  0.000  0.073  0.076
   28  0.000  0.000  0.001  0.001
   29  0.002  0.001  0.005  0.007
   30  0.001  0.000  0.007  0.009
   31  0.002  0.001  0.005  0.008
   32  0.000  0.000  0.003  0.003
   33  0.001  0.001  0.008  0.009
   34  0.000  0.000  0.002  0.003
   35  0.000  0.000  0.003  0.003
   36  0.000  0.001  0.003  0.003
   37  0.000  0.000  0.000  0.000
tot    0.120  0.016  0.673  0.809
 
band     7 # energy   -5.55122789 # occ.  2.00000000
 
ion      s      p      d    tot
    1  0.000  0.000  0.007  0.007
    2  0.002  0.000  0.003  0.005
    3  0.001  0.000  0.003  0.004
    4  0.002  0.000  0.003  0.005
    5  0.000  0.000  0.008  0.009
    6  0.000  0.000  0.002  0.003
    7  0.001  0.000  0.003  0.005
    8  0.000  0.000  0.002  0.003
    9  0.000  0.000  0.000  0.000
   10  0.000  0.000  0.033  0.033
   11  0.008  0.001  0.025  0.034
   12  0.010  0.001  0.011  0.021
   13  0.009  0.001  0.026  0.036
   14  0.000  0.001  0.018  0.019
   15  0.000  0.000  0.018  0.018
   16  0.009  0.001  0.013  0.023
   17  0.000  0.000  0.017  0.018
   18  0.000  0.000  0.019  0.020
   19  0.007  0.001  0.031  0.038
   20  0.000  0.001  0.110  0.111
   21  0.026  0.001  0.032  0.059
   22  0.005  0.001  0.033  0.038
   23  0.023  0.001  0.041  0.065
   24  0.000  0.000  0.097  0.097
   25  0.000  0.002  0.003  0.005
   26  0.007  0.000  0.035  0.043
   27  0.004  0.000  0.040  0.045
   28  0.000  0.000  0.001  0.001
   29  0.000  0.000  0.005  0.006
   30  0.001  0.000  0.003  0.004
   31  0.000  0.000  0.005  0.005
   32  0.002  0.001  0.007  0.010
   33  0.001  0.000  0.002  0.003
   34  0.002  0.001  0.008  0.010
   35  0.000  0.000  0.003  0.003
   36  0.000  0.001  0.003  0.003
   37  0.000  0.000  0.000  0.000
tot    0.120  0.016  0.673  0.809
 
band     8 # energy   -5.54505877 # occ.  2.00000000
 
ion      s      p      d    tot
    1  0.000  0.000  0.000  0.000
    2  0.000  0.000  0.006  0.006
    3  0.000  0.000  0.005  0.006
    4  0.000  0.000  0.006  0.006
    5  0.005  0.001  0.001  0.007
    6  0.000  0.000  0.005  0.006
    7  0.000  0.000  0.006  0.006
    8  0.000  0.000  0.005  0.006
    9  0.002  0.000  0.003  0.005
   10  0.005  0.001  0.008  0.015
   11  0.010  0.000  0.023  0.034
   12  0.005  0.001  0.007  0.013
   13  0.010  0.000  0.023  0.034
   14  0.009  0.000  0.023  0.033
   15  0.001  0.000  0.037  0.038
   16  0.005  0.001  0.007  0.013
   17  0.001  0.000  0.037  0.038
   18  0.001  0.000  0.039  0.040
   19  0.017  0.001  0.033  0.051
   20  0.006  0.001  0.011  0.019
   21  0.007  0.001  0.010  0.018
   22  0.001  0.000  0.073  0.074
   23  0.007  0.001  0.010  0.018
   24  0.001  0.000  0.079  0.079
   25  0.015  0.001  0.034  0.050
   26  0.018  0.001  0.033  0.051
   27  0.001  0.000  0.074  0.075
   28  0.006  0.001  0.006  0.013
   29  0.000  0.000  0.005  0.006
   30  0.000  0.000  0.005  0.005
   31  0.000  0.000  0.005  0.006
   32  0.000  0.000  0.005  0.006
   33  0.000  0.000  0.005  0.005
   34  0.000  0.000  0.005  0.006
   35  0.001  0.000  0.008  0.010
   36  0.001  0.000  0.000  0.001
   37  0.000  0.000  0.000  0.000
tot    0.137  0.017  0.644  0.798
 
band     9 # energy   -5.54474719 # occ.  2.00000000
 
ion      s      p      d    tot
    1  0.000  0.000  0.001  0.001
    2  0.001  0.001  0.005  0.007
    3  0.001  0.000  0.004  0.005
    4  0.000  0.000  0.002  0.002
    5  0.000  0.000  0.005  0.005
    6  0.001  0.000  0.004  0.005
    7  0.000  0.000  0.002  0.002
    8  0.001  0.001  0.005  0.007
    9  0.000  0.000  0.008  0.008
   10  0.000  0.001  0.024  0.025
   11  0.004  0.000  0.064  0.068
   12  0.002  0.000  0.032  0.034
   13  0.012  0.001  0.006  0.019
   14  0.003  0.000  0.065  0.069
   15  0.007  0.001  0.033  0.040
   16  0.000  0.001  0.024  0.025
   17  0.024  0.001  0.022  0.047
   18  0.006  0.001  0.033  0.040
   19  0.004  0.000  0.055  0.060
   20  0.000  0.001  0.033  0.034
   21  0.000  0.000  0.032  0.033
   22  0.020  0.001  0.027  0.048
   23  0.000  0.001  0.033  0.034
   24  0.005  0.001  0.026  0.032
   25  0.004  0.000  0.057  0.061
   26  0.015  0.001  0.006  0.021
   27  0.006  0.001  0.026  0.033
   28  0.000  0.000  0.005  0.006
   29  0.000  0.000  0.002  0.002
   30  0.001  0.000  0.003  0.004
   31  0.002  0.000  0.004  0.006
   32  0.001  0.000  0.003  0.004
   33  0.002  0.000  0.004  0.006
   34  0.000  0.000  0.002  0.002
   35  0.000  0.000  0.007  0.007
   36  0.000  0.000  0.000  0.000
   37  0.000  0.000  0.000  0.000
tot    0.123  0.016  0.665  0.804
 
band    10 # energy   -5.54474375 # occ.  2.00000000
 
ion      s      p      d    tot
    1  0.000  0.000  0.001  0.001
    2  0.000  0.000  0.002  0.003
    3  0.001  0.000  0.003  0.004
    4  0.001  0.000  0.005  0.007
    5  0.000  0.000  0.005  0.005
    6  0.001  0.000  0.003  0.005
    7  0.001  0.000  0.005  0.007
    8  0.000  0.000  0.003  0.003
    9  0.000  0.000  0.008  0.008
   10  0.001  0.000  0.029  0.031
   11  0.009  0.001  0.027  0.036
   12  0.000  0.001  0.021  0.023
   13  0.000  0.000  0.084  0.084
   14  0.010  0.001  0.025  0.036
   15  0.018  0.001  0.026  0.045
   16  0.002  0.000  0.030  0.032
   17  0.000  0.001  0.038  0.039
   18  0.019  0.001  0.024  0.044
   19  0.010  0.001  0.023  0.034
   20  0.000  0.000  0.031  0.031
   21  0.000  0.001  0.034  0.035
   22  0.000  0.001  0.028  0.029
   23  0.000  0.000  0.033  0.034
   24  0.016  0.001  0.023  0.040
   25  0.013  0.001  0.022  0.035
   26  0.000  0.000  0.073  0.073
   27  0.015  0.001  0.028  0.044
   28  0.000  0.000  0.005  0.006
   29  0.001  0.000  0.004  0.006
   30  0.001  0.000  0.003  0.005
   31  0.000  0.000  0.002  0.002
   32  0.001  0.000  0.003  0.004
   33  0.000  0.000  0.002  0.002
   34  0.001  0.000  0.004  0.006
   35  0.000  0.000  0.007  0.007
   36  0.000  0.000  0.000  0.000
   37  0.000  0.000  0.000  0.000
tot    0.123  0.016  0.665  0.804
 
band    11 # energy   -5.52504959 # occ.  2.00000000
 
ion      s      p      d    tot
    1  0.002  0.001  0.011  0.013
    2  0.000  0.000  0.008  0.009
    3  0.000  0.000  0.008  0.009
    4  0.000  0.000  0.008  0.009
    5  0.001  0.000  0.004  0.005
    6  0.000  0.000  0.008  0.009
    7  0.000  0.000  0.008  0.009
    8  0.000  0.000  0.008  0.009
    9  0.006  0.000  0.004  0.010
   10  0.010  0.000  0.019  0.029
   11  0.001  0.000  0.073  0.075
   12  0.010  0.000  0.019  0.029
   13  0.001  0.000  0.074  0.075
   14  0.001  0.000  0.073  0.075
   15  0.001  0.000  0.032  0.033
   16  0.010  0.000  0.019  0.029
   17  0.001  0.000  0.032  0.033
   18  0.001  0.000  0.032  0.033
   19  0.001  0.000  0.007  0.008
   20  0.002  0.000  0.036  0.037
   21  0.002  0.000  0.036  0.037
   22  0.000  0.000  0.038  0.038
   23  0.002  0.000  0.036  0.037
   24  0.000  0.000  0.038  0.038
   25  0.001  0.000  0.007  0.008
   26  0.001  0.000  0.007  0.008
   27  0.000  0.000  0.038  0.038
   28  0.004  0.000  0.000  0.004
   29  0.001  0.000  0.011  0.012
   30  0.001  0.000  0.011  0.012
   31  0.001  0.000  0.011  0.012
   32  0.001  0.000  0.011  0.012
   33  0.001  0.000  0.011  0.012
   34  0.001  0.000  0.011  0.012
   35  0.003  0.000  0.008  0.011
   36  0.003  0.001  0.000  0.005
   37  0.001  0.000  0.000  0.001
tot    0.068  0.009  0.758  0.835
 
band    12 # energy   -5.50228870 # occ.  2.00000000
 
ion      s      p      d    tot
    1  0.000  0.000  0.014  0.014
    2  0.002  0.000  0.005  0.007
    3  0.000  0.000  0.010  0.010
    4  0.002  0.000  0.005  0.007
    5  0.000  0.000  0.003  0.003
    6  0.001  0.001  0.007  0.009
    7  0.000  0.000  0.010  0.010
    8  0.001  0.001  0.006  0.008
    9  0.000  0.000  0.008  0.008
   10  0.000  0.000  0.051  0.051
   11  0.000  0.000  0.033  0.034
   12  0.009  0.000  0.040  0.049
   13  0.000  0.000  0.036  0.036
   14  0.000  0.001  0.017  0.018
   15  0.007  0.000  0.038  0.046
   16  0.008  0.000  0.041  0.049
   17  0.008  0.000  0.029  0.037
   18  0.000  0.000  0.114  0.114
   19  0.002  0.000  0.032  0.034
   20  0.000  0.000  0.041  0.041
   21  0.001  0.000  0.018  0.020
   22  0.000  0.000  0.033  0.033
   23  0.001  0.000  0.021  0.022
   24  0.000  0.000  0.010  0.010
   25  0.000  0.000  0.058  0.058
   26  0.002  0.000  0.029  0.031
   27  0.000  0.000  0.030  0.030
   28  0.000  0.000  0.013  0.013
   29  0.000  0.000  0.006  0.006
   30  0.002  0.000  0.005  0.007
   31  0.000  0.000  0.006  0.006
   32  0.001  0.000  0.004  0.005
   33  0.002  0.000  0.005  0.007
   34  0.001  0.000  0.004  0.005
   35  0.000  0.000  0.007  0.007
   36  0.000  0.000  0.000  0.001
   37  0.000  0.000  0.000  0.000
tot    0.049  0.007  0.789  0.846
 
band    13 # energy   -5.50224734 # occ.  2.00000000
 
ion      s      p      d    tot
    1  0.000  0.000  0.014  0.014
    2  0.000  0.000  0.009  0.010
    3  0.002  0.000  0.004  0.007
    4  0.000  0.000  0.009  0.010
    5  0.000  0.000  0.003  0.003
    6  0.001  0.000  0.007  0.008
    7  0.002  0.000  0.005  0.007
    8  0.001  0.000  0.008  0.008
    9  0.000  0.000  0.008  0.008
   10  0.011  0.000  0.037  0.047
   11  0.000  0.000  0.024  0.025
   12  0.002  0.000  0.048  0.051
   13  0.000  0.000  0.022  0.023
   14  0.000  0.000  0.040  0.040
   15  0.003  0.000  0.082  0.085
   16  0.003  0.000  0.047  0.051
   17  0.002  0.000  0.091  0.093
   18  0.010  0.000  0.007  0.018
   19  0.001  0.000  0.048  0.049
   20  0.001  0.000  0.013  0.014
   21  0.000  0.000  0.035  0.035
   22  0.000  0.000  0.016  0.016
   23  0.000  0.000  0.033  0.033
   24  0.000  0.000  0.038  0.039
   25  0.003  0.000  0.022  0.025
   26  0.001  0.000  0.051  0.052
   27  0.000  0.000  0.019  0.019
   28  0.000  0.000  0.013  0.013
   29  0.002  0.000  0.004  0.006
   30  0.000  0.000  0.005  0.006
   31  0.002  0.000  0.004  0.006
   32  0.001  0.000  0.006  0.007
   33  0.000  0.000  0.005  0.005
   34  0.001  0.000  0.006  0.007
   35  0.000  0.000  0.007  0.007
   36  0.000  0.000  0.000  0.001
   37  0.000  0.000  0.000  0.000
tot    0.049  0.007  0.790  0.846
 
band    14 # energy   -5.50028925 # occ.  2.00000000
 
ion      s      p      d    tot
    1  0.002  0.000  0.009  0.011
    2  0.000  0.000  0.009  0.009
    3  0.000  0.000  0.009  0.009
    4  0.000  0.000  0.009  0.009
    5  0.003  0.001  0.000  0.004
    6  0.000  0.000  0.009  0.009
    7  0.000  0.000  0.009  0.009
    8  0.000  0.000  0.009  0.009
    9  0.001  0.001  0.007  0.009
   10  0.000  0.000  0.077  0.078
   11  0.005  0.000  0.008  0.014
   12  0.000  0.000  0.076  0.076
   13  0.005  0.000  0.008  0.014
   14  0.005  0.000  0.009  0.014
   15  0.006  0.000  0.048  0.054
   16  0.000  0.000  0.076  0.077
   17  0.006  0.000  0.048  0.054
   18  0.006  0.000  0.047  0.054
   19  0.000  0.000  0.045  0.045
   20  0.000  0.000  0.024  0.024
   21  0.001  0.000  0.024  0.025
   22  0.001  0.000  0.022  0.023
   23  0.001  0.000  0.024  0.025
   24  0.001  0.000  0.023  0.024
   25  0.000  0.000  0.045  0.045
   26  0.000  0.000  0.045  0.045
   27  0.001  0.000  0.023  0.024
   28  0.002  0.000  0.006  0.007
   29  0.000  0.000  0.007  0.007
   30  0.000  0.000  0.007  0.007
   31  0.000  0.000  0.007  0.007
   32  0.000  0.000  0.007  0.007
   33  0.000  0.000  0.007  0.007
   34  0.000  0.000  0.007  0.007
   35  0.002  0.000  0.000  0.003
   36  0.000  0.001  0.001  0.002
   37  0.000  0.000  0.000  0.000
tot    0.049  0.008  0.789  0.847
 
band    15 # energy   -5.49038603 # occ.  2.00000000
 
ion      s      p      d    tot
    1  0.000  0.000  0.007  0.007
    2  0.004  0.001  0.006  0.010
    3  0.000  0.000  0.010  0.011
    4  0.004  0.001  0.006  0.010
    5  0.000  0.000  0.014  0.015
    6  0.001  0.001  0.009  0.011
    7  0.001  0.000  0.010  0.011
    8  0.002  0.001  0.009  0.011
    9  0.000  0.000  0.014  0.014
   10  0.011  0.000  0.011  0.022
   11  0.004  0.000  0.052  0.056
   12  0.002  0.000  0.064  0.066
   13  0.002  0.000  0.058  0.061
   14  0.013  0.000  0.019  0.032
   15  0.000  0.000  0.024  0.025
   16  0.003  0.000  0.056  0.059
   17  0.000  0.000  0.020  0.020
   18  0.000  0.000  0.046  0.047
   19  0.002  0.000  0.037  0.039
   20  0.000  0.000  0.039  0.040
   21  0.000  0.000  0.026  0.026
   22  0.001  0.000  0.046  0.047
   23  0.000  0.000  0.028  0.028
   24  0.007  0.000  0.015  0.022
   25  0.005  0.000  0.012  0.017
   26  0.001  0.000  0.042  0.043
   27  0.002  0.000  0.041  0.043
   28  0.000  0.000  0.003  0.003
   29  0.000  0.000  0.006  0.006
   30  0.002  0.000  0.001  0.003
   31  0.000  0.000  0.006  0.006
   32  0.001  0.001  0.005  0.007
   33  0.001  0.000  0.001  0.003
   34  0.001  0.001  0.006  0.008
   35  0.000  0.000  0.006  0.006
   36  0.000  0.000  0.001  0.001
   37  0.000  0.000  0.000  0.000
tot    0.073  0.009  0.755  0.837
 
band    16 # energy   -5.49036506 # occ.  2.00000000
 
ion      s      p      d    tot
    1  0.000  0.000  0.007  0.007
    2  0.000  0.000  0.011  0.011
    3  0.004  0.001  0.006  0.010
    4  0.000  0.000  0.011  0.011
    5  0.000  0.000  0.014  0.015
    6  0.003  0.000  0.007  0.010
    7  0.003  0.001  0.007  0.011
    8  0.002  0.000  0.008  0.010
    9  0.000  0.000  0.014  0.014
   10  0.000  0.000  0.075  0.076
   11  0.009  0.000  0.034  0.043
   12  0.009  0.000  0.023  0.032
   13  0.011  0.000  0.028  0.039
   14  0.000  0.000  0.067  0.068
   15  0.000  0.000  0.036  0.037
   16  0.007  0.000  0.031  0.039
   17  0.000  0.000  0.041  0.041
   18  0.000  0.000  0.014  0.014
   19  0.004  0.000  0.023  0.027
   20  0.000  0.000  0.022  0.023
   21  0.000  0.000  0.036  0.037
   22  0.006  0.000  0.022  0.028
   23  0.000  0.000  0.034  0.034
   24  0.000  0.000  0.053  0.053
   25  0.000  0.000  0.049  0.049
   26  0.004  0.000  0.019  0.023
   27  0.005  0.000  0.027  0.032
   28  0.000  0.000  0.003  0.003
   29  0.002  0.000  0.003  0.005
   30  0.000  0.000  0.007  0.008
   31  0.002  0.001  0.003  0.006
   32  0.000  0.000  0.003  0.004
   33  0.000  0.000  0.007  0.008
   34  0.001  0.000  0.003  0.003
   35  0.000  0.000  0.006  0.006
   36  0.000  0.000  0.001  0.001
   37  0.000  0.000  0.000  0.000
tot    0.072  0.009  0.755  0.837
 
band    17 # energy   -5.44587685 # occ.  2.00000000
 
ion      s      p      d    tot
    1  0.004  0.000  0.003  0.008
    2  0.002  0.000  0.010  0.012
    3  0.002  0.000  0.010  0.012
    4  0.002  0.000  0.010  0.012
    5  0.002  0.000  0.015  0.017
    6  0.002  0.000  0.010  0.012
    7  0.002  0.000  0.010  0.012
    8  0.002  0.000  0.010  0.012
    9  0.001  0.000  0.010  0.011
   10  0.000  0.000  0.007  0.008
   11  0.002  0.000  0.012  0.015
   12  0.000  0.000  0.007  0.008
   13  0.002  0.000  0.012  0.015
   14  0.002  0.000  0.012  0.015
   15  0.003  0.000  0.010  0.013
   16  0.000  0.000  0.007  0.008
   17  0.003  0.000  0.010  0.013
   18  0.003  0.000  0.010  0.013
   19  0.001  0.000  0.011  0.012
   20  0.000  0.001  0.025  0.027
   21  0.000  0.001  0.025  0.026
   22  0.000  0.001  0.018  0.019
   23  0.000  0.001  0.025  0.026
   24  0.000  0.001  0.018  0.019
   25  0.001  0.000  0.011  0.012
   26  0.001  0.000  0.011  0.012
   27  0.000  0.001  0.018  0.019
   28  0.014  0.000  0.030  0.044
   29  0.014  0.000  0.031  0.045
   30  0.014  0.000  0.031  0.045
   31  0.014  0.000  0.031  0.045
   32  0.014  0.000  0.031  0.045
   33  0.014  0.000  0.031  0.045
   34  0.014  0.000  0.031  0.045
   35  0.018  0.000  0.034  0.052
   36  0.006  0.001  0.017  0.024
   37  0.003  0.000  0.000  0.003
tot    0.167  0.009  0.607  0.783
 
band    18 # energy   -5.35656951 # occ.  2.00000000
 
ion      s      p      d    tot
    1  0.001  0.000  0.000  0.002
    2  0.000  0.000  0.007  0.007
    3  0.000  0.000  0.007  0.007
    4  0.000  0.000  0.007  0.007
    5  0.000  0.000  0.012  0.012
    6  0.000  0.000  0.007  0.007
    7  0.000  0.000  0.007  0.007
    8  0.000  0.000  0.007  0.007
    9  0.001  0.001  0.009  0.010
   10  0.000  0.000  0.015  0.015
   11  0.000  0.000  0.055  0.056
   12  0.000  0.000  0.015  0.015
   13  0.000  0.000  0.055  0.056
   14  0.000  0.000  0.055  0.055
   15  0.001  0.001  0.048  0.050
   16  0.000  0.000  0.015  0.015
   17  0.001  0.001  0.048  0.050
   18  0.001  0.001  0.048  0.050
   19  0.000  0.000  0.020  0.020
   20  0.000  0.000  0.065  0.066
   21  0.000  0.001  0.065  0.066
   22  0.002  0.000  0.031  0.033
   23  0.000  0.001  0.065  0.066
   24  0.002  0.000  0.031  0.033
   25  0.000  0.000  0.020  0.020
   26  0.000  0.000  0.020  0.020
   27  0.002  0.000  0.031  0.033
   28  0.006  0.001  0.000  0.007
   29  0.000  0.000  0.011  0.011
   30  0.000  0.000  0.011  0.011
   31  0.000  0.000  0.011  0.011
   32  0.000  0.000  0.011  0.011
   33  0.000  0.000  0.011  0.011
   34  0.000  0.000  0.011  0.011
   35  0.000  0.000  0.002  0.002
   36  0.002  0.002  0.003  0.006
   37  0.001  0.000  0.000  0.001
tot    0.024  0.015  0.830  0.868
 
band    19 # energy   -5.33865979 # occ.  2.00000000
 
ion      s      p      d    tot
    1  0.000  0.000  0.001  0.001
    2  0.001  0.001  0.008  0.009
    3  0.000  0.000  0.009  0.009
    4  0.001  0.001  0.007  0.009
    5  0.000  0.001  0.012  0.013
    6  0.001  0.000  0.005  0.006
    7  0.000  0.000  0.009  0.009
    8  0.001  0.000  0.005  0.006
    9  0.000  0.001  0.013  0.014
   10  0.001  0.001  0.024  0.026
   11  0.000  0.000  0.080  0.081
   12  0.000  0.000  0.022  0.023
   13  0.000  0.000  0.078  0.079
   14  0.001  0.000  0.035  0.036
   15  0.001  0.000  0.027  0.028
   16  0.000  0.000  0.022  0.023
   17  0.001  0.000  0.028  0.029
   18  0.003  0.001  0.044  0.047
   19  0.001  0.000  0.009  0.010
   20  0.004  0.000  0.045  0.050
   21  0.001  0.000  0.069  0.070
   22  0.000  0.000  0.041  0.042
   23  0.001  0.000  0.070  0.071
   24  0.000  0.001  0.021  0.022
   25  0.002  0.001  0.032  0.035
   26  0.001  0.000  0.010  0.011
   27  0.000  0.000  0.042  0.043
   28  0.000  0.000  0.007  0.007
   29  0.001  0.000  0.006  0.007
   30  0.000  0.000  0.008  0.009
   31  0.001  0.000  0.006  0.007
   32  0.002  0.001  0.005  0.008
   33  0.000  0.000  0.008  0.009
   34  0.002  0.001  0.005  0.008
   35  0.000  0.000  0.003  0.003
   36  0.000  0.001  0.005  0.006
   37  0.000  0.000  0.000  0.000
tot    0.026  0.016  0.820  0.863
 
band    20 # energy   -5.33862245 # occ.  2.00000000
 
ion      s      p      d    tot
    1  0.000  0.000  0.001  0.001
    2  0.000  0.000  0.007  0.007
    3  0.001  0.001  0.005  0.007
    4  0.000  0.000  0.007  0.007
    5  0.000  0.001  0.012  0.013
    6  0.000  0.000  0.009  0.010
    7  0.001  0.001  0.005  0.007
    8  0.000  0.000  0.009  0.010
    9  0.000  0.001  0.013  0.014
   10  0.000  0.000  0.023  0.023
   11  0.001  0.000  0.049  0.050
   12  0.000  0.001  0.023  0.024
   13  0.001  0.000  0.051  0.052
   14  0.000  0.000  0.094  0.095
   15  0.002  0.001  0.039  0.041
   16  0.001  0.001  0.023  0.025
   17  0.002  0.001  0.038  0.040
   18  0.000  0.000  0.021  0.021
   19  0.002  0.001  0.025  0.028
   20  0.000  0.000  0.078  0.078
   21  0.003  0.000  0.054  0.057
   22  0.000  0.001  0.028  0.029
   23  0.003  0.000  0.053  0.056
   24  0.000  0.000  0.048  0.048
   25  0.000  0.000  0.001  0.001
   26  0.002  0.001  0.024  0.027
   27  0.000  0.001  0.027  0.028
   28  0.000  0.000  0.007  0.007
   29  0.001  0.001  0.007  0.009
   30  0.002  0.001  0.005  0.007
   31  0.001  0.001  0.007  0.009
   32  0.000  0.000  0.007  0.008
   33  0.002  0.001  0.005  0.007
   34  0.000  0.000  0.007  0.008
   35  0.000  0.000  0.002  0.003
   36  0.000  0.001  0.005  0.006
   37  0.000  0.000  0.000  0.000
tot    0.026  0.016  0.820  0.863
 
band    21 # energy   -5.33439700 # occ.  2.00000000
 
ion      s      p      d    tot
    1  0.000  0.000  0.006  0.006
    2  0.000  0.000  0.011  0.012
    3  0.000  0.000  0.011  0.012
    4  0.000  0.000  0.011  0.012
    5  0.004  0.001  0.002  0.007
    6  0.000  0.000  0.011  0.011
    7  0.000  0.000  0.011  0.012
    8  0.000  0.000  0.011  0.011
    9  0.003  0.000  0.002  0.005
   10  0.002  0.001  0.045  0.047
   11  0.000  0.000  0.038  0.039
   12  0.002  0.001  0.045  0.048
   13  0.000  0.000  0.038  0.039
   14  0.000  0.000  0.038  0.038
   15  0.002  0.000  0.020  0.022
   16  0.002  0.001  0.045  0.048
   17  0.002  0.000  0.019  0.021
   18  0.002  0.000  0.020  0.022
   19  0.001  0.001  0.054  0.056
   20  0.001  0.000  0.022  0.023
   21  0.001  0.000  0.022  0.024
   22  0.000  0.001  0.040  0.041
   23  0.001  0.000  0.022  0.024
   24  0.000  0.001  0.040  0.040
   25  0.001  0.001  0.054  0.056
   26  0.001  0.001  0.053  0.055
   27  0.000  0.001  0.040  0.041
   28  0.000  0.000  0.012  0.013
   29  0.000  0.000  0.010  0.010
   30  0.000  0.000  0.010  0.010
   31  0.000  0.000  0.010  0.010
   32  0.000  0.000  0.010  0.010
   33  0.000  0.000  0.010  0.010
   34  0.000  0.000  0.010  0.010
   35  0.005  0.001  0.002  0.008
   36  0.002  0.000  0.001  0.003