 vasp.6.2.0 18Jan21 (build Jun 12 2021 23:27:24) complex                        
  
 executed on             LinuxIFC date 2022.05.27  05:39:51
 running on   28 total cores
 distrk:  each k-point on   28 cores,    1 groups
 distr:  one band on NCORE=   1 cores,   28 groups


--------------------------------------------------------------------------------------------------------


 INCAR:
   ISMEAR = -5
   SIGMA = 0.1
   ISPIN = 1
   EDIFF = 1.d-5
   EDIFFG = -0.01
   NSW = 0
   NELM = 150
   ENCUT = 500
   ISIF = 2
   IBRION = 2
   LREAL = Auto
   ALGO = Fast
   ICHARG = 11
   LORBIT = 10
   LCHARG = .F.
   LWAVE = .F.

 POTCAR:    PAW_PBE Ag 02Apr2005                  
 POTCAR:    PAW_PBE Nb_sv 25May2007               
 POTCAR:    PAW_PBE C 08Apr2002                   
 POTCAR:    PAW_PBE O 08Apr2002                   
 -----------------------------------------------------------------------------
|                                                                             |
|           W    W    AA    RRRRR   N    N  II  N    N   GGGG   !!!           |
|           W    W   A  A   R    R  NN   N  II  NN   N  G    G  !!!           |
|           W    W  A    A  R    R  N N  N  II  N N  N  G       !!!           |
|           W WW W  AAAAAA  RRRRR   N  N N  II  N  N N  G  GGG   !            |
|           WW  WW  A    A  R   R   N   NN  II  N   NN  G    G                |
|           W    W  A    A  R    R  N    N  II  N    N   GGGG   !!!           |
|                                                                             |
|     For optimal performance we recommend to set                             |
|       NCORE = 2 up to number-of-cores-per-socket                            |
|     NCORE specifies how many cores store one orbital (NPAR=cpu/NCORE).      |
|     This setting can greatly improve the performance of VASP for DFT.       |
|     The default, NCORE=1 might be grossly inefficient on modern             |
|     multi-core architectures or massively parallel machines. Do your        |
|     own testing! More info at https://www.vasp.at/wiki/index.php/NCORE      |
|     Unfortunately you need to use the default for GW and RPA                |
|     calculations (for HF NCORE is supported but not extensively tested      |
|     yet).                                                                   |
|                                                                             |
 -----------------------------------------------------------------------------

 POTCAR:    PAW_PBE Ag 02Apr2005                  
   VRHFIN =Ag : s1 d10                                                                              
   LEXCH  = PE                                                                                      
   EATOM  =  1037.2675 eV,   76.2370 Ry                                                             
                                                                                                    
   TITEL  = PAW_PBE Ag 02Apr2005                                                                    
   LULTRA =        F    use ultrasoft PP ?                                                          
   IUNSCR =        1    unscreen: 0-lin 1-nonlin 2-no                                               
   RPACOR =    2.000    partial core radius                                                         
   POMASS =  107.868; ZVAL   =   11.000    mass and valenz                                          
   RCORE  =    2.500    outmost cutoff radius                                                       
   RWIGS  =    2.840; RWIGS  =    1.503    wigner-seitz radius (au A)                               
   ENMAX  =  249.844; ENMIN  =  187.383 eV                                                          
   ICORE  =        3    local potential                                                             
   LCOR   =        T    correct aug charges                                                         
   LPAW   =        T    paw PP                                                                      
   EAUG   =  412.496                                                                                
   DEXC   =    0.000                                                                                
   RMAX   =    2.560    core radius for proj-oper                                                   
   RAUG   =    1.300    factor for augmentation sphere                                              
   RDEP   =    2.576    radius for radial grids                                                     
   RDEPT  =    2.072    core radius for aug-charge                                                  
                                                                                                    
   Atomic configuration                                                                             
   12 entries                                                                                       
     n  l   j            E        occ.                                                              
     1  0  0.50    -25324.9161   2.0000                                                             
     2  0  0.50     -3728.5341   2.0000                                                             
     2  1  1.50     -3344.0404   6.0000                                                             
     3  0  0.50      -683.5581   2.0000                                                             
     3  1  1.50      -557.3225   6.0000                                                             
     3  2  2.50      -358.3853  10.0000                                                             
     4  0  0.50       -95.0341   2.0000                                                             
     4  1  1.50       -58.5511   6.0000                                                             
     4  2  2.50        -7.4440  10.0000                                                             
     5  0  0.50        -4.4045   1.0000                                                             
     5  1  0.50        -1.3606   0.0000                                                             
     4  3  2.50        -1.3606   0.0000                                                             
   Description                                                                                      
     l       E           TYP  RCUT    TYP  RCUT                                                     
     2     -7.4439781     23  2.400                                                                 
     2     -8.8045607     23  2.400                                                                 
     0     -4.4044681     23  2.400                                                                 
     0      1.9520038     23  2.400                                                                 
     1     -1.3605826     23  2.500                                                                 
     1     27.2116520     23  2.500                                                                 
     3     -4.0817478     23  2.400                                                                 
  local pseudopotential read in
  partial core-charges read in
  partial kinetic energy density read in
  atomic valenz-charges read in
  non local Contribution for L=           2  read in
    real space projection operators read in
  non local Contribution for L=           2  read in
    real space projection operators read in
  non local Contribution for L=           0  read in
    real space projection operators read in
  non local Contribution for L=           0  read in
    real space projection operators read in
  non local Contribution for L=           1  read in
    real space projection operators read in
  non local Contribution for L=           1  read in
    real space projection operators read in
    PAW grid and wavefunctions read in
 
   number of l-projection  operators is LMAX  =           6
   number of lm-projection operators is LMMAX =          18
 
 POTCAR:    PAW_PBE Nb_sv 25May2007               
   VRHFIN =Nb: 4p5s4d                                                                               
   LEXCH  = PE                                                                                      
   EATOM  =  1555.1913 eV,  114.3033 Ry                                                             
                                                                                                    
   TITEL  = PAW_PBE Nb_sv 25May2007                                                                 
   LULTRA =        F    use ultrasoft PP ?                                                          
   IUNSCR =        1    unscreen: 0-lin 1-nonlin 2-no                                               
   RPACOR =    1.800    partial core radius                                                         
   POMASS =   92.910; ZVAL   =   13.000    mass and valenz                                          
   RCORE  =    2.400    outmost cutoff radius                                                       
   RWIGS  =    2.400; RWIGS  =    1.270    wigner-seitz radius (au A)                               
   ENMAX  =  293.235; ENMIN  =  219.927 eV                                                          
   ICORE  =        3    local potential                                                             
   LCOR   =        T    correct aug charges                                                         
   LPAW   =        T    paw PP                                                                      
   EAUG   =  455.659                                                                                
   DEXC   =    0.000                                                                                
   RMAX   =    2.456    core radius for proj-oper                                                   
   RAUG   =    1.300    factor for augmentation sphere                                              
   RDEP   =    2.451    radius for radial grids                                                     
   RDEPT  =    1.956    core radius for aug-charge                                                  
                                                                                                    
   Atomic configuration                                                                             
   11 entries                                                                                       
     n  l   j            E        occ.                                                              
     1  0  0.50    -18805.2457   2.0000                                                             
     2  0  0.50     -2630.2869   2.0000                                                             
     2  1  1.50     -2348.4046   6.0000                                                             
     3  0  0.50      -438.8757   2.0000                                                             
     3  1  1.50      -346.7588   6.0000                                                             
     3  2  2.50      -196.2560  10.0000                                                             
     4  0  0.50       -58.3859   2.0000                                                             
     5  0  0.50        -3.9816   1.0000                                                             
     4  1  1.50       -34.5141   6.0000                                                             
     4  2  2.50        -3.0408   4.0000                                                             
     4  3  2.50        -1.3606   0.0000                                                             
   Description                                                                                      
     l       E           TYP  RCUT    TYP  RCUT                                                     
     0    -58.3859094     23  2.200                                                                 
     0     -3.9816262     23  2.200                                                                 
     1    -34.5140738     23  2.200                                                                 
     1     13.6058260     23  2.200                                                                 
     2     -3.0408010     23  2.200                                                                 
     2     -0.1283038     23  2.200                                                                 
     3     -1.3605826     23  2.400                                                                 
  local pseudopotential read in
  partial core-charges read in
  partial kinetic energy density read in
  atomic valenz-charges read in
  non local Contribution for L=           0  read in
    real space projection operators read in
  non local Contribution for L=           0  read in
    real space projection operators read in
  non local Contribution for L=           1  read in
    real space projection operators read in
  non local Contribution for L=           1  read in
    real space projection operators read in
  non local Contribution for L=           2  read in
    real space projection operators read in
  non local Contribution for L=           2  read in
    real space projection operators read in
    PAW grid and wavefunctions read in
 
   number of l-projection  operators is LMAX  =           6
   number of lm-projection operators is LMMAX =          18
 
 POTCAR:    PAW_PBE C 08Apr2002                   
   VRHFIN =C: s2p2                                                                                  
   LEXCH  = PE                                                                                      
   EATOM  =   147.1560 eV,   10.8157 Ry                                                             
                                                                                                    
   TITEL  = PAW_PBE C 08Apr2002                                                                     
   LULTRA =        F    use ultrasoft PP ?                                                          
   IUNSCR =        1    unscreen: 0-lin 1-nonlin 2-no                                               
   RPACOR =    1.200    partial core radius                                                         
   POMASS =   12.011; ZVAL   =    4.000    mass and valenz                                          
   RCORE  =    1.500    outmost cutoff radius                                                       
   RWIGS  =    1.630; RWIGS  =    0.863    wigner-seitz radius (au A)                               
   ENMAX  =  400.000; ENMIN  =  300.000 eV                                                          
   ICORE  =        2    local potential                                                             
   LCOR   =        T    correct aug charges                                                         
   LPAW   =        T    paw PP                                                                      
   EAUG   =  644.873                                                                                
   DEXC   =    0.000                                                                                
   RMAX   =    1.529    core radius for proj-oper                                                   
   RAUG   =    1.300    factor for augmentation sphere                                              
   RDEP   =    1.501    radius for radial grids                                                     
   RDEPT  =    1.300    core radius for aug-charge                                                  
                                                                                                    
   Atomic configuration                                                                             
    4 entries                                                                                       
     n  l   j            E        occ.                                                              
     1  0  0.50      -273.3789   2.0000                                                             
     2  0  0.50       -13.7508   2.0000                                                             
     2  1  0.50        -5.2854   2.0000                                                             
     3  2  1.50        -5.4423   0.0000                                                             
   Description                                                                                      
     l       E           TYP  RCUT    TYP  RCUT                                                     
     0    -13.7508458     23  1.200                                                                 
     0     -8.2022199     23  1.200                                                                 
     1     -5.2854383     23  1.500                                                                 
     1     34.0145650     23  1.500                                                                 
     2     -5.4423304      7  1.500                                                                 
  local pseudopotential read in
  partial core-charges read in
  partial kinetic energy density read in
  atomic valenz-charges read in
  non local Contribution for L=           0  read in
    real space projection operators read in
  non local Contribution for L=           0  read in
    real space projection operators read in
  non local Contribution for L=           1  read in
    real space projection operators read in
  non local Contribution for L=           1  read in
    real space projection operators read in
    PAW grid and wavefunctions read in
 
   number of l-projection  operators is LMAX  =           4
   number of lm-projection operators is LMMAX =           8
 
 POTCAR:    PAW_PBE O 08Apr2002                   
   VRHFIN =O: s2p4                                                                                  
   LEXCH  = PE                                                                                      
   EATOM  =   432.3788 eV,   31.7789 Ry                                                             
                                                                                                    
   TITEL  = PAW_PBE O 08Apr2002                                                                     
   LULTRA =        F    use ultrasoft PP ?                                                          
   IUNSCR =        1    unscreen: 0-lin 1-nonlin 2-no                                               
   RPACOR =    1.200    partial core radius                                                         
   POMASS =   16.000; ZVAL   =    6.000    mass and valenz                                          
   RCORE  =    1.520    outmost cutoff radius                                                       
   RWIGS  =    1.550; RWIGS  =    0.820    wigner-seitz radius (au A)                               
   ENMAX  =  400.000; ENMIN  =  300.000 eV                                                          
   ICORE  =        2    local potential                                                             
   LCOR   =        T    correct aug charges                                                         
   LPAW   =        T    paw PP                                                                      
   EAUG   =  605.392                                                                                
   DEXC   =    0.000                                                                                
   RMAX   =    1.553    core radius for proj-oper                                                   
   RAUG   =    1.300    factor for augmentation sphere                                              
   RDEP   =    1.550    radius for radial grids                                                     
   RDEPT  =    1.329    core radius for aug-charge                                                  
                                                                                                    
   Atomic configuration                                                                             
    4 entries                                                                                       
     n  l   j            E        occ.                                                              
     1  0  0.50      -514.6923   2.0000                                                             
     2  0  0.50       -23.9615   2.0000                                                             
     2  1  0.50        -9.0305   4.0000                                                             
     3  2  1.50        -9.5241   0.0000                                                             
   Description                                                                                      
     l       E           TYP  RCUT    TYP  RCUT                                                     
     0    -23.9615318     23  1.200                                                                 
     0     -9.5240782     23  1.200                                                                 
     1     -9.0304911     23  1.520                                                                 
     1      8.1634956     23  1.520                                                                 
     2     -9.5240782      7  1.500                                                                 
  local pseudopotential read in
  partial core-charges read in
  partial kinetic energy density read in
  kinetic energy density of atom read in
  atomic valenz-charges read in
  non local Contribution for L=           0  read in
    real space projection operators read in
  non local Contribution for L=           0  read in
    real space projection operators read in
  non local Contribution for L=           1  read in
    real space projection operators read in
  non local Contribution for L=           1  read in
    real space projection operators read in
    PAW grid and wavefunctions read in
 
   number of l-projection  operators is LMAX  =           4
   number of lm-projection operators is LMMAX =           8
 
 Optimization of the real space projectors (new method)

 maximal supplied QI-value         = 15.12
 optimisation between [QCUT,QGAM] = [ 11.34, 22.83] = [ 36.00,145.93] Ry 
 Optimized for a Real-space Cutoff    1.43 Angstroem

   l    n(q)    QCUT    max X(q) W(low)/X(q) W(high)/X(q)  e(spline) 
   2      9    11.338    53.897    0.16E-03    0.20E-03    0.28E-06
   2      9    11.338    52.416    0.16E-03    0.20E-03    0.29E-06
   0     10    11.338   122.045    0.31E-04    0.76E-04    0.15E-06
   0     10    11.338    73.629    0.30E-04    0.72E-04    0.15E-06
   1      9    11.338    15.255    0.20E-03    0.19E-04    0.17E-06
   1      9    11.338     9.562    0.16E-03    0.15E-04    0.14E-06
 Optimization of the real space projectors (new method)

 maximal supplied QI-value         = 15.68
 optimisation between [QCUT,QGAM] = [ 11.45, 22.90] = [ 36.71,146.85] Ry 
 Optimized for a Real-space Cutoff    1.56 Angstroem

   l    n(q)    QCUT    max X(q) W(low)/X(q) W(high)/X(q)  e(spline) 
   0     11    11.450    10.201    0.21E-04    0.96E-05    0.78E-07
   0     11    11.450     8.174    0.31E-04    0.18E-04    0.14E-06
   1     10    11.450     3.488    0.27E-04    0.12E-04    0.96E-07
   1     10    11.450     4.917    0.11E-03    0.11E-03    0.37E-06
   2     10    11.450   153.744    0.37E-03    0.81E-03    0.10E-05
   2     10    11.450   126.342    0.37E-03    0.81E-03    0.10E-05
 Optimization of the real space projectors (new method)

 maximal supplied QI-value         = 25.13
 optimisation between [QCUT,QGAM] = [ 11.31, 22.87] = [ 35.82,146.48] Ry 
 Optimized for a Real-space Cutoff    1.00 Angstroem

   l    n(q)    QCUT    max X(q) W(low)/X(q) W(high)/X(q)  e(spline) 
   0      7    11.310   115.676    0.43E-03    0.13E-02    0.19E-06
   0      7    11.310    87.132    0.43E-03    0.13E-02    0.18E-06
   1      6    11.310     4.429    0.42E-03    0.74E-03    0.11E-06
   1      6    11.310     2.733    0.34E-03    0.55E-03    0.92E-07
 Optimization of the real space projectors (new method)

 maximal supplied QI-value         = 24.76
 optimisation between [QCUT,QGAM] = [ 11.39, 22.77] = [ 36.31,145.25] Ry 
 Optimized for a Real-space Cutoff    1.00 Angstroem

   l    n(q)    QCUT    max X(q) W(low)/X(q) W(high)/X(q)  e(spline) 
   0      7    11.387    20.381    0.39E-03    0.13E-02    0.15E-06
   0      7    11.387    15.268    0.42E-03    0.14E-02    0.17E-06
   1      6    11.387     5.964    0.41E-03    0.11E-02    0.17E-06
   1      6    11.387     5.382    0.39E-03    0.87E-03    0.15E-06
  PAW_PBE Ag 02Apr2005                  :
 energy of atom  1       EATOM=-1037.2675
 kinetic energy error for atom=    0.0052 (will be added to EATOM!!)
  PAW_PBE Nb_sv 25May2007               :
 energy of atom  2       EATOM=-1555.1913
 kinetic energy error for atom=    0.0069 (will be added to EATOM!!)
  PAW_PBE C 08Apr2002                   :
 energy of atom  3       EATOM= -147.1560
 kinetic energy error for atom=    0.0076 (will be added to EATOM!!)
  PAW_PBE O 08Apr2002                   :
 energy of atom  4       EATOM= -432.3788
 kinetic energy error for atom=    0.0224 (will be added to EATOM!!)
 
 
 POSCAR: Ag-Nb-CO
  positions in direct lattice
  velocities in cartesian coordinates
 exchange correlation table for  LEXCH =        8
   RHO(1)=    0.500       N(1)  =     2000
   RHO(2)=  100.500       N(2)  =     4000

 VTST: version 3.2, (02/03/18)

 CHAIN: initializing optimizer
 
 OPT: Using VASP Conjugate-Gradient optimizer
 CHAIN: Read ICHAIN            0
 
 POSCAR: Ag-Nb-CO
  positions in direct lattice
  velocities in cartesian coordinates
 


--------------------------------------------------------------------------------------------------------


 ion  position               nearest neighbor table
   1  0.000  0.000  0.238-   2 2.93   8 2.93   7 2.93   6 2.93   4 2.93  12 2.93  16 2.93  10 2.93
                             3 2.93
   2  0.333  0.000  0.238-   1 2.93   8 2.93   9 2.93   3 2.93   4 2.93   5 2.93  10 2.93  17 2.93
                            11 2.93
   3  0.667  0.000  0.238-   9 2.93   2 2.93   5 2.93  11 2.93   7 2.93  18 2.93   1 2.93   6 2.93
                            12 2.93
   4  0.000  0.333  0.238-   5 2.93   6 2.93   2 2.93   1 2.93   7 2.93  13 2.93  15 2.93   9 2.93
                            10 2.93
   5  0.333  0.333  0.238-   4 2.93   3 2.93   7 2.93   2 2.93   8 2.93  14 2.93  13 2.93  11 2.93
                             6 2.93
   6  0.667  0.333  0.238-   4 2.93   9 2.93   1 2.93  15 2.93   8 2.93  12 2.93   3 2.93   5 2.93
                            14 2.93
   7  0.000  0.667  0.238-   8 2.93   1 2.93   5 2.93   3 2.93   4 2.93  16 2.93  18 2.93  13 2.93
                             9 2.93
   8  0.333  0.667  0.238-   7 2.93   1 2.93   2 2.93   9 2.93   5 2.93  16 2.93   6 2.93  17 2.93
                            14 2.93
   9  0.667  0.667  0.238-   3 2.93   2 2.93   8 2.93   6 2.93  17 2.93   4 2.93  15 2.93   7 2.93
                            18 2.93
  10  0.111  0.111  0.346-  20 2.90  19 2.93  26 2.93  12 2.93  16 2.93  15 2.93  17 2.93  13 2.93
                            11 2.93   2 2.93   1 2.93   4 2.93
  11  0.444  0.111  0.346-  21 2.90  20 2.90  14 2.93  17 2.93  18 2.93   3 2.93  12 2.93  13 2.93
                            10 2.93   5 2.93   2 2.93  27 2.93
  12  0.778  0.111  0.346-  21 2.90  25 2.93  19 2.93  10 2.93  16 2.93  18 2.93  15 2.93  11 2.93
                             1 2.93  14 2.93   6 2.93   3 2.93
  13  0.111  0.444  0.346-  20 2.90  23 2.90  15 2.93  14 2.93  18 2.93  10 2.93  11 2.93  16 2.93
                             4 2.93   5 2.93   7 2.93  22 2.93
  14  0.444  0.444  0.346-  23 2.90  21 2.90  13 2.93  11 2.93  16 2.93   5 2.93  12 2.93  17 2.93
                             8 2.93  15 2.93   6 2.93  24 2.93
  15  0.778  0.444  0.346-  19 2.93  13 2.93  10 2.93  12 2.93  17 2.93  18 2.93   4 2.93   6 2.93
                             9 2.93  14 2.93  24 2.93  22 2.93
  16  0.111  0.778  0.346-  23 2.90  26 2.93  25 2.93  18 2.93  12 2.93  10 2.93  14 2.93  17 2.93
                            13 2.93   7 2.93   8 2.93   1 2.93
  17  0.444  0.778  0.346-  26 2.93  11 2.93  10 2.93   9 2.93  18 2.93  15 2.93  16 2.93   2 2.93
                            14 2.93   8 2.93  27 2.93  24 2.93
  18  0.778  0.778  0.346-  25 2.93  16 2.93  12 2.93  13 2.93  11 2.93  17 2.93  15 2.93   7 2.93
                             3 2.93   9 2.93  22 2.93  27 2.93
  19  0.889  0.222  0.454-  15 2.93  10 2.93  12 2.93  20 2.93  21 2.93  28 2.93  24 2.93  22 2.93
                            26 2.93  25 2.93  32 2.97  31 2.97
  20  0.222  0.222  0.452-  36 2.82  10 2.90  13 2.90  11 2.90  19 2.93  26 2.93  27 2.93  22 2.93
                            21 2.94  23 2.94  31 2.97  29 2.97
  21  0.556  0.222  0.452-  36 2.82  12 2.90  11 2.90  14 2.90  25 2.93  19 2.93  27 2.93  24 2.93
                            20 2.94  23 2.94  30 2.97  32 2.97
  22  0.889  0.556  0.454-  24 2.93  27 2.93  25 2.93  19 2.93  18 2.93  15 2.93  23 2.93  20 2.93
                            35 2.93  13 2.93  33 2.95  31 2.95
  23  0.222  0.556  0.452-  36 2.82  16 2.90  14 2.90  13 2.90  26 2.93  25 2.93  22 2.93  24 2.93
                            21 2.94  20 2.94  34 2.97  33 2.97
  24  0.556  0.556  0.454-  27 2.93  22 2.93  19 2.93  26 2.93  15 2.93  17 2.93  23 2.93  21 2.93
                            35 2.93  14 2.93  32 2.95  34 2.95
  25  0.889  0.889  0.454-  18 2.93  16 2.93  12 2.93  23 2.93  21 2.93  28 2.93  22 2.93  27 2.93
                            26 2.93  19 2.93  33 2.97  30 2.97
  26  0.222  0.889  0.454-  17 2.93  16 2.93  10 2.93  23 2.93  20 2.93  28 2.93  27 2.93  24 2.93
                            25 2.93  19 2.93  34 2.97  29 2.97
  27  0.556  0.889  0.454-  24 2.93  22 2.93  26 2.93  25 2.93  17 2.93  18 2.93  20 2.93  21 2.93
                            35 2.93  11 2.93  29 2.95  30 2.95
  28  0.000  0.000  0.561-  26 2.93  25 2.93  19 2.93  29 2.95  34 2.95  33 2.95  32 2.95  31 2.95
                            30 2.95
  29  0.333  0.004  0.563-  30 2.90  31 2.90  36 2.91  35 2.95  28 2.95  27 2.95  20 2.97  26 2.97
                            34 2.99
  30  0.663  0.004  0.563-  29 2.90  32 2.90  36 2.91  35 2.95  28 2.95  27 2.95  21 2.97  25 2.97
                            33 2.99
  31  0.004  0.333  0.563-  33 2.90  29 2.90  36 2.91  35 2.95  28 2.95  22 2.95  20 2.97  19 2.97
                            32 2.99
  32  0.663  0.333  0.563-  34 2.90  30 2.90  36 2.91  35 2.95  28 2.95  24 2.95  21 2.97  19 2.97
                            31 2.99
  33  0.004  0.663  0.563-  31 2.90  34 2.90  36 2.91  35 2.95  28 2.95  22 2.95  23 2.97  25 2.97
                            30 2.99
  34  0.333  0.663  0.563-  32 2.90  33 2.90  36 2.91  35 2.95  28 2.95  24 2.95  23 2.97  26 2.97
                            29 2.99
  35  0.667  0.667  0.562-  24 2.93  27 2.93  22 2.93  30 2.95  29 2.95  32 2.95  34 2.95  31 2.95
                            33 2.95
  36  0.333  0.333  0.554-  37 2.06  21 2.82  20 2.82  23 2.82  31 2.91  33 2.91  30 2.91  29 2.91
                            34 2.91  32 2.91
  37  0.333  0.333  0.647-  38 1.17  36 2.06
  38  0.333  0.333  0.700-  37 1.17
 
  LATTYP: Found a hexagonal cell.
 ALAT       =     8.7913665772
 C/A-ratio  =     2.5227160501
  
  Lattice vectors:
  
 A1 = (  -4.3956832886,  -7.6135467898,   0.0000000000)
 A2 = (   8.7913665771,   0.0000000000,   0.0000000000)
 A3 = (   0.0000000000,   0.0000000000,  22.1781215668)


Analysis of symmetry for initial positions (statically):
=====================================================================
 Subroutine PRICEL returns:
 Original cell was already a primitive cell.
 

 Routine SETGRP: Setting up the symmetry group for a 
 hexagonal supercell.


 Subroutine GETGRP returns: Found  6 space group operations
 (whereof  6 operations were pure point group operations)
 out of a pool of 24 trial point group operations.


The static configuration has the point symmetry C_3v.


Analysis of symmetry for dynamics (positions and initial velocities):
=====================================================================
 Subroutine PRICEL returns:
 Original cell was already a primitive cell.
 

 Routine SETGRP: Setting up the symmetry group for a 
 hexagonal supercell.


 Subroutine GETGRP returns: Found  6 space group operations
 (whereof  6 operations were pure point group operations)
 out of a pool of 24 trial point group operations.


The dynamic configuration has the point symmetry C_3v.


Analysis of constrained symmetry for selective dynamics:
=====================================================================
 Subroutine PRICEL returns:
 Original cell was already a primitive cell.
 

 Routine SETGRP: Setting up the symmetry group for a 
 hexagonal supercell.


 Subroutine GETGRP returns: Found  6 space group operations
 (whereof  6 operations were pure point group operations)
 out of a pool of 24 trial point group operations.


The constrained configuration has the point symmetry C_3v.


 Subroutine INISYM returns: Found  6 space group operations
 (whereof  6 operations are pure point group operations),
 and found     1 'primitive' translations


----------------------------------------------------------------------------------------

                                     Primitive cell                                     

  volume of cell :    1484.4589

  direct lattice vectors                    reciprocal lattice vectors
     8.791366577  0.000000000  0.000000000     0.113747958 -0.065672414  0.000000000
     4.395683289  7.613546790  0.000000000     0.000000000  0.131344829  0.000000000
     0.000000000  0.000000000 22.178121567     0.000000000  0.000000000  0.045089481

  length of vectors
     8.791366577  8.791366577 22.178121567     0.131344829  0.131344829  0.045089481

  position of ions in fractional coordinates (direct lattice)
     0.000000000  0.000000000  0.238171124
     0.333333313  0.000000000  0.238171124
     0.666666627  0.000000000  0.238171124
     0.000000000  0.333333343  0.238171124
     0.333333313  0.333333343  0.238171124
     0.666666687  0.333333343  0.238171124
     0.000000000  0.666666687  0.238171124
     0.333333313  0.666666687  0.238171124
     0.666666627  0.666666687  0.238171124
     0.111111104  0.111111112  0.346057051
     0.444444448  0.111111112  0.346057051
     0.777777791  0.111111112  0.346057051
     0.111111097  0.444444448  0.346057051
     0.444444418  0.444444448  0.346057051
     0.777777791  0.444444448  0.346057051
     0.111111104  0.777777791  0.346057051
     0.444444448  0.777777791  0.346057051
     0.777777791  0.777777791  0.346057051
     0.888874930  0.222250156  0.453660109
     0.222002280  0.222002295  0.452362180
     0.555995379  0.222002295  0.452362180
     0.888584292  0.555707884  0.454052872
     0.222002295  0.555995439  0.452362180
     0.555707884  0.555707884  0.454052872
     0.888874930  0.888874930  0.453660109
     0.222250126  0.888874930  0.453660109
     0.555707824  0.888584292  0.454052872
     0.000000000  0.000000000  0.561470753
     0.333455740  0.003519001  0.563052859
     0.663025199  0.003519001  0.563052859
     0.003519001  0.333455770  0.563052859
     0.663025259  0.333455770  0.563052859
     0.003519001  0.663025259  0.563052859
     0.333455740  0.663025259  0.563052859
     0.666666627  0.666666687  0.562140206
     0.333333313  0.333333343  0.554116375
     0.333333313  0.333333343  0.646947614
     0.333333313  0.333333343  0.699871358

  ion indices of the primitive-cell ions
   primitive index   ion index
                 1           1
                 2           2
                 3           3
                 4           4
                 5           5
                 6           6
                 7           7
                 8           8
                 9           9
                10          10
                11          11
                12          12
                13          13
                14          14
                15          15
                16          16
                17          17
                18          18
                19          19
                20          20
                21          21
                22          22
                23          23
                24          24
                25          25
                26          26
                27          27
                28          28
                29          29
                30          30
                31          31
                32          32
                33          33
                34          34
                35          35
                36          36
                37          37
                38          38

----------------------------------------------------------------------------------------

 
 
 KPOINTS: Automatic mesh                          

Automatic generation of k-mesh.
 Grid dimensions read from file:
 generate k-points for:    8    8    1

 Generating k-lattice:

  Cartesian coordinates                     Fractional coordinates (reciprocal lattice)
     0.014218495 -0.008209052  0.000000000     0.125000000  0.000000000  0.000000000
     0.000000000  0.016418104  0.000000000     0.000000000  0.125000000  0.000000000
     0.000000000  0.000000000  0.045089481     0.000000000  0.000000000  1.000000000

  Length of vectors
     0.016418104  0.016418104  0.045089481

  Shift w.r.t. Gamma in fractional coordinates (k-lattice)
     0.000000000  0.000000000  0.000000000

 TETIRR: Found     36 inequivalent tetrahedra from      384
 
 Subroutine IBZKPT returns following result:
 ===========================================
 
 Found     10 irreducible k-points:
 
 Following reciprocal coordinates:
            Coordinates               Weight
  0.000000  0.000000  0.000000      1.000000
  0.125000 -0.000000  0.000000      6.000000
  0.250000 -0.000000  0.000000      6.000000
  0.375000 -0.000000  0.000000      6.000000
  0.500000 -0.000000  0.000000      3.000000
  0.250000  0.125000  0.000000      6.000000
  0.375000  0.125000  0.000000     12.000000
  0.500000  0.125000  0.000000     12.000000
  0.500000  0.250000  0.000000      6.000000
 -0.375000  0.250000  0.000000      6.000000
 
 Following cartesian coordinates:
            Coordinates               Weight
  0.000000  0.000000  0.000000      1.000000
  0.014218 -0.008209  0.000000      6.000000
  0.028437 -0.016418  0.000000      6.000000
  0.042655 -0.024627  0.000000      6.000000
  0.056874 -0.032836  0.000000      3.000000
  0.028437 -0.000000  0.000000      6.000000
  0.042655 -0.008209  0.000000     12.000000
  0.056874 -0.016418  0.000000     12.000000
  0.056874 -0.000000  0.000000      6.000000
 -0.042655  0.057463  0.000000      6.000000
 


--------------------------------------------------------------------------------------------------------




 Dimension of arrays:
   k-points           NKPTS =     10   k-points in BZ     NKDIM =     10   number of bands    NBANDS=    252
   number of dos      NEDOS =    301   number of ions     NIONS =     38
   non local maximal  LDIM  =      6   non local SUM 2l+1 LMDIM =     18
   total plane-waves  NPLWV = 290304
   max r-space proj   IRMAX =   3185   max aug-charges    IRDMAX=   9814
   dimension x,y,z NGX =    48 NGY =   48 NGZ =  126
   dimension x,y,z NGXF=    96 NGYF=   96 NGZF=  252
   support grid    NGXF=    96 NGYF=   96 NGZF=  252
   ions per type =              35   1   1   1
   NGX,Y,Z   is equivalent  to a cutoff of   9.08,  9.08,  9.44 a.u.
   NGXF,Y,Z  is equivalent  to a cutoff of  18.15, 18.15, 18.89 a.u.

 SYSTEM =  unknown system                          
 POSCAR =  Ag-Nb-CO                                

 Startparameter for this run:
   NWRITE =      2    write-flag & timer
   PREC   = normal    normal or accurate (medium, high low for compatibility)
   ISTART =      0    job   : 0-new  1-cont  2-samecut
   ICHARG =     11    charge: 1-file 2-atom 10-const
   ISPIN  =      1    spin polarized calculation?
   LNONCOLLINEAR =      F non collinear calculations
   LSORBIT =      F    spin-orbit coupling
   INIWAV =      1    electr: 0-lowe 1-rand  2-diag
   LASPH  =      F    aspherical Exc in radial PAW
   METAGGA=      F    non-selfconsistent MetaGGA calc.

 Electronic Relaxation 1
   ENCUT  =  500.0 eV  36.75 Ry    6.06 a.u.  16.03 16.03 40.44*2*pi/ulx,y,z
   ENINI  =  500.0     initial cutoff
   ENAUG  =  644.9 eV  augmentation charge cutoff
   NELM   =    150;   NELMIN=  2; NELMDL= -5     # of ELM steps 
   EDIFF  = 0.1E-04   stopping-criterion for ELM
   LREAL  =      T    real-space projection
   NLSPLINE    = F    spline interpolate recip. space projectors
   LCOMPAT=      F    compatible to vasp.4.4
   GGA_COMPAT  = T    GGA compatible to vasp.4.4-vasp.4.6
   LMAXPAW     = -100 max onsite density
   LMAXMIX     =    2 max onsite mixed and CHGCAR
   VOSKOWN=      0    Vosko Wilk Nusair interpolation
   ROPT   =   -0.00050  -0.00050  -0.00050  -0.00050
 Ionic relaxation
   EDIFFG = -.1E-01   stopping-criterion for IOM
   NSW    =      0    number of steps for IOM
   NBLOCK =      1;   KBLOCK =      1    inner block; outer block 
   IBRION =     -1    ionic relax: 0-MD 1-quasi-New 2-CG
   NFREE  =      1    steps in history (QN), initial steepest desc. (CG)
   ISIF   =      2    stress and relaxation
   IWAVPR =     10    prediction:  0-non 1-charg 2-wave 3-comb
   ISYM   =      2    0-nonsym 1-usesym 2-fastsym
   LCORR  =      T    Harris-Foulkes like correction to forces

   POTIM  = 0.5000    time-step for ionic-motion
   TEIN   =    0.0    initial temperature
   TEBEG  =    0.0;   TEEND  =   0.0 temperature during run
   SMASS  =  -3.00    Nose mass-parameter (am)
   estimated Nose-frequenzy (Omega)   =  0.10E-29 period in steps = 0.13E+47 mass=  -0.177E-26a.u.
   SCALEE = 1.0000    scale energy and forces
   NPACO  =    256;   APACO  = 16.0  distance and # of slots for P.C.
   PSTRESS=    0.0 pullay stress

  Mass of Ions in am
   POMASS = 107.87 92.91 12.01 16.00
  Ionic Valenz
   ZVAL   =  11.00 13.00  4.00  6.00
  Atomic Wigner-Seitz radii
   RWIGS  =  -1.00 -1.00 -1.00 -1.00
  virtual crystal weights 
   VCA    =   1.00  1.00  1.00  1.00
   NELECT =     408.0000    total number of electrons
   NUPDOWN=      -1.0000    fix difference up-down

 DOS related values:
   EMIN   =  10.00;   EMAX   =-10.00  energy-range for DOS
   EFERMI =   0.00
   ISMEAR =    -5;   SIGMA  =   0.10  broadening in eV -4-tet -1-fermi 0-gaus

 Electronic relaxation 2 (details)
   IALGO  =     68    algorithm
   LDIAG  =      T    sub-space diagonalisation (order eigenvalues)
   LSUBROT=      F    optimize rotation matrix (better conditioning)
   TURBO    =      0    0=normal 1=particle mesh
   IRESTART =      0    0=no restart 2=restart with 2 vectors
   NREBOOT  =      0    no. of reboots
   NMIN     =      0    reboot dimension
   EREF     =   0.00    reference energy to select bands
   IMIX   =      4    mixing-type and parameters
     AMIX     =   0.40;   BMIX     =  1.00
     AMIX_MAG =   1.60;   BMIX_MAG =  1.00
     AMIN     =   0.10
     WC   =   100.;   INIMIX=   1;  MIXPRE=   1;  MAXMIX= -45

 Intra band minimization:
   WEIMIN = 0.0000     energy-eigenvalue tresh-hold
   EBREAK =  0.99E-08  absolut break condition
   DEPER  =   0.30     relativ break condition  

   TIME   =   0.40     timestep for ELM

  volume/ion in A,a.u.               =      39.06       263.62
  Fermi-wavevector in a.u.,A,eV,Ry     =   1.064402  2.011427 15.414729  1.132951
  Thomas-Fermi vector in A             =   2.199919
 
 Write flags
   LWAVE        =      F    write WAVECAR
   LDOWNSAMPLE  =      F    k-point downsampling of WAVECAR
   LCHARG       =      F    write CHGCAR
   LVTOT        =      F    write LOCPOT, total local potential
   LVHAR        =      F    write LOCPOT, Hartree potential only
   LELF         =      F    write electronic localiz. function (ELF)
   LORBIT       =     10    0 simple, 1 ext, 2 COOP (PROOUT), +10 PAW based schemes


 Dipole corrections
   LMONO  =      F    monopole corrections only (constant potential shift)
   LDIPOL =      F    correct potential (dipole corrections)
   IDIPOL =      0    1-x, 2-y, 3-z, 4-all directions 
   EPSILON=  1.0000000 bulk dielectric constant

 Exchange correlation treatment:
   GGA     =    --    GGA type
   LEXCH   =     8    internal setting for exchange type
   VOSKOWN=      0    Vosko Wilk Nusair interpolation
   LHFCALC =     F    Hartree Fock is set to
   LHFONE  =     F    Hartree Fock one center treatment
   AEXX    =    0.0000 exact exchange contribution

 Linear response parameters
   LEPSILON=     F    determine dielectric tensor
   LRPA    =     F    only Hartree local field effects (RPA)
   LNABLA  =     F    use nabla operator in PAW spheres
   LVEL    =     F    velocity operator in full k-point grid
   LINTERFAST=   F  fast interpolation
   KINTER  =     0    interpolate to denser k-point grid
   CSHIFT  =0.1000    complex shift for real part using Kramers Kronig
   OMEGAMAX=  -1.0    maximum frequency
   DEG_THRESHOLD= 0.2000000E-02 threshold for treating states as degnerate
   RTIME   =   -0.100 relaxation time in fs
  (WPLASMAI=    0.000 imaginary part of plasma frequency in eV, 0.658/RTIME)
   DFIELD  = 0.0000000 0.0000000 0.0000000 field for delta impulse in time
 
 Orbital magnetization related:
   ORBITALMAG=     F  switch on orbital magnetization
   LCHIMAG   =     F  perturbation theory with respect to B field
   DQ        =  0.001000  dq finite difference perturbation B field
   LLRAUG    =     F  two centre corrections for induced B field



--------------------------------------------------------------------------------------------------------


 Static calculation
 charge density and potential remain constant during run
 non-spin polarized calculation
 RMM-DIIS sequential band-by-band and
  variant of blocked Davidson during initial phase
 perform sub-space diagonalisation
    before iterative eigenvector-optimisation
 no mixing
 using additional bands           48
 real space projection scheme for non local part
 use partial core corrections
 calculate Harris-corrections to forces 
   (improved forces if not selfconsistent)
 use gradient corrections 
 WARNING: stress and forces are not correct
  (second derivative of E(xc) not defined)
 use of overlap-Matrix (Vanderbilt PP)
 Fermi weights with tetrahedron method with Bloechl corrections


--------------------------------------------------------------------------------------------------------


  energy-cutoff  :      500.00
  volume of cell :     1484.46
      direct lattice vectors                 reciprocal lattice vectors
     8.791366577  0.000000000  0.000000000     0.113747958 -0.065672414  0.000000000
     4.395683289  7.613546790  0.000000000     0.000000000  0.131344829  0.000000000
     0.000000000  0.000000000 22.178121567     0.000000000  0.000000000  0.045089481

  length of vectors
     8.791366577  8.791366577 22.178121567     0.131344829  0.131344829  0.045089481


 
 k-points in units of 2pi/SCALE and weight: Automatic mesh                          
   0.00000000  0.00000000  0.00000000       0.016
   0.01421849 -0.00820905  0.00000000       0.094
   0.02843699 -0.01641810  0.00000000       0.094
   0.04265548 -0.02462716  0.00000000       0.094
   0.05687398 -0.03283621  0.00000000       0.047
   0.02843699 -0.00000000  0.00000000       0.094
   0.04265548 -0.00820905  0.00000000       0.188
   0.05687398 -0.01641810  0.00000000       0.188
   0.05687398 -0.00000000  0.00000000       0.094
  -0.04265548  0.05746336  0.00000000       0.094
 
 k-points in reciprocal lattice and weights: Automatic mesh                          
   0.00000000  0.00000000  0.00000000       0.016
   0.12500000 -0.00000000  0.00000000       0.094
   0.25000000 -0.00000000  0.00000000       0.094
   0.37500000 -0.00000000  0.00000000       0.094
   0.50000000 -0.00000000  0.00000000       0.047
   0.25000000  0.12500000  0.00000000       0.094
   0.37500000  0.12500000  0.00000000       0.188
   0.50000000  0.12500000  0.00000000       0.188
   0.50000000  0.25000000  0.00000000       0.094
  -0.37500000  0.25000000  0.00000000       0.094
 
 position of ions in fractional coordinates (direct lattice) 
   0.00000000  0.00000000  0.23817112
   0.33333331  0.00000000  0.23817112
   0.66666663  0.00000000  0.23817112
   0.00000000  0.33333334  0.23817112
   0.33333331  0.33333334  0.23817112
   0.66666669  0.33333334  0.23817112
   0.00000000  0.66666669  0.23817112
   0.33333331  0.66666669  0.23817112
   0.66666663  0.66666669  0.23817112
   0.11111110  0.11111111  0.34605705
   0.44444445  0.11111111  0.34605705
   0.77777779  0.11111111  0.34605705
   0.11111110  0.44444445  0.34605705
   0.44444442  0.44444445  0.34605705
   0.77777779  0.44444445  0.34605705
   0.11111110  0.77777779  0.34605705
   0.44444445  0.77777779  0.34605705
   0.77777779  0.77777779  0.34605705
   0.88887493  0.22225016  0.45366011
   0.22200228  0.22200230  0.45236218
   0.55599538  0.22200230  0.45236218
   0.88858429  0.55570788  0.45405287
   0.22200230  0.55599544  0.45236218
   0.55570788  0.55570788  0.45405287
   0.88887493  0.88887493  0.45366011
   0.22225013  0.88887493  0.45366011
   0.55570782  0.88858429  0.45405287
   0.00000000  0.00000000  0.56147075
   0.33345574  0.00351900  0.56305286
   0.66302520  0.00351900  0.56305286
   0.00351900  0.33345577  0.56305286
   0.66302526  0.33345577  0.56305286
   0.00351900  0.66302526  0.56305286
   0.33345574  0.66302526  0.56305286
   0.66666663  0.66666669  0.56214021
   0.33333331  0.33333334  0.55411638
   0.33333331  0.33333334  0.64694761
   0.33333331  0.33333334  0.69987136
 
 position of ions in cartesian coordinates  (Angst):
   0.00000000  0.00000000  5.28218814
   2.93045535  0.00000000  5.28218814
   5.86091070  0.00000000  5.28218814
   1.46522781  2.53784900  5.28218814
   4.39568315  2.53784900  5.28218814
   7.32613904  2.53784900  5.28218814
   2.93045562  5.07569801  5.28218814
   5.86091096  5.07569801  5.28218814
   8.79136632  5.07569801  5.28218814
   1.46522770  0.84594965  7.67489535
   4.39568332  0.84594965  7.67489535
   7.32613893  0.84594965  7.67489535
   2.93045542  3.38379860  7.67489535
   5.86091083  3.38379860  7.67489535
   8.79136671  3.38379860  7.67489535
   4.39568328  5.92164760  7.67489535
   7.32613890  5.92164760  7.67489535
  10.25659451  5.92164760  7.67489535
   8.79136665  1.69211196 10.06132904
   2.92755521  1.69022486 10.03254343
   5.86381097  1.69022486 10.03254343
  10.25458610  4.23090798 10.07003980
   4.39568342  4.23309729 10.03254343
   7.32814758  4.23090798 10.07003980
  11.72163802  6.76749087 10.06132904
   5.86109501  6.76749087 10.06132904
   8.79136631  6.76527808 10.07003980
   0.00000000  0.00000000 12.45236662
   2.94700006  0.02679208 12.48745475
   5.84436599  0.02679208 12.48745475
   1.49670278  2.53878110 12.48745475
   7.29466406  2.53878110 12.48745475
   2.94538588  5.04797383 12.48745475
   5.84598070  5.04797383 12.48745475
   8.79136632  5.07569801 12.46721382
   4.39568315  2.53784900 12.28926033
   4.39568315  2.53784900 14.34808284
   4.39568315  2.53784900 15.52183205
 


--------------------------------------------------------------------------------------------------------


 k-point   1 :   0.0000 0.0000 0.0000  plane waves:   37683
 k-point   2 :   0.1250-0.0000 0.0000  plane waves:   37658
 k-point   3 :   0.2500-0.0000 0.0000  plane waves:   37682
 k-point   4 :   0.3750-0.0000 0.0000  plane waves:   37686
 k-point   5 :   0.5000-0.0000 0.0000  plane waves:   37668
 k-point   6 :   0.2500 0.1250 0.0000  plane waves:   37666
 k-point   7 :   0.3750 0.1250 0.0000  plane waves:   37708
 k-point   8 :   0.5000 0.1250 0.0000  plane waves:   37726
 k-point   9 :   0.5000 0.2500 0.0000  plane waves:   37706
 k-point  10 :  -0.3750 0.2500 0.0000  plane waves:   37686

 maximum and minimum number of plane-waves per node :     37726    37658

 maximum number of plane-waves:     37726
 maximum index in each direction: 
   IXMAX=   16   IYMAX=   16   IZMAX=   40
   IXMIN=  -16   IYMIN=  -16   IZMIN=  -40


 serial   3D FFT for wavefunctions
 parallel 3D FFT for charge:
    minimum data exchange during FFTs selected (reduces bandwidth)


 total amount of memory used by VASP MPI-rank0   124411. kBytes
=======================================================================

   base      :      30000. kBytes
   nonlr-proj:      15513. kBytes
   fftplans  :       4330. kBytes
   grid      :      18659. kBytes
   one-center:        590. kBytes
   wavefun   :      55319. kBytes
 
     INWAV:  cpu time    0.0000: real time    0.0000
 initial charge density was supplied:
 number of electron     407.9999905 magnetization 
 keeping initial charge density in first step


--------------------------------------------------------------------------------------------------------


 Maximum index for non-local projection operator         3053
 Maximum index for augmentation-charges          706 (set IRDMAX)


--------------------------------------------------------------------------------------------------------


 First call to EWALD:  gamma=   0.155
 Maximum number of real-space cells 4x 4x 2
 Maximum number of reciprocal cells 2x 2x 5

    FEWALD:  cpu time    0.0013: real time    0.0013


--------------------------------------- Iteration      1(   1)  ---------------------------------------


    POTLOK:  cpu time    0.0445: real time    0.0451
    SETDIJ:  cpu time    0.0048: real time    0.0050
     EDDAV:  cpu time    7.3728: real time    7.3762
 BZINTS: Fermi energy:    9.980958;  408.000000 electrons
         Band energy: 0.106219E+04;  BLOECHL correction:   -0.028399
       DOS:  cpu time    0.0101: real time    0.0102
    --------------------------------------------
      LOOP:  cpu time    7.4322: real time    7.4365

 eigenvalue-minimisations  :  5068
 total energy-change (2. order) : 0.2597205E+04  (-0.1918432E+05)
 number of electron     407.9999905 magnetization 
 augmentation part      407.9999905 magnetization 

 Free energy of the ion-electron system (eV)
  ---------------------------------------------------
  alpha Z        PSCENC =       787.36652879
  Ewald energy   TEWEN  =     96731.37048310
  -Hartree energ DENC   =   -135682.88729373
  -exchange      EXHF   =         0.00000000
  -V(xc)+E(xc)   XCENC  =      -292.60151701
  PAW double counting   =     40531.90741591   -38979.00584480
  entropy T*S    EENTRO =         0.00000000
  eigenvalues    EBANDS =      1062.18554405
  atomic energy  EATOM  =     38438.87012914
  Solvation  Ediel_sol  =         0.00000000
  ---------------------------------------------------
  free energy    TOTEN  =      2597.20544546 eV

  energy without entropy =     2597.20544546  energy(sigma->0) =     2597.20544546


--------------------------------------------------------------------------------------------------------




--------------------------------------- Iteration      1(   2)  ---------------------------------------


     EDDAV:  cpu time    7.6961: real time    7.6984
 BZINTS: Fermi energy:    1.653117;  408.000000 electrons
         Band energy:-0.153861E+04;  BLOECHL correction:   -0.035243
       DOS:  cpu time    0.0102: real time    0.0102
    --------------------------------------------
      LOOP:  cpu time    7.7063: real time    7.7086

 eigenvalue-minimisations  :  5320
 total energy-change (2. order) :-0.2600798E+04  (-0.2500359E+04)
 number of electron     407.9999905 magnetization 
 augmentation part      407.9999905 magnetization 

 Free energy of the ion-electron system (eV)
  ---------------------------------------------------
  alpha Z        PSCENC =       787.36652879
  Ewald energy   TEWEN  =     96731.37048310
  -Hartree energ DENC   =   -135682.88729373
  -exchange      EXHF   =         0.00000000
  -V(xc)+E(xc)   XCENC  =      -292.60151701
  PAW double counting   =     40531.90741591   -38979.00584480
  entropy T*S    EENTRO =         0.00000000
  eigenvalues    EBANDS =     -1538.61236746
  atomic energy  EATOM  =     38438.87012914
  Solvation  Ediel_sol  =         0.00000000
  ---------------------------------------------------
  free energy    TOTEN  =        -3.59246605 eV

  energy without entropy =       -3.59246605  energy(sigma->0) =       -3.59246605


--------------------------------------------------------------------------------------------------------




--------------------------------------- Iteration      1(   3)  ---------------------------------------


     EDDAV:  cpu time    9.3463: real time    9.3487
 BZINTS: Fermi energy:    0.884049;  408.000000 electrons
         Band energy:-0.164518E+04;  BLOECHL correction:   -0.021308
       DOS:  cpu time    0.0091: real time    0.0091
    --------------------------------------------
      LOOP:  cpu time    9.3554: real time    9.3578

 eigenvalue-minimisations  :  6748
 total energy-change (2. order) :-0.1065702E+03  (-0.1044578E+03)
 number of electron     407.9999905 magnetization 
 augmentation part      407.9999905 magnetization 

 Free energy of the ion-electron system (eV)
  ---------------------------------------------------
  alpha Z        PSCENC =       787.36652879
  Ewald energy   TEWEN  =     96731.37048310
  -Hartree energ DENC   =   -135682.88729373
  -exchange      EXHF   =         0.00000000
  -V(xc)+E(xc)   XCENC  =      -292.60151701
  PAW double counting   =     40531.90741591   -38979.00584480
  entropy T*S    EENTRO =         0.00000000
  eigenvalues    EBANDS =     -1645.18260289
  atomic energy  EATOM  =     38438.87012914
  Solvation  Ediel_sol  =         0.00000000
  ---------------------------------------------------
  free energy    TOTEN  =      -110.16270148 eV

  energy without entropy =     -110.16270148  energy(sigma->0) =     -110.16270148


--------------------------------------------------------------------------------------------------------




--------------------------------------- Iteration      1(   4)  ---------------------------------------


     EDDAV:  cpu time   10.2443: real time   10.2470
 BZINTS: Fermi energy:    0.830876;  408.000000 electrons
         Band energy:-0.164832E+04;  BLOECHL correction:   -0.028492
       DOS:  cpu time    0.0096: real time    0.0096
    --------------------------------------------
      LOOP:  cpu time   10.2539: real time   10.2566

 eigenvalue-minimisations  :  7532
 total energy-change (2. order) :-0.3133075E+01  (-0.3103679E+01)
 number of electron     407.9999905 magnetization 
 augmentation part      407.9999905 magnetization 

 Free energy of the ion-electron system (eV)
  ---------------------------------------------------
  alpha Z        PSCENC =       787.36652879
  Ewald energy   TEWEN  =     96731.37048310
  -Hartree energ DENC   =   -135682.88729373
  -exchange      EXHF   =         0.00000000
  -V(xc)+E(xc)   XCENC  =      -292.60151701
  PAW double counting   =     40531.90741591   -38979.00584480
  entropy T*S    EENTRO =         0.00000000
  eigenvalues    EBANDS =     -1648.31567754
  atomic energy  EATOM  =     38438.87012914
  Solvation  Ediel_sol  =         0.00000000
  ---------------------------------------------------
  free energy    TOTEN  =      -113.29577613 eV

  energy without entropy =     -113.29577613  energy(sigma->0) =     -113.29577613


--------------------------------------------------------------------------------------------------------




--------------------------------------- Iteration      1(   5)  ---------------------------------------


     EDDAV:  cpu time    8.5971: real time    8.5996
 BZINTS: Fermi energy:    0.827669;  408.000000 electrons
         Band energy:-0.164841E+04;  BLOECHL correction:   -0.028631
       DOS:  cpu time    0.0102: real time    0.0102
    --------------------------------------------
      LOOP:  cpu time    8.6073: real time    8.6098

 eigenvalue-minimisations  :  6132
 total energy-change (2. order) :-0.9142102E-01  (-0.9128577E-01)
 number of electron     407.9999905 magnetization 
 augmentation part      407.9999905 magnetization 

 Free energy of the ion-electron system (eV)
  ---------------------------------------------------
  alpha Z        PSCENC =       787.36652879
  Ewald energy   TEWEN  =     96731.37048310
  -Hartree energ DENC   =   -135682.88729373
  -exchange      EXHF   =         0.00000000
  -V(xc)+E(xc)   XCENC  =      -292.60151701
  PAW double counting   =     40531.90741591   -38979.00584480
  entropy T*S    EENTRO =         0.00000000
  eigenvalues    EBANDS =     -1648.40709856
  atomic energy  EATOM  =     38438.87012914
  Solvation  Ediel_sol  =         0.00000000
  ---------------------------------------------------
  free energy    TOTEN  =      -113.38719715 eV

  energy without entropy =     -113.38719715  energy(sigma->0) =     -113.38719715


--------------------------------------------------------------------------------------------------------




--------------------------------------- Iteration      1(   6)  ---------------------------------------


    EDDIAG:  cpu time    1.4484: real time    1.4488
  RMM-DIIS:  cpu time    5.9451: real time    5.9468
    ORTHCH:  cpu time    0.2611: real time    0.2611
 BZINTS: Fermi energy:    0.827622;  408.000000 electrons
         Band energy:-0.164841E+04;  BLOECHL correction:   -0.028633
       DOS:  cpu time    0.0099: real time    0.0101
    --------------------------------------------
      LOOP:  cpu time    7.6645: real time    7.6668

 eigenvalue-minimisations  :  7373
 total energy-change (2. order) :-0.1917540E-02  (-0.1916041E-02)
 number of electron     407.9999905 magnetization 
 augmentation part      407.9999905 magnetization 

 Free energy of the ion-electron system (eV)
  ---------------------------------------------------
  alpha Z        PSCENC =       787.36652879
  Ewald energy   TEWEN  =     96731.37048310
  -Hartree energ DENC   =   -135682.88729373
  -exchange      EXHF   =         0.00000000
  -V(xc)+E(xc)   XCENC  =      -292.60151701
  PAW double counting   =     40531.90741591   -38979.00584480
  entropy T*S    EENTRO =         0.00000000
  eigenvalues    EBANDS =     -1648.40901610
  atomic energy  EATOM  =     38438.87012914
  Solvation  Ediel_sol  =         0.00000000
  ---------------------------------------------------
  free energy    TOTEN  =      -113.38911469 eV

  energy without entropy =     -113.38911469  energy(sigma->0) =     -113.38911469


--------------------------------------------------------------------------------------------------------




--------------------------------------- Iteration      1(   7)  ---------------------------------------


    EDDIAG:  cpu time    1.4537: real time    1.4540
  RMM-DIIS:  cpu time    7.6460: real time    7.6482
    ORTHCH:  cpu time    0.2610: real time    0.2610
 BZINTS: Fermi energy:    0.827603;  408.000000 electrons
         Band energy:-0.164841E+04;  BLOECHL correction:   -0.028634
       DOS:  cpu time    0.0099: real time    0.0099
    --------------------------------------------
      LOOP:  cpu time    9.3706: real time    9.3731

 eigenvalue-minimisations  :  9509
 total energy-change (2. order) :-0.8425318E-03  (-0.8348170E-03)
 number of electron     407.9999905 magnetization 
 augmentation part      407.9999905 magnetization 

 Free energy of the ion-electron system (eV)
  ---------------------------------------------------
  alpha Z        PSCENC =       787.36652879
  Ewald energy   TEWEN  =     96731.37048310
  -Hartree energ DENC   =   -135682.88729373
  -exchange      EXHF   =         0.00000000
  -V(xc)+E(xc)   XCENC  =      -292.60151701
  PAW double counting   =     40531.90741591   -38979.00584480
  entropy T*S    EENTRO =         0.00000000
  eigenvalues    EBANDS =     -1648.40985863
  atomic energy  EATOM  =     38438.87012914
  Solvation  Ediel_sol  =         0.00000000
  ---------------------------------------------------
  free energy    TOTEN  =      -113.38995722 eV

  energy without entropy =     -113.38995722  energy(sigma->0) =     -113.38995722


--------------------------------------------------------------------------------------------------------




--------------------------------------- Iteration      1(   8)  ---------------------------------------


    EDDIAG:  cpu time    1.4541: real time    1.4544
  RMM-DIIS:  cpu time    7.0019: real time    7.0040
    ORTHCH:  cpu time    0.2610: real time    0.2613
 BZINTS: Fermi energy:    0.827600;  408.000000 electrons
         Band energy:-0.164841E+04;  BLOECHL correction:   -0.028634
       DOS:  cpu time    0.0101: real time    0.0101
    --------------------------------------------
      LOOP:  cpu time    8.7271: real time    8.7298

 eigenvalue-minimisations  :  8419
 total energy-change (2. order) :-0.2383662E-03  (-0.2238926E-03)
 number of electron     407.9999905 magnetization 
 augmentation part      407.9999905 magnetization 

 Free energy of the ion-electron system (eV)
  ---------------------------------------------------
  alpha Z        PSCENC =       787.36652879
  Ewald energy   TEWEN  =     96731.37048310
  -Hartree energ DENC   =   -135682.88729373
  -exchange      EXHF   =         0.00000000
  -V(xc)+E(xc)   XCENC  =      -292.60151701
  PAW double counting   =     40531.90741591   -38979.00584480
  entropy T*S    EENTRO =         0.00000000
  eigenvalues    EBANDS =     -1648.41009700
  atomic energy  EATOM  =     38438.87012914
  Solvation  Ediel_sol  =         0.00000000
  ---------------------------------------------------
  free energy    TOTEN  =      -113.39019559 eV

  energy without entropy =     -113.39019559  energy(sigma->0) =     -113.39019559


--------------------------------------------------------------------------------------------------------




--------------------------------------- Iteration      1(   9)  ---------------------------------------


    EDDIAG:  cpu time    1.4514: real time    1.4550
  RMM-DIIS:  cpu time    5.9579: real time    5.9597
    ORTHCH:  cpu time    0.2610: real time    0.2610
 BZINTS: Fermi energy:    0.827599;  408.000000 electrons
         Band energy:-0.164841E+04;  BLOECHL correction:   -0.028634
       DOS:  cpu time    0.0097: real time    0.0097
    --------------------------------------------
      LOOP:  cpu time    7.6800: real time    7.6853

 eigenvalue-minimisations  :  7071
 total energy-change (2. order) :-0.7914857E-04  (-0.7840321E-04)
 number of electron     407.9999905 magnetization 
 augmentation part      407.9999905 magnetization 

 Free energy of the ion-electron system (eV)
  ---------------------------------------------------
  alpha Z        PSCENC =       787.36652879
  Ewald energy   TEWEN  =     96731.37048310
  -Hartree energ DENC   =   -135682.88729373
  -exchange      EXHF   =         0.00000000
  -V(xc)+E(xc)   XCENC  =      -292.60151701
  PAW double counting   =     40531.90741591   -38979.00584480
  entropy T*S    EENTRO =         0.00000000
  eigenvalues    EBANDS =     -1648.41017615
  atomic energy  EATOM  =     38438.87012914
  Solvation  Ediel_sol  =         0.00000000
  ---------------------------------------------------
  free energy    TOTEN  =      -113.39027474 eV

  energy without entropy =     -113.39027474  energy(sigma->0) =     -113.39027474


--------------------------------------------------------------------------------------------------------




--------------------------------------- Iteration      1(  10)  ---------------------------------------


    EDDIAG:  cpu time    1.4543: real time    1.4551
  RMM-DIIS:  cpu time    5.4005: real time    5.4020
    ORTHCH:  cpu time    0.2615: real time    0.2615
 BZINTS: Fermi energy:    0.827598;  408.000000 electrons
         Band energy:-0.164841E+04;  BLOECHL correction:   -0.028634
       DOS:  cpu time    0.0099: real time    0.0099
    --------------------------------------------
      LOOP:  cpu time    7.1262: real time    7.1284

 eigenvalue-minimisations  :  6292
 total energy-change (2. order) :-0.3895487E-04  (-0.3786645E-04)
 number of electron     407.9999905 magnetization 
 augmentation part      407.9999905 magnetization 

 Free energy of the ion-electron system (eV)
  ---------------------------------------------------
  alpha Z        PSCENC =       787.36652879
  Ewald energy   TEWEN  =     96731.37048310
  -Hartree energ DENC   =   -135682.88729373
  -exchange      EXHF   =         0.00000000
  -V(xc)+E(xc)   XCENC  =      -292.60151701
  PAW double counting   =     40531.90741591   -38979.00584480
  entropy T*S    EENTRO =         0.00000000
  eigenvalues    EBANDS =     -1648.41021510
  atomic energy  EATOM  =     38438.87012914
  Solvation  Ediel_sol  =         0.00000000
  ---------------------------------------------------
  free energy    TOTEN  =      -113.39031369 eV

  energy without entropy =     -113.39031369  energy(sigma->0) =     -113.39031369


--------------------------------------------------------------------------------------------------------




--------------------------------------- Iteration      1(  11)  ---------------------------------------


    EDDIAG:  cpu time    1.4542: real time    1.4548
  RMM-DIIS:  cpu time    5.0870: real time    5.0884
    ORTHCH:  cpu time    0.2616: real time    0.2616
 BZINTS: Fermi energy:    0.827597;  408.000000 electrons
         Band energy:-0.164841E+04;  BLOECHL correction:   -0.028634
       DOS:  cpu time    0.0101: real time    0.0101
    --------------------------------------------
      LOOP:  cpu time    6.8129: real time    6.8149

 eigenvalue-minimisations  :  5742
 total energy-change (2. order) :-0.1813821E-04  (-0.1876051E-04)
 number of electron     407.9999905 magnetization 
 augmentation part      407.9999905 magnetization 

 Free energy of the ion-electron system (eV)
  ---------------------------------------------------
  alpha Z        PSCENC =       787.36652879
  Ewald energy   TEWEN  =     96731.37048310
  -Hartree energ DENC   =   -135682.88729373
  -exchange      EXHF   =         0.00000000
  -V(xc)+E(xc)   XCENC  =      -292.60151701
  PAW double counting   =     40531.90741591   -38979.00584480
  entropy T*S    EENTRO =         0.00000000
  eigenvalues    EBANDS =     -1648.41023324
  atomic energy  EATOM  =     38438.87012914
  Solvation  Ediel_sol  =         0.00000000
  ---------------------------------------------------
  free energy    TOTEN  =      -113.39033183 eV

  energy without entropy =     -113.39033183  energy(sigma->0) =     -113.39033183


--------------------------------------------------------------------------------------------------------




--------------------------------------- Iteration      1(  12)  ---------------------------------------


    EDDIAG:  cpu time    1.4583: real time    1.4588
WARNING in EDDRMM: call to ZHEGV failed, returncode =   6  3      6
  RMM-DIIS:  cpu time    4.3767: real time    4.3779
    ORTHCH:  cpu time    0.2615: real time    0.2615
 BZINTS: Fermi energy:    0.827597;  408.000000 electrons
         Band energy:-0.164841E+04;  BLOECHL correction:   -0.028634
       DOS:  cpu time    0.0093: real time    0.0093
    --------------------------------------------
      LOOP:  cpu time    6.1058: real time    6.1075

 eigenvalue-minimisations  :  5026
 total energy-change (2. order) :-0.9144918E-05  (-0.9393240E-05)
 number of electron     407.9999905 magnetization 
 augmentation part      407.9999905 magnetization 

 Free energy of the ion-electron system (eV)
  ---------------------------------------------------
  alpha Z        PSCENC =       787.36652879
  Ewald energy   TEWEN  =     96731.37048310
  -Hartree energ DENC   =   -135682.88729373
  -exchange      EXHF   =         0.00000000
  -V(xc)+E(xc)   XCENC  =      -292.60151701
  PAW double counting   =     40531.90741591   -38979.00584480
  entropy T*S    EENTRO =         0.00000000
  eigenvalues    EBANDS =     -1648.41024238
  atomic energy  EATOM  =     38438.87012914
  Solvation  Ediel_sol  =         0.00000000
  ---------------------------------------------------
  free energy    TOTEN  =      -113.39034098 eV

  energy without entropy =     -113.39034098  energy(sigma->0) =     -113.39034098


--------------------------------------------------------------------------------------------------------




 average (electrostatic) potential at core
  the test charge radii are     1.1249  1.0703  0.6991  0.7215
  (the norm of the test charge is              1.0000)
       1 -78.0679       2 -78.0572       3 -78.0571       4 -78.0572       5 -78.0401
       6 -78.0569       7 -78.0571       8 -78.0569       9 -78.0671      10 -78.3065
      11 -78.2828      12 -78.3062      13 -78.2827      14 -78.2824      15 -78.2837
      16 -78.3062      17 -78.2837      18 -78.2838      19 -78.2908      20 -78.4603
      21 -78.4599      22 -78.2548      23 -78.4599      24 -78.2544      25 -78.2908
      26 -78.2908      27 -78.2548      28 -78.0892      29 -78.1212      30 -78.1211
      31 -78.1212      32 -78.1208      33 -78.1211      34 -78.1208      35 -78.0675
      36 -88.0924      37 -55.4225      38 -76.3491
 
 
 
 E-fermi :   0.8276     XC(G=0):  -6.0600     alpha+bet : -5.7635

 Fermi energy:         0.8275968937

 k-point     1 :       0.0000    0.0000    0.0000
  band No.  band energies     occupation 
      1     -54.2421      2.00000
      2     -30.4136      2.00000
      3     -30.4136      2.00000
      4     -30.1564      2.00000
      5     -22.0232      2.00000
      6      -7.7218      2.00000
      7      -6.2966      2.00000
      8      -5.4637      2.00000
      9      -5.1914      2.00000
     10      -5.1215      2.00000
     11      -5.0442      2.00000
     12      -5.0442      2.00000
     13      -5.0239      2.00000
     14      -5.0239      2.00000
     15      -5.0170      2.00000
     16      -5.0041      2.00000
     17      -4.9948      2.00000
     18      -4.9777      2.00000
     19      -4.9777      2.00000
     20      -4.9735      2.00000
     21      -4.9691      2.00000
     22      -4.9691      2.00000
     23      -4.9565      2.00000
     24      -4.9565      2.00000
     25      -4.8597      2.00000
     26      -4.8186      2.00000
     27      -4.8185      2.00000
     28      -4.8054      2.00000
     29      -4.7942      2.00000
     30      -4.7942      2.00000
     31      -4.7313      2.00000
     32      -4.6494      2.00000
     33      -4.6246      2.00000
     34      -4.6246      2.00000
     35      -4.6089      2.00000
     36      -4.6088      2.00000
     37      -4.5991      2.00000
     38      -4.5978      2.00000
     39      -4.5728      2.00000
     40      -4.5621      2.00000
     41      -4.5621      2.00000
     42      -4.5553      2.00000
     43      -4.5553      2.00000
     44      -4.4937      2.00000
     45      -4.4768      2.00000
     46      -4.4768      2.00000
     47      -4.4216      2.00000
     48      -4.4216      2.00000
     49      -4.3846      2.00000
     50      -4.2364      2.00000
     51      -4.2364      2.00000
     52      -4.2196      2.00000
     53      -4.2196      2.00000
     54      -4.2100      2.00000
     55      -4.2088      2.00000
     56      -4.2087      2.00000
     57      -4.1927      2.00000
     58      -4.1886      2.00000
     59      -4.1886      2.00000
     60      -4.0634      2.00000
     61      -4.0631      2.00000
     62      -4.0249      2.00000
     63      -4.0192      2.00000
     64      -3.8778      2.00000
     65      -3.8636      2.00000
     66      -3.8636      2.00000
     67      -3.8459      2.00000
     68      -3.8459      2.00000
     69      -3.8451      2.00000
     70      -3.8329      2.00000
     71      -3.8156      2.00000
     72      -3.8156      2.00000
     73      -3.7774      2.00000
     74      -3.7774      2.00000
     75      -3.6852      2.00000
     76      -3.6852      2.00000
     77      -3.6770      2.00000
     78      -3.6770      2.00000
     79      -3.6752      2.00000
     80      -3.6681      2.00000
     81      -3.6633      2.00000
     82      -3.6633      2.00000
     83      -3.6393      2.00000
     84      -3.6393      2.00000
     85      -3.6225      2.00000
     86      -3.6068      2.00000
     87      -3.6067      2.00000
     88      -3.5988      2.00000
     89      -3.5718      2.00000
     90      -3.5717      2.00000
     91      -3.5582      2.00000
     92      -3.5381      2.00000
     93      -3.5381      2.00000
     94      -3.4977      2.00000
     95      -3.4977      2.00000
     96      -3.4530      2.00000
     97      -3.4448      2.00000
     98      -3.4448      2.00000
     99      -3.4342      2.00000
    100      -3.4341      2.00000
    101      -3.3624      2.00000
    102      -3.3624      2.00000
    103      -3.3577      2.00000
    104      -3.3577      2.00000
    105      -3.3539      2.00000
    106      -3.3358      2.00000
    107      -3.3358      2.00000
    108      -3.1546      2.00000
    109      -3.1546      2.00000
    110      -3.1378      2.00000
    111      -3.1209      2.00000
    112      -3.1209      2.00000
    113      -3.1098      2.00000
    114      -3.1097      2.00000
    115      -3.0894      2.00000
    116      -3.0712      2.00000
    117      -3.0491      2.00000
    118      -3.0491      2.00000
    119      -3.0183      2.00000
    120      -3.0008      2.00000
    121      -2.9768      2.00000
    122      -2.9768      2.00000
    123      -2.8962      2.00000
    124      -2.8868      2.00000
    125      -2.8868      2.00000
    126      -2.8464      2.00000
    127      -2.8464      2.00000
    128      -2.8325      2.00000
    129      -2.8325      2.00000
    130      -2.7784      2.00000
    131      -2.7784      2.00000
[...]
  0.000   0.000   0.000   0.000   0.000   0.000   0.000   0.000   0.000   0.000   0.000   0.000   0.000   0.000   0.000   0.000
  0.000   0.000   0.000   0.000   0.000   0.000   0.000   0.000   0.000   0.000   0.000   0.000   0.000   0.000   0.000   0.000
  0.000   0.000   0.000   0.000   0.000   0.000   0.000   0.000   0.000   0.000   1.000   0.000   0.000   0.000   0.000   0.000
  0.000   0.000   0.000   0.000   0.000   0.000   0.000   0.000   0.000   0.000   0.000   0.000   0.000   0.000   0.000   0.000
  0.000   0.000   0.000   0.000   0.000   0.000   0.000   0.000   0.000   0.000   0.000   0.000   0.000   0.000   0.000   0.000
  0.000   0.000   0.000   0.000   0.000   0.000   0.000   0.000   0.000   0.000   0.000   0.000   0.000   0.000   0.000   0.000
  0.000   0.000   0.000   0.000   0.000   0.000   0.000   0.000   0.000   0.000   0.000   0.000   0.000   0.000   0.000   0.000
  0.000   0.000   0.000   0.000   0.000   0.000   0.000   0.000   0.000   0.000   0.000   0.000   0.000   0.000   0.000   0.000
  0.000   0.000   0.000   0.000   0.000   0.000   0.000   0.000   0.000   0.000   0.000   0.000   0.000   0.000   0.000   0.000
  0.000   0.000   0.000   0.000   0.000   0.000   0.000   0.000   0.000   0.000   0.000   0.000   0.000   0.000   0.000   0.000


------------------------ aborting loop because EDIFF is reached ----------------------------------------





 total charge

# of ion       s       p       d       tot
------------------------------------------
    1        0.419   0.199   9.179   9.797
    2        0.414   0.203   9.178   9.795
    3        0.414   0.203   9.178   9.795
    4        0.414   0.203   9.178   9.795
    5        0.424   0.201   9.174   9.799
    6        0.414   0.203   9.178   9.795
    7        0.414   0.203   9.178   9.795
    8        0.414   0.203   9.178   9.795
    9        0.415   0.201   9.180   9.796
   10        0.411   0.269   9.161   9.840
   11        0.409   0.265   9.169   9.844
   12        0.411   0.269   9.161   9.840
   13        0.409   0.265   9.169   9.844
   14        0.409   0.265   9.169   9.844
   15        0.403   0.268   9.163   9.834
   16        0.411   0.269   9.161   9.840
   17        0.403   0.268   9.163   9.834
   18        0.403   0.268   9.163   9.834
   19        0.402   0.263   9.166   9.831
   20        0.445   0.297   9.137   9.879
   21        0.445   0.297   9.137   9.879
   22        0.392   0.271   9.167   9.829
   23        0.445   0.297   9.137   9.879
   24        0.392   0.271   9.167   9.829
   25        0.402   0.263   9.166   9.831
   26        0.402   0.263   9.166   9.831
   27        0.392   0.271   9.167   9.829
   28        0.405   0.200   9.177   9.782
   29        0.441   0.215   9.155   9.810
   30        0.441   0.215   9.155   9.810
   31        0.441   0.215   9.155   9.810
   32        0.441   0.215   9.155   9.810
   33        0.441   0.215   9.155   9.810
   34        0.441   0.215   9.155   9.810
   35        0.405   0.200   9.179   9.784
   36        2.179   5.991   2.421  10.591
   37        0.966   1.535   0.000   2.501
   38        1.612   3.528   0.000   5.139
--------------------------------------------------
tot         19.337  19.460 323.195 361.991
 
    CHARGE:  cpu time    0.3421: real time    0.3424
    FORLOC:  cpu time    0.0110: real time    0.0110
    FORNL :  cpu time    1.4843: real time    1.4848
    STRESS:  cpu time    4.4434: real time    4.4450
    FORCOR:  cpu time    0.0462: real time    0.0462
    FORHAR:  cpu time    0.0176: real time    0.0177
    OFIELD:  cpu time    0.0002: real time    0.0002

  FORCE on cell =-STRESS in cart. coord.  units (eV):
  Direction    XX          YY          ZZ          XY          YZ          ZX
  --------------------------------------------------------------------------------------
  Alpha Z   787.36653   787.36653   787.36653
  Ewald  119765.96453119765.96470************     0.00006     0.00001     0.00005
  Hartree130388.63875130388.63881************     0.00003     0.00001     0.00002
  E(xc)   -2132.57243 -2132.57248 -2136.94032     0.00005     0.00000     0.00000
  Local  ************************261129.55118     0.00050    -0.00007    -0.00019
  n-local  -351.93261  -335.87281  -350.70095     9.95253    -0.44526     0.60868
  augment  3243.29387  3243.29410  3258.72973    -0.00019    -0.00002    -0.00000
  Kinetic  5199.67208  5203.88325  5222.01333     3.82763     0.37086     0.31557
  Fock        0.00000     0.00000     0.00000     0.00000     0.00000     0.00000
  -------------------------------------------------------------------------------------
  Total      -8.35706    -8.35706    -0.12488    -0.00000     0.00000     0.00000
  in kB      -9.01977    -9.01977    -0.13478    -0.00000     0.00000     0.00000
  external pressure =       -6.06 kB  Pullay stress =        0.00 kB


 VOLUME and BASIS-vectors are now :
 -----------------------------------------------------------------------------
  energy-cutoff  :      500.00
  volume of cell :     1484.46
      direct lattice vectors                 reciprocal lattice vectors
     8.791366577  0.000000000  0.000000000     0.113747958 -0.065672414  0.000000000
     4.395683289  7.613546790  0.000000000     0.000000000  0.131344829  0.000000000
     0.000000000  0.000000000 22.178121567     0.000000000  0.000000000  0.045089481

  length of vectors
     8.791366577  8.791366577 22.178121567     0.131344829  0.131344829  0.045089481


 FORCES acting on ions
    electron-ion (+dipol)            ewald-force                    non-local-force                 convergence-correction
 -----------------------------------------------------------------------------------------------
   0.459E-04 -.283E-04 0.253E+04   -.954E-04 0.593E-04 -.253E+04   -.811E-18 -.172E-17 -.201E+01   -.129E-03 -.181E-03 0.244E+00
   0.303E+00 0.957E+00 0.253E+04   -.381E+00 -.107E+01 -.253E+04   0.125E+00 0.217E+00 -.155E+01   -.451E-01 -.105E+00 0.331E+00
   -.303E+00 0.957E+00 0.253E+04   0.381E+00 -.107E+01 -.253E+04   -.125E+00 0.217E+00 -.155E+01   0.446E-01 -.103E+00 0.331E+00
   0.980E+00 -.216E+00 0.253E+04   -.111E+01 0.203E+00 -.253E+04   0.251E+00 -.447E-03 -.155E+01   -.113E+00 0.135E-01 0.331E+00
   -.561E-05 -.190E-04 0.253E+04   0.980E-04 -.199E-05 -.253E+04   0.466E-17 0.584E-18 -.925E+00   0.630E-02 0.385E-02 0.527E+00
   -.980E+00 -.216E+00 0.253E+04   0.111E+01 0.203E+00 -.253E+04   -.251E+00 -.447E-03 -.155E+01   0.112E+00 0.145E-01 0.331E+00
   0.677E+00 -.741E+00 0.253E+04   -.734E+00 0.864E+00 -.253E+04   0.126E+00 -.217E+00 -.155E+01   -.663E-01 0.905E-01 0.331E+00
   -.677E+00 -.741E+00 0.253E+04   0.734E+00 0.864E+00 -.253E+04   -.126E+00 -.217E+00 -.155E+01   0.680E-01 0.895E-01 0.332E+00
   0.367E-04 -.128E-04 0.253E+04   0.792E-04 -.643E-04 -.253E+04   -.409E-18 -.180E-17 -.182E+01   -.670E-02 -.346E-02 0.288E+00
   0.626E+01 0.361E+01 0.905E+03   -.584E+01 -.337E+01 -.904E+03   -.383E+00 -.221E+00 -.738E+00   -.670E-01 -.386E-01 0.975E-01
   -.286E-04 0.100E+02 0.913E+03   0.411E-04 -.100E+02 -.913E+03   0.938E-12 0.143E+00 -.769E-01   0.640E-02 -.148E+00 0.815E-01
   -.626E+01 0.361E+01 0.905E+03   0.584E+01 -.337E+01 -.904E+03   0.383E+00 -.221E+00 -.738E+00   0.651E-01 -.371E-01 0.981E-01
   0.867E+01 -.501E+01 0.913E+03   -.869E+01 0.502E+01 -.913E+03   0.124E+00 -.714E-01 -.769E-01   -.125E+00 0.798E-01 0.815E-01
   -.867E+01 -.501E+01 0.913E+03   0.869E+01 0.502E+01 -.913E+03   -.124E+00 -.714E-01 -.769E-01   0.136E+00 0.790E-01 0.816E-01
   0.160E-04 -.260E+01 0.900E+03   -.109E-03 0.242E+01 -.899E+03   0.711E-12 0.108E+00 -.751E+00   -.203E-02 0.496E-01 0.906E-01
   -.786E-05 -.723E+01 0.905E+03   0.207E-04 0.674E+01 -.904E+03   0.290E-11 0.442E+00 -.738E+00   0.335E-03 0.748E-01 0.981E-01
   -.225E+01 0.130E+01 0.900E+03   0.209E+01 -.121E+01 -.899E+03   0.938E-01 -.542E-01 -.751E+00   0.419E-01 -.266E-01 0.906E-01
   0.225E+01 0.130E+01 0.900E+03   -.209E+01 -.121E+01 -.899E+03   -.938E-01 -.542E-01 -.751E+00   -.421E-01 -.243E-01 0.911E-01
   0.403E-04 0.429E+00 -.763E+03   -.132E-03 -.412E+00 0.762E+03   0.591E-12 0.899E-01 0.896E+00   -.190E-02 -.966E-01 -.920E-01
   0.449E+02 0.259E+02 -.691E+03   -.433E+02 -.250E+02 0.692E+03   -.135E+01 -.780E+00 -.122E+01   -.367E+00 -.212E+00 -.265E+00
   -.449E+02 0.259E+02 -.691E+03   0.433E+02 -.250E+02 0.692E+03   0.135E+01 -.780E+00 -.122E+01   0.378E+00 -.211E+00 -.265E+00
   0.190E+02 -.110E+02 -.756E+03   -.191E+02 0.110E+02 0.756E+03   0.248E+00 -.143E+00 0.323E+00   -.131E+00 0.758E-01 -.220E+00
   -.578E-04 -.518E+02 -.691E+03   0.498E-04 0.500E+02 0.692E+03   0.102E-10 0.156E+01 -.122E+01   0.682E-02 0.433E+00 -.265E+00
   -.190E+02 -.110E+02 -.756E+03   0.191E+02 0.110E+02 0.756E+03   -.248E+00 -.143E+00 0.323E+00   0.129E+00 0.747E-01 -.220E+00
   -.371E+00 -.214E+00 -.763E+03   0.356E+00 0.206E+00 0.762E+03   -.779E-01 -.450E-01 0.896E+00   0.847E-01 0.487E-01 -.924E-01
   0.371E+00 -.214E+00 -.763E+03   -.356E+00 0.206E+00 0.762E+03   0.779E-01 -.450E-01 0.896E+00   -.849E-01 0.465E-01 -.920E-01
   0.215E-04 0.220E+02 -.756E+03   0.109E-03 -.221E+02 0.756E+03   0.188E-11 0.286E+00 0.323E+00   -.464E-03 -.151E+00 -.220E+00
   0.550E-04 -.356E-04 -.242E+04   -.118E-03 0.787E-04 0.242E+04   -.261E-17 0.795E-19 0.189E+01   -.163E-03 -.233E-03 -.270E+00
   0.525E+02 0.855E+02 -.241E+04   -.514E+02 -.839E+02 0.241E+04   -.970E+00 -.150E+01 0.117E+01   -.117E+00 -.125E+00 -.261E+00
   -.525E+02 0.855E+02 -.241E+04   0.514E+02 -.839E+02 0.241E+04   0.970E+00 -.150E+01 0.117E+01   0.117E+00 -.123E+00 -.261E+00
   0.100E+03 0.270E+01 -.241E+04   -.984E+02 -.257E+01 0.241E+04   -.178E+01 -.906E-01 0.117E+01   -.166E+00 -.386E-01 -.261E+00
   -.100E+03 0.270E+01 -.241E+04   0.984E+02 -.257E+01 0.241E+04   0.178E+01 -.906E-01 0.117E+01   0.165E+00 -.378E-01 -.261E+00
   0.478E+02 -.882E+02 -.241E+04   -.470E+02 0.865E+02 0.241E+04   -.813E+00 0.159E+01 0.117E+01   -.476E-01 0.163E+00 -.261E+00
   -.478E+02 -.882E+02 -.241E+04   0.470E+02 0.865E+02 0.241E+04   0.813E+00 0.159E+01 0.117E+01   0.492E-01 0.161E+00 -.261E+00
   0.190E-04 -.886E-05 -.243E+04   0.107E-03 -.674E-04 0.243E+04   -.382E-17 0.521E-17 0.206E+01   -.681E-02 -.351E-02 -.221E+00
   0.259E-03 -.154E-03 -.255E+04   0.123E-03 0.141E-04 0.256E+04   0.171E-19 0.498E-18 -.265E+01   0.771E-02 0.470E-02 -.132E+00
   0.126E-04 -.797E-04 -.881E+03   0.144E-04 0.145E-06 0.863E+03   -.966E-18 -.287E-19 0.176E+02   0.129E-02 0.788E-03 -.259E-01
   0.239E-03 -.937E-04 -.150E+04   0.745E-05 0.711E-08 0.155E+04   -.424E-18 -.460E-18 -.576E+02   0.375E-02 0.230E-02 0.742E-01
 -----------------------------------------------------------------------------------------------
   0.895E-03 -.990E-03 0.506E+02   -.692E-13 0.481E-13 -.273E-11   0.328E-15 0.449E-15 -.504E+02   0.315E-01 0.217E-01 -.142E-01
 
 
 POSITION                                       TOTAL-FORCE (eV/Angst)
 -----------------------------------------------------------------------------------
      0.00000      0.00000      5.28219         0.000000     -0.000000     -0.052267
      2.93046      0.00000      5.28219         0.002315      0.003596      0.019360
      5.86091      0.00000      5.28219        -0.002315      0.003596      0.019360
      1.46523      2.53785      5.28219         0.004272      0.000206      0.019360
      4.39568      2.53785      5.28219         0.000000     -0.000000     -0.029745
      7.32614      2.53785      5.28219        -0.004272      0.000206      0.019360
      2.93046      5.07570      5.28219         0.001957     -0.003803      0.019360
      5.86091      5.07570      5.28219        -0.001957     -0.003803      0.019360
      8.79137      5.07570      5.28219         0.000000     -0.000000     -0.005254
      1.46523      0.84595      7.67490        -0.026827     -0.015489     -0.049253
      4.39568      0.84595      7.67490        -0.000000     -0.032121     -0.055147
      7.32614      0.84595      7.67490         0.026827     -0.015489     -0.049253
      2.93046      3.38380      7.67490        -0.027818      0.016061     -0.055147
      5.86091      3.38380      7.67490         0.027818      0.016061     -0.055147
      8.79137      3.38380      7.67490        -0.000000     -0.022072      0.011897
      4.39568      5.92165      7.67490         0.000000      0.030978     -0.049253
      7.32614      5.92165      7.67490        -0.019115      0.011036      0.011897
     10.25659      5.92165      7.67490         0.019115      0.011036      0.011897
      8.79137      1.69211     10.06133         0.000000      0.009933      0.045971
      2.92756      1.69022     10.03254        -0.126142     -0.072828     -0.128603
      5.86381      1.69022     10.03254         0.126142     -0.072828     -0.128603
     10.25459      4.23091     10.07004         0.017209     -0.009936      0.021494
      4.39568      4.23310     10.03254         0.000000      0.145656     -0.128603
      7.32815      4.23091     10.07004        -0.017209     -0.009936      0.021494
     11.72164      6.76749     10.06133        -0.008602     -0.004967      0.045971
      5.86110      6.76749     10.06133         0.008602     -0.004967      0.045971
      8.79137      6.76528     10.07004         0.000000      0.019871      0.021494
      0.00000      0.00000     12.45237         0.000000     -0.000000     -0.010381
      2.94700      0.02679     12.48745        -0.005534     -0.014437      0.024680
      5.84437      0.02679     12.48745         0.005534     -0.014437      0.024680
      1.49670      2.53878     12.48745        -0.015270      0.002425      0.024680
      7.29466      2.53878     12.48745         0.015270      0.002425      0.024680
      2.94539      5.04797     12.48745        -0.009735      0.012011      0.024680
      5.84598      5.04797     12.48745         0.009735      0.012011      0.024680
      8.79137      5.07570     12.46721         0.000000      0.000000     -0.014665
      4.39568      2.53785     12.28926         0.000000     -0.000000      0.374826
      4.39568      2.53785     14.34808         0.000000     -0.000000     -0.068757
      4.39568      2.53785     15.52183         0.000000     -0.000000      0.002922
 -----------------------------------------------------------------------------------
    total drift:                                0.032349      0.020723      0.154142


--------------------------------------------------------------------------------------------------------



  FREE ENERGIE OF THE ION-ELECTRON SYSTEM (eV)
  ---------------------------------------------------
  free  energy   TOTEN  =      -113.39034098 eV

  energy  without entropy=     -113.39034098  energy(sigma->0) =     -113.39034098
 


--------------------------------------------------------------------------------------------------------


    POTLOK:  cpu time    0.0456: real time    0.0456


--------------------------------------------------------------------------------------------------------


 stress matrix after NEB project (eV)
     -8.35706     -0.00000      0.00000
     -0.00000     -8.35706     -0.00000
      0.00000      0.00000     -0.12488
  FORCES: max atom, RMS     0.068757    0.011164
  FORCE total and by dimension    0.068819    0.068757
  Stress total and by dimension   11.819321    8.357056
     LOOP+:  cpu time  103.2802: real time  103.3206
 -----------------------------------------------------------------------------
|                                                                             |
|           W    W    AA    RRRRR   N    N  II  N    N   GGGG   !!!           |
|           W    W   A  A   R    R  NN   N  II  NN   N  G    G  !!!           |
|           W    W  A    A  R    R  N N  N  II  N N  N  G       !!!           |
|           W WW W  AAAAAA  RRRRR   N  N N  II  N  N N  G  GGG   !            |
|           WW  WW  A    A  R   R   N   NN  II  N   NN  G    G                |
|           W    W  A    A  R    R  N    N  II  N    N   GGGG   !!!           |
|                                                                             |
|     Tetrahedron method does not include variations of the Fermi             |
|     occupations, so forces and stress will be inaccurate. We suggest        |
|     using a different smearing scheme ISMEAR = 1 or 2 for metals in         |
|     relaxations.                                                            |
|                                                                             |
 -----------------------------------------------------------------------------

    4ORBIT:  cpu time    0.0000: real time    0.0000



 total charge

# of ion       s       p       d       tot
------------------------------------------
    1        0.419   0.199   9.179   9.797
    2        0.414   0.203   9.178   9.795
    3        0.414   0.203   9.178   9.795
    4        0.414   0.203   9.178   9.795
    5        0.424   0.201   9.174   9.799
    6        0.414   0.203   9.178   9.795
    7        0.414   0.203   9.178   9.795
    8        0.414   0.203   9.178   9.795
    9        0.415   0.201   9.180   9.796
   10        0.411   0.269   9.161   9.840
   11        0.409   0.265   9.169   9.844
   12        0.411   0.269   9.161   9.840
   13        0.409   0.265   9.169   9.844
   14        0.409   0.265   9.169   9.844
   15        0.403   0.268   9.163   9.834
   16        0.411   0.269   9.161   9.840
   17        0.403   0.268   9.163   9.834
   18        0.403   0.268   9.163   9.834
   19        0.402   0.263   9.166   9.831
   20        0.445   0.297   9.137   9.879
   21        0.445   0.297   9.137   9.879
   22        0.392   0.271   9.167   9.829
   23        0.445   0.297   9.137   9.879
   24        0.392   0.271   9.167   9.829
   25        0.402   0.263   9.166   9.831
   26        0.402   0.263   9.166   9.831
   27        0.392   0.271   9.167   9.829
   28        0.405   0.200   9.177   9.782
   29        0.441   0.215   9.155   9.810
   30        0.441   0.215   9.155   9.810
   31        0.441   0.215   9.155   9.810
   32        0.441   0.215   9.155   9.810
   33        0.441   0.215   9.155   9.810
   34        0.441   0.215   9.155   9.810
   35        0.405   0.200   9.179   9.784
   36        2.179   5.991   2.421  10.591
   37        0.966   1.535   0.000   2.501
   38        1.612   3.528   0.000   5.139
--------------------------------------------------
tot         19.337  19.460 323.195 361.991
 
 BZINTS: Fermi energy:    0.827597;  408.000000 electrons
         Band energy:-0.164841E+04;  BLOECHL correction:   -0.028634

 total amount of memory used by VASP MPI-rank0   124411. kBytes
=======================================================================

   base      :      30000. kBytes
   nonlr-proj:      15513. kBytes
   fftplans  :       4330. kBytes
   grid      :      18659. kBytes
   one-center:        590. kBytes
   wavefun   :      55319. kBytes
 
  
  
 General timing and accounting informations for this job:
 ========================================================
  
                  Total CPU time used (sec):      110.641
                            User time (sec):      107.199
                          System time (sec):        3.441
                         Elapsed time (sec):      111.077
  
                   Maximum memory used (kb):      383056.
                   Average memory used (kb):          N/A
  
                          Minor page faults:        91681
                          Major page faults:            0
                 Voluntary context switches:         5037
