PROCAR new format
# of k-points:   10         # of bands:  252         # of ions:   38

 k-point     1 :    0.00000000 0.00000000 0.00000000     weight = 0.01562500

band     1 # energy  -54.24210507 # occ.  2.00000000
 
ion      s      p      d    tot
    1  0.000  0.000  0.000  0.000
    2  0.000  0.000  0.000  0.000
    3  0.000  0.000  0.000  0.000
    4  0.000  0.000  0.000  0.000
    5  0.000  0.000  0.000  0.000
    6  0.000  0.000  0.000  0.000
    7  0.000  0.000  0.000  0.000
    8  0.000  0.000  0.000  0.000
    9  0.000  0.000  0.000  0.000
   10  0.000  0.000  0.000  0.000
   11  0.000  0.000  0.000  0.000
   12  0.000  0.000  0.000  0.000
   13  0.000  0.000  0.000  0.000
   14  0.000  0.000  0.000  0.000
   15  0.000  0.000  0.000  0.000
   16  0.000  0.000  0.000  0.000
   17  0.000  0.000  0.000  0.000
   18  0.000  0.000  0.000  0.000
   19  0.000  0.000  0.000  0.000
   20  0.000  0.000  0.000  0.000
   21  0.000  0.000  0.000  0.000
   22  0.000  0.000  0.000  0.000
   23  0.000  0.000  0.000  0.000
   24  0.000  0.000  0.000  0.000
   25  0.000  0.000  0.000  0.000
   26  0.000  0.000  0.000  0.000
   27  0.000  0.000  0.000  0.000
   28  0.000  0.000  0.000  0.000
   29  0.000  0.000  0.000  0.000
   30  0.000  0.000  0.000  0.000
   31  0.000  0.000  0.000  0.000
   32  0.000  0.000  0.000  0.000
   33  0.000  0.000  0.000  0.000
   34  0.000  0.000  0.000  0.000
   35  0.000  0.000  0.000  0.000
   36  0.992  0.000  0.000  0.992
   37  0.000  0.000  0.000  0.000
   38  0.000  0.000  0.000  0.000
tot    0.992  0.000  0.000  0.993
 
band     2 # energy  -30.41356801 # occ.  2.00000000
 
ion      s      p      d    tot
    1  0.000  0.000  0.000  0.000
    2  0.000  0.000  0.000  0.000
    3  0.000  0.000  0.000  0.000
    4  0.000  0.000  0.000  0.000
    5  0.000  0.000  0.000  0.000
    6  0.000  0.000  0.000  0.000
    7  0.000  0.000  0.000  0.000
    8  0.000  0.000  0.000  0.000
    9  0.000  0.000  0.000  0.000
   10  0.000  0.000  0.000  0.000
   11  0.000  0.000  0.000  0.000
   12  0.000  0.000  0.000  0.000
   13  0.000  0.000  0.000  0.000
   14  0.000  0.000  0.000  0.000
   15  0.000  0.000  0.000  0.000
   16  0.000  0.000  0.000  0.000
   17  0.000  0.000  0.000  0.000
   18  0.000  0.000  0.000  0.000
   19  0.000  0.000  0.000  0.000
   20  0.000  0.000  0.000  0.000
   21  0.000  0.000  0.000  0.000
   22  0.000  0.000  0.000  0.000
   23  0.000  0.000  0.000  0.000
   24  0.000  0.000  0.000  0.000
   25  0.000  0.000  0.000  0.000
   26  0.000  0.000  0.000  0.000
   27  0.000  0.000  0.000  0.000
   28  0.000  0.000  0.000  0.000
   29  0.000  0.000  0.000  0.000
   30  0.000  0.000  0.000  0.000
   31  0.000  0.000  0.000  0.000
   32  0.000  0.000  0.000  0.000
   33  0.000  0.000  0.000  0.000
   34  0.000  0.000  0.000  0.000
   35  0.000  0.000  0.000  0.000
   36  0.000  0.973  0.000  0.973
   37  0.000  0.000  0.000  0.000
   38  0.000  0.000  0.000  0.000
tot    0.000  0.973  0.001  0.974
 
band     3 # energy  -30.41356123 # occ.  2.00000000
 
ion      s      p      d    tot
    1  0.000  0.000  0.000  0.000
    2  0.000  0.000  0.000  0.000
    3  0.000  0.000  0.000  0.000
    4  0.000  0.000  0.000  0.000
    5  0.000  0.000  0.000  0.000
    6  0.000  0.000  0.000  0.000
    7  0.000  0.000  0.000  0.000
    8  0.000  0.000  0.000  0.000
    9  0.000  0.000  0.000  0.000
   10  0.000  0.000  0.000  0.000
   11  0.000  0.000  0.000  0.000
   12  0.000  0.000  0.000  0.000
   13  0.000  0.000  0.000  0.000
   14  0.000  0.000  0.000  0.000
   15  0.000  0.000  0.000  0.000
   16  0.000  0.000  0.000  0.000
   17  0.000  0.000  0.000  0.000
   18  0.000  0.000  0.000  0.000
   19  0.000  0.000  0.000  0.000
   20  0.000  0.000  0.000  0.000
   21  0.000  0.000  0.000  0.000
   22  0.000  0.000  0.000  0.000
   23  0.000  0.000  0.000  0.000
   24  0.000  0.000  0.000  0.000
   25  0.000  0.000  0.000  0.000
   26  0.000  0.000  0.000  0.000
   27  0.000  0.000  0.000  0.000
   28  0.000  0.000  0.000  0.000
   29  0.000  0.000  0.000  0.000
   30  0.000  0.000  0.000  0.000
   31  0.000  0.000  0.000  0.000
   32  0.000  0.000  0.000  0.000
   33  0.000  0.000  0.000  0.000
   34  0.000  0.000  0.000  0.000
   35  0.000  0.000  0.000  0.000
   36  0.000  0.973  0.000  0.973
   37  0.000  0.000  0.000  0.000
   38  0.000  0.000  0.000  0.000
tot    0.000  0.973  0.001  0.974
 
band     4 # energy  -30.15640286 # occ.  2.00000000
 
ion      s      p      d    tot
    1  0.000  0.000  0.000  0.000
    2  0.000  0.000  0.000  0.000
    3  0.000  0.000  0.000  0.000
    4  0.000  0.000  0.000  0.000
    5  0.000  0.000  0.000  0.000
    6  0.000  0.000  0.000  0.000
    7  0.000  0.000  0.000  0.000
    8  0.000  0.000  0.000  0.000
    9  0.000  0.000  0.000  0.000
   10  0.000  0.000  0.000  0.000
   11  0.000  0.000  0.000  0.000
   12  0.000  0.000  0.000  0.000
   13  0.000  0.000  0.000  0.000
   14  0.000  0.000  0.000  0.000
   15  0.000  0.000  0.000  0.000
   16  0.000  0.000  0.000  0.000
   17  0.000  0.000  0.000  0.000
   18  0.000  0.000  0.000  0.000
   19  0.000  0.000  0.000  0.000
   20  0.000  0.000  0.000  0.000
   21  0.000  0.000  0.000  0.000
   22  0.000  0.000  0.000  0.000
   23  0.000  0.000  0.000  0.000
   24  0.000  0.000  0.000  0.000
   25  0.000  0.000  0.000  0.000
   26  0.000  0.000  0.000  0.000
   27  0.000  0.000  0.000  0.000
   28  0.000  0.000  0.000  0.000
   29  0.000  0.000  0.000  0.000
   30  0.000  0.000  0.000  0.000
   31  0.000  0.000  0.000  0.000
   32  0.000  0.000  0.000  0.000
   33  0.000  0.000  0.000  0.000
   34  0.000  0.000  0.000  0.000
   35  0.000  0.000  0.000  0.000
   36  0.000  0.967  0.000  0.967
   37  0.002  0.002  0.000  0.004
   38  0.000  0.000  0.000  0.000
tot    0.002  0.969  0.000  0.971
 
band     5 # energy  -22.02319362 # occ.  2.00000000
 
ion      s      p      d    tot
    1  0.000  0.000  0.000  0.000
    2  0.000  0.000  0.000  0.000
    3  0.000  0.000  0.000  0.000
    4  0.000  0.000  0.000  0.000
    5  0.000  0.000  0.000  0.000
    6  0.000  0.000  0.000  0.000
    7  0.000  0.000  0.000  0.000
    8  0.000  0.000  0.000  0.000
    9  0.000  0.000  0.000  0.000
   10  0.000  0.000  0.000  0.000
   11  0.000  0.000  0.000  0.000
   12  0.000  0.000  0.000  0.000
   13  0.000  0.000  0.000  0.000
   14  0.000  0.000  0.000  0.000
   15  0.000  0.000  0.000  0.000
   16  0.000  0.000  0.000  0.000
   17  0.000  0.000  0.000  0.000
   18  0.000  0.000  0.000  0.000
   19  0.000  0.000  0.000  0.000
   20  0.000  0.000  0.000  0.000
   21  0.000  0.000  0.000  0.000
   22  0.000  0.000  0.000  0.000
   23  0.000  0.000  0.000  0.000
   24  0.000  0.000  0.000  0.000
   25  0.000  0.000  0.000  0.000
   26  0.000  0.000  0.000  0.000
   27  0.000  0.000  0.000  0.000
   28  0.000  0.000  0.000  0.000
   29  0.000  0.000  0.000  0.000
   30  0.000  0.000  0.000  0.000
   31  0.000  0.000  0.000  0.000
   32  0.000  0.000  0.000  0.000
   33  0.000  0.000  0.000  0.000
   34  0.000  0.000  0.000  0.000
   35  0.000  0.000  0.000  0.000
   36  0.000  0.000  0.000  0.000
   37  0.153  0.113  0.000  0.266
   38  0.640  0.091  0.000  0.731
tot    0.793  0.204  0.000  0.997
 
band     6 # energy   -7.72180059 # occ.  2.00000000
 
ion      s      p      d    tot
    1  0.000  0.000  0.000  0.000
    2  0.000  0.000  0.000  0.000
    3  0.000  0.000  0.000  0.000
    4  0.000  0.000  0.000  0.000
    5  0.000  0.000  0.000  0.000
    6  0.000  0.000  0.000  0.000
    7  0.000  0.000  0.000  0.000
    8  0.000  0.000  0.000  0.000
    9  0.000  0.000  0.000  0.000
   10  0.000  0.000  0.000  0.000
   11  0.000  0.000  0.000  0.000
   12  0.000  0.000  0.000  0.000
   13  0.000  0.000  0.000  0.000
   14  0.000  0.000  0.000  0.000
   15  0.000  0.000  0.000  0.000
   16  0.000  0.000  0.000  0.000
   17  0.000  0.000  0.000  0.000
   18  0.000  0.000  0.000  0.000
   19  0.000  0.000  0.000  0.000
   20  0.001  0.000  0.001  0.001
   21  0.001  0.000  0.001  0.001
   22  0.000  0.000  0.000  0.000
   23  0.001  0.000  0.001  0.001
   24  0.000  0.000  0.000  0.000
   25  0.000  0.000  0.000  0.000
   26  0.000  0.000  0.000  0.000
   27  0.000  0.000  0.000  0.000
   28  0.000  0.000  0.000  0.000
   29  0.000  0.000  0.000  0.001
   30  0.000  0.000  0.000  0.001
   31  0.000  0.000  0.000  0.001
   32  0.000  0.000  0.000  0.001
   33  0.000  0.000  0.000  0.001
   34  0.000  0.000  0.000  0.001
   35  0.000  0.000  0.000  0.000
   36  0.011  0.006  0.022  0.039
   37  0.267  0.001  0.000  0.267
   38  0.150  0.265  0.000  0.415
tot    0.433  0.273  0.026  0.731
 
band     7 # energy   -6.29655568 # occ.  2.00000000
 
ion      s      p      d    tot
    1  0.006  0.001  0.000  0.007
    2  0.006  0.001  0.000  0.006
    3  0.006  0.001  0.000  0.006
    4  0.006  0.001  0.000  0.006
    5  0.006  0.001  0.000  0.006
    6  0.006  0.001  0.000  0.006
    7  0.006  0.001  0.000  0.006
    8  0.006  0.001  0.000  0.006
    9  0.006  0.001  0.000  0.006
   10  0.023  0.000  0.000  0.024
   11  0.024  0.000  0.000  0.024
   12  0.023  0.000  0.000  0.024
   13  0.024  0.000  0.000  0.024
   14  0.024  0.000  0.000  0.024
   15  0.022  0.000  0.000  0.023
   16  0.023  0.000  0.000  0.024
   17  0.022  0.000  0.000  0.023
   18  0.022  0.000  0.000  0.023
   19  0.022  0.000  0.000  0.023
   20  0.024  0.000  0.000  0.025
   21  0.024  0.000  0.000  0.025
   22  0.022  0.000  0.000  0.022
   23  0.024  0.000  0.000  0.025
   24  0.022  0.000  0.000  0.022
   25  0.022  0.000  0.000  0.023
   26  0.022  0.000  0.000  0.023
   27  0.022  0.000  0.000  0.022
   28  0.005  0.001  0.000  0.006
   29  0.005  0.001  0.000  0.006
   30  0.005  0.001  0.000  0.006
   31  0.005  0.001  0.000  0.006
   32  0.005  0.001  0.000  0.006
   33  0.005  0.001  0.000  0.006
   34  0.005  0.001  0.000  0.006
   35  0.005  0.001  0.000  0.006
   36  0.004  0.000  0.000  0.004
   37  0.000  0.002  0.000  0.003
   38  0.002  0.009  0.000  0.010
tot    0.514  0.023  0.006  0.543
 
band     8 # energy   -5.46365677 # occ.  2.00000000
 
ion      s      p      d    tot
    1  0.007  0.000  0.000  0.008
    2  0.008  0.000  0.000  0.009
    3  0.008  0.000  0.000  0.009
    4  0.008  0.000  0.000  0.009
    5  0.008  0.000  0.000  0.009
    6  0.008  0.000  0.000  0.009
    7  0.008  0.000  0.000  0.009
    8  0.008  0.000  0.000  0.009
    9  0.008  0.000  0.000  0.009
   10  0.010  0.001  0.015  0.026
   11  0.012  0.001  0.011  0.024
   12  0.010  0.001  0.015  0.026
   13  0.012  0.001  0.011  0.024
   14  0.012  0.001  0.011  0.024
   15  0.012  0.001  0.010  0.023
   16  0.010  0.001  0.015  0.026
   17  0.012  0.001  0.010  0.023
   18  0.012  0.001  0.010  0.023
   19  0.009  0.001  0.012  0.022
   20  0.012  0.001  0.019  0.032
   21  0.012  0.001  0.019  0.032
   22  0.007  0.001  0.010  0.018
   23  0.012  0.001  0.019  0.032
   24  0.007  0.001  0.010  0.018
   25  0.009  0.001  0.012  0.022
   26  0.009  0.001  0.012  0.022
   27  0.007  0.001  0.010  0.018
   28  0.007  0.000  0.001  0.008
   29  0.007  0.000  0.001  0.008
   30  0.007  0.000  0.001  0.008
   31  0.007  0.000  0.001  0.008
   32  0.007  0.000  0.001  0.008
   33  0.007  0.000  0.001  0.008
   34  0.007  0.000  0.001  0.008
   35  0.006  0.000  0.000  0.007
   36  0.010  0.000  0.004  0.014
   37  0.001  0.019  0.000  0.020
   38  0.003  0.031  0.000  0.034
tot    0.328  0.073  0.247  0.647
 
band     9 # energy   -5.19139588 # occ.  2.00000000
 
ion      s      p      d    tot
    1  0.001  0.000  0.012  0.013
    2  0.003  0.000  0.007  0.010
    3  0.003  0.000  0.007  0.010
    4  0.003  0.000  0.007  0.010
    5  0.005  0.000  0.004  0.009
    6  0.003  0.000  0.007  0.010
    7  0.003  0.000  0.007  0.010
    8  0.003  0.000  0.007  0.010
    9  0.006  0.000  0.006  0.011
   10  0.003  0.000  0.014  0.017
   11  0.000  0.000  0.023  0.023
   12  0.003  0.000  0.014  0.017
   13  0.000  0.000  0.023  0.023
   14  0.000  0.000  0.023  0.023
   15  0.000  0.000  0.015  0.015
   16  0.003  0.000  0.014  0.017
   17  0.000  0.000  0.015  0.015
   18  0.000  0.000  0.015  0.015
   19  0.002  0.000  0.020  0.022
   20  0.000  0.000  0.050  0.050
   21  0.000  0.000  0.050  0.050
   22  0.007  0.000  0.016  0.023
   23  0.000  0.000  0.050  0.050
   24  0.007  0.000  0.016  0.023
   25  0.002  0.000  0.020  0.022
   26  0.002  0.000  0.020  0.022
   27  0.007  0.000  0.016  0.023
   28  0.002  0.000  0.012  0.014
   29  0.004  0.000  0.011  0.016
   30  0.004  0.000  0.011  0.016
   31  0.004  0.000  0.011  0.016
   32  0.004  0.000  0.011  0.016
   33  0.004  0.000  0.011  0.016
   34  0.004  0.000  0.011  0.016
   35  0.001  0.000  0.011  0.012
   36  0.018  0.001  0.005  0.023
   37  0.003  0.038  0.000  0.041
   38  0.004  0.053  0.000  0.057
tot    0.123  0.096  0.573  0.792
 
band    10 # energy   -5.12146352 # occ.  2.00000000
 
ion      s      p      d    tot
    1  0.020  0.001  0.007  0.027
    2  0.008  0.000  0.014  0.022
    3  0.008  0.000  0.014  0.022
    4  0.008  0.000  0.014  0.022
    5  0.004  0.000  0.013  0.017
    6  0.008  0.000  0.014  0.022
    7  0.008  0.000  0.014  0.022
    8  0.008  0.000  0.014  0.022
    9  0.005  0.000  0.012  0.017
   10  0.002  0.000  0.028  0.030
   11  0.000  0.000  0.006  0.007
   12  0.002  0.000  0.028  0.030
   13  0.000  0.000  0.006  0.007
   14  0.000  0.000  0.006  0.007
   15  0.002  0.001  0.002  0.005
   16  0.002  0.000  0.028  0.030
   17  0.002  0.001  0.002  0.005
   18  0.002  0.001  0.002  0.005
   19  0.000  0.001  0.022  0.022
   20  0.002  0.000  0.066  0.068
   21  0.002  0.000  0.066  0.068
   22  0.010  0.000  0.002  0.012
   23  0.002  0.000  0.066  0.068
   24  0.010  0.000  0.002  0.012
   25  0.000  0.001  0.022  0.022
   26  0.000  0.001  0.022  0.022
   27  0.010  0.000  0.002  0.012
   28  0.005  0.000  0.000  0.005
   29  0.004  0.000  0.005  0.008
   30  0.004  0.000  0.005  0.008
   31  0.004  0.000  0.005  0.008
   32  0.004  0.000  0.005  0.008
   33  0.004  0.000  0.005  0.008
   34  0.004  0.000  0.005  0.008
   35  0.012  0.001  0.001  0.013
   36  0.002  0.000  0.020  0.023
   37  0.003  0.021  0.000  0.024
   38  0.002  0.025  0.000  0.027
tot    0.171  0.058  0.540  0.769
 
band    11 # energy   -5.04422319 # occ.  2.00000000
 
ion      s      p      d    tot
    1  0.000  0.000  0.007  0.007
    2  0.000  0.000  0.002  0.002
    3  0.001  0.000  0.002  0.003
    4  0.000  0.000  0.002  0.002
    5  0.000  0.000  0.002  0.002
    6  0.000  0.000  0.002  0.003
    7  0.001  0.000  0.002  0.003
    8  0.000  0.000  0.002  0.003
    9  0.000  0.000  0.003  0.003
   10  0.000  0.001  0.016  0.017
   11  0.000  0.000  0.019  0.019
   12  0.008  0.001  0.018  0.027
   13  0.000  0.000  0.019  0.020
   14  0.000  0.001  0.023  0.024
   15  0.006  0.000  0.010  0.016
   16  0.009  0.001  0.018  0.027
   17  0.005  0.000  0.011  0.016
   18  0.000  0.000  0.023  0.023
   19  0.016  0.001  0.028  0.045
   20  0.000  0.000  0.123  0.123
   21  0.013  0.000  0.040  0.054
   22  0.000  0.000  0.027  0.028
   23  0.014  0.000  0.034  0.048
   24  0.000  0.001  0.026  0.027
   25  0.000  0.001  0.034  0.035
   26  0.015  0.001  0.029  0.045
   27  0.000  0.000  0.027  0.028
   28  0.000  0.000  0.005  0.005
   29  0.001  0.000  0.006  0.007
   30  0.000  0.000  0.005  0.005
   31  0.001  0.000  0.006  0.007
   32  0.000  0.000  0.004  0.005
   33  0.000  0.000  0.005  0.005
   34  0.000  0.000  0.004  0.005
   35  0.000  0.000  0.000  0.000
   36  0.000  0.000  0.007  0.007
   37  0.000  0.026  0.000  0.026
   38  0.000  0.065  0.000  0.065
tot    0.091  0.102  0.593  0.786
 
band    12 # energy   -5.04421980 # occ.  2.00000000
 
ion      s      p      d    tot
    1  0.000  0.000  0.007  0.007
    2  0.001  0.000  0.002  0.003
    3  0.000  0.000  0.002  0.002
    4  0.001  0.000  0.002  0.003
    5  0.000  0.000  0.002  0.002
    6  0.001  0.000  0.002  0.003
    7  0.000  0.000  0.002  0.002
    8  0.001  0.000  0.002  0.003
    9  0.000  0.000  0.003  0.003
   10  0.011  0.001  0.018  0.030
   11  0.000  0.001  0.022  0.022
   12  0.003  0.001  0.017  0.021
   13  0.000  0.001  0.021  0.022
   14  0.000  0.000  0.018  0.018
   15  0.002  0.000  0.019  0.021
   16  0.002  0.001  0.017  0.020
   17  0.002  0.000  0.018  0.020
   18  0.007  0.001  0.006  0.014
   19  0.005  0.001  0.033  0.038
   20  0.018  0.000  0.008  0.027
   21  0.005  0.000  0.091  0.096
   22  0.000  0.001  0.026  0.027
   23  0.004  0.000  0.098  0.102
   24  0.000  0.000  0.028  0.028
   25  0.021  0.001  0.027  0.048
   26  0.006  0.001  0.032  0.039
   27  0.000  0.001  0.026  0.027
   28  0.000  0.000  0.005  0.005
   29  0.000  0.000  0.004  0.004
   30  0.001  0.000  0.005  0.006
   31  0.000  0.000  0.004  0.004
   32  0.000  0.000  0.006  0.006
   33  0.001  0.000  0.005  0.006
   34  0.000  0.000  0.006  0.006
   35  0.000  0.000  0.000  0.000
   36  0.000  0.000  0.007  0.007
   37  0.000  0.026  0.000  0.026
   38  0.000  0.065  0.000  0.065
tot    0.091  0.102  0.593  0.786
 
band    13 # energy   -5.02392592 # occ.  2.00000000
 
ion      s      p      d    tot
    1  0.000  0.000  0.005  0.005
    2  0.001  0.001  0.007  0.009
    3  0.001  0.000  0.003  0.004
    4  0.001  0.001  0.007  0.009
    5  0.000  0.000  0.008  0.009
    6  0.000  0.000  0.004  0.004
    7  0.001  0.000  0.003  0.004
    8  0.000  0.000  0.004  0.004
    9  0.000  0.000  0.001  0.001
   10  0.000  0.000  0.105  0.105
   11  0.024  0.001  0.033  0.058
   12  0.007  0.001  0.037  0.045
   13  0.023  0.001  0.035  0.059
   14  0.000  0.001  0.081  0.082
   15  0.004  0.001  0.031  0.036
   16  0.007  0.001  0.036  0.043
   17  0.004  0.001  0.031  0.035
   18  0.000  0.002  0.008  0.010
   19  0.000  0.000  0.019  0.020
   20  0.000  0.001  0.026  0.027
   21  0.007  0.001  0.034  0.042
   22  0.008  0.001  0.013  0.022
   23  0.008  0.001  0.034  0.042
   24  0.000  0.000  0.026  0.026
   25  0.000  0.000  0.030  0.030
   26  0.000  0.000  0.019  0.020
   27  0.009  0.001  0.013  0.022
   28  0.000  0.000  0.001  0.001
   29  0.000  0.000  0.002  0.002
   30  0.000  0.000  0.003  0.004
   31  0.000  0.000  0.002  0.003
   32  0.001  0.000  0.003  0.005
   33  0.000  0.000  0.003  0.004
   34  0.001  0.000  0.003  0.005
   35  0.000  0.000  0.005  0.005
   36  0.000  0.000  0.002  0.002
   37  0.000  0.001  0.000  0.001
   38  0.000  0.003  0.000  0.003
tot    0.109  0.019  0.680  0.808
 
band    14 # energy   -5.02390865 # occ.  2.00000000
 
ion      s      p      d    tot
    1  0.000  0.000  0.005  0.005
    2  0.000  0.000  0.002  0.002
    3  0.001  0.000  0.006  0.007
    4  0.000  0.000  0.002  0.002
    5  0.000  0.000  0.008  0.009
    6  0.001  0.001  0.005  0.007
    7  0.001  0.000  0.006  0.007
    8  0.001  0.001  0.005  0.007
    9  0.000  0.000  0.001  0.001
   10  0.009  0.001  0.014  0.024
   11  0.008  0.001  0.066  0.075
   12  0.002  0.000  0.081  0.084
   13  0.008  0.001  0.065  0.074
   14  0.031  0.001  0.018  0.050
   15  0.001  0.001  0.015  0.018
   16  0.002  0.000  0.083  0.085
   17  0.002  0.001  0.016  0.019
   18  0.006  0.000  0.039  0.045
   19  0.000  0.000  0.027  0.027
   20  0.010  0.001  0.036  0.047
   21  0.003  0.001  0.029  0.032
   22  0.003  0.000  0.021  0.025
   23  0.002  0.001  0.029  0.032
   24  0.011  0.001  0.009  0.021
   25  0.000  0.000  0.016  0.016
   26  0.000  0.000  0.026  0.027
   27  0.003  0.000  0.022  0.025
   28  0.000  0.000  0.001  0.001
   29  0.001  0.000  0.004  0.005
   30  0.001  0.000  0.003  0.003
   31  0.001  0.000  0.004  0.005
   32  0.000  0.000  0.003  0.003
   33  0.001  0.000  0.003  0.003
   34  0.000  0.000  0.003  0.003
   35  0.000  0.000  0.005  0.005
   36  0.000  0.000  0.002  0.002
   37  0.000  0.001  0.000  0.001
   38  0.000  0.003  0.000  0.003
tot    0.109  0.019  0.680  0.808
 
band    15 # energy   -5.01703699 # occ.  2.00000000
 
ion      s      p      d    tot
    1  0.003  0.000  0.001  0.004
    2  0.002  0.000  0.008  0.010
    3  0.002  0.000  0.008  0.010
    4  0.002  0.000  0.008  0.010
    5  0.001  0.000  0.018  0.019
    6  0.002  0.000  0.008  0.010
    7  0.002  0.000  0.008  0.010
    8  0.002  0.000  0.008  0.010
    9  0.003  0.000  0.001  0.003
   10  0.002  0.001  0.003  0.006
   11  0.011  0.001  0.056  0.067
   12  0.002  0.001  0.003  0.006
   13  0.011  0.001  0.056  0.067
   14  0.011  0.001  0.056  0.067
   15  0.000  0.000  0.045  0.045
   16  0.002  0.001  0.003  0.006
   17  0.000  0.000  0.045  0.045
   18  0.000  0.000  0.045  0.045
   19  0.001  0.000  0.040  0.041
   20  0.007  0.001  0.047  0.055
   21  0.007  0.001  0.047  0.055
   22  0.000  0.001  0.009  0.010
   23  0.007  0.001  0.047  0.055
   24  0.000  0.001  0.009  0.010
   25  0.001  0.000  0.040  0.041
   26  0.001  0.000  0.040  0.041
   27  0.000  0.001  0.009  0.010
   28  0.002  0.000  0.000  0.002
   29  0.001  0.000  0.006  0.007
   30  0.001  0.000  0.006  0.007
   31  0.001  0.000  0.006  0.007
   32  0.001  0.000  0.006  0.007
   33  0.001  0.000  0.006  0.007
   34  0.001  0.000  0.006  0.007
   35  0.001  0.000  0.002  0.002
   36  0.001  0.000  0.001  0.002
   37  0.000  0.001  0.000  0.001
   38  0.000  0.002  0.000  0.002
tot    0.093  0.014  0.708  0.815
 
band    16 # energy   -5.00408878 # occ.  2.00000000
 
ion      s      p      d    tot
    1  0.001  0.000  0.000  0.002
    2  0.002  0.000  0.012  0.014
    3  0.002  0.000  0.012  0.014
    4  0.002  0.000  0.012  0.014
    5  0.014  0.001  0.004  0.019
    6  0.002  0.000  0.012  0.014
    7  0.002  0.000  0.012  0.014
    8  0.002  0.000  0.012  0.014
    9  0.000  0.001  0.020  0.021
   10  0.003  0.001  0.027  0.031
   11  0.005  0.000  0.012  0.018
   12  0.003  0.001  0.027  0.031
   13  0.005  0.000  0.012  0.018
   14  0.005  0.000  0.012  0.018
   15  0.007  0.000  0.037  0.043
   16  0.003  0.001  0.027  0.031
   17  0.007  0.000  0.037  0.043
   18  0.007  0.000  0.036  0.043
   19  0.013  0.001  0.004  0.018
   20  0.001  0.000  0.037  0.038
   21  0.001  0.000  0.037  0.039
   22  0.001  0.000  0.037  0.038
   23  0.001  0.000  0.037  0.039
   24  0.001  0.000  0.037  0.038
   25  0.013  0.001  0.004  0.018
   26  0.013  0.001  0.004  0.018
   27  0.001  0.000  0.037  0.038
   28  0.002  0.001  0.007  0.010
   29  0.002  0.000  0.012  0.014
   30  0.002  0.000  0.012  0.014
   31  0.002  0.000  0.012  0.014
   32  0.002  0.000  0.012  0.014
   33  0.002  0.000  0.012  0.014
   34  0.002  0.000  0.012  0.014
   35  0.007  0.000  0.000  0.008
   36  0.003  0.000  0.002  0.005
   37  0.000  0.001  0.000  0.001
   38  0.000  0.002  0.000  0.002
tot    0.142  0.016  0.635  0.793
 
band    17 # energy   -4.99482129 # occ.  2.00000000
 
ion      s      p      d    tot
    1  0.001  0.000  0.031  0.032
    2  0.003  0.000  0.009  0.012
    3  0.003  0.000  0.009  0.012
    4  0.003  0.000  0.009  0.012
    5  0.001  0.000  0.001  0.002
    6  0.003  0.000  0.009  0.012
    7  0.003  0.000  0.009  0.012
    8  0.003  0.000  0.009  0.012
    9  0.008  0.001  0.000  0.009
   10  0.006  0.000  0.071  0.078
   11  0.002  0.000  0.033  0.036
   12  0.006  0.000  0.071  0.078
   13  0.002  0.000  0.033  0.036
   14  0.002  0.000  0.033  0.036
   15  0.005  0.001  0.007  0.013
   16  0.006  0.000  0.071  0.078
   17  0.005  0.001  0.007  0.013
   18  0.005  0.001  0.007  0.013
   19  0.002  0.000  0.029  0.032
   20  0.001  0.001  0.002  0.004
   21  0.001  0.001  0.002  0.004
   22  0.000  0.000  0.023  0.023
   23  0.001  0.001  0.002  0.004
   24  0.000  0.000  0.023  0.023
   25  0.002  0.000  0.029  0.032
   26  0.002  0.000  0.029  0.032
   27  0.000  0.000  0.023  0.023
   28  0.008  0.000  0.016  0.024
   29  0.004  0.000  0.013  0.016
   30  0.004  0.000  0.013  0.016
   31  0.004  0.000  0.013  0.016
   32  0.004  0.000  0.013  0.016
   33  0.004  0.000  0.013  0.016
   34  0.004  0.000  0.013  0.016
   35  0.003  0.000  0.007  0.010
   36  0.001  0.000  0.000  0.002
   37  0.000  0.003  0.000  0.003
   38  0.000  0.004  0.000  0.004
tot    0.111  0.016  0.683  0.810
 
band    18 # energy   -4.97767609 # occ.  2.00000000
 
ion      s      p      d    tot
    1  0.000  0.000  0.012  0.012
    2  0.003  0.000  0.005  0.009
    3  0.000  0.000  0.010  0.010
    4  0.002  0.000  0.006  0.009
    5  0.000  0.000  0.011  0.011
    6  0.004  0.001  0.007  0.011
    7  0.000  0.000  0.010  0.010
    8  0.004  0.001  0.007  0.011
    9  0.000  0.001  0.008  0.009
   10  0.000  0.001  0.039  0.040
   11  0.000  0.000  0.034  0.034
   12  0.010  0.000  0.028  0.038
   13  0.000  0.000  0.034  0.035
   14  0.000  0.000  0.028  0.028
   15  0.012  0.000  0.028  0.041
   16  0.009  0.000  0.028  0.038
   17  0.013  0.000  0.024  0.038
   18  0.000  0.000  0.092  0.092
   19  0.000  0.000  0.026  0.027
   20  0.000  0.000  0.039  0.040
   21  0.005  0.000  0.022  0.027
   22  0.007  0.000  0.020  0.026
   23  0.005  0.000  0.023  0.028
   24  0.000  0.000  0.042  0.042
   25  0.000  0.000  0.025  0.025
   26  0.000  0.000  0.027  0.027
   27  0.006  0.000  0.021  0.027
   28  0.000  0.000  0.014  0.014
   29  0.001  0.000  0.006  0.007
   30  0.004  0.001  0.005  0.009
   31  0.002  0.000  0.005  0.007
   32  0.001  0.000  0.007  0.008
   33  0.004  0.001  0.005  0.009
   34  0.000  0.000  0.007  0.007
   35  0.000  0.000  0.007  0.007
   36  0.000  0.000  0.001  0.001
   37  0.000  0.001  0.000  0.001
   38  0.000  0.004  0.000  0.004
tot    0.093  0.016  0.712  0.821
 
band    19 # energy   -4.97766723 # occ.  2.00000000
 
ion      s      p      d    tot
    1  0.000  0.000  0.012  0.012
    2  0.002  0.001  0.009  0.012
    3  0.004  0.001  0.005  0.010
    4  0.002  0.001  0.009  0.012
    5  0.000  0.000  0.011  0.011
    6  0.001  0.000  0.008  0.009
    7  0.004  0.001  0.005  0.010
    8  0.000  0.000  0.008  0.009
    9  0.000  0.001  0.008  0.009
   10  0.013  0.000  0.024  0.037
   11  0.000  0.000  0.030  0.030
   12  0.003  0.000  0.036  0.039
   13  0.000  0.000  0.030  0.030
   14  0.001  0.000  0.036  0.037
   15  0.005  0.000  0.068  0.073
   16  0.003  0.000  0.035  0.039
   17  0.004  0.000  0.072  0.076
   18  0.017  0.000  0.005  0.022
   19  0.000  0.000  0.026  0.026
   20  0.007  0.000  0.017  0.024
   21  0.002  0.000  0.034  0.036
   22  0.002  0.000  0.036  0.038
   23  0.002  0.000  0.033  0.035
   24  0.008  0.000  0.013  0.022
   25  0.000  0.000  0.027  0.027
   26  0.000  0.000  0.026  0.026
   27  0.002  0.000  0.034  0.037
   28  0.000  0.000  0.014  0.014
   29  0.003  0.001  0.006  0.009
   30  0.000  0.000  0.007  0.007
   31  0.002  0.001  0.006  0.009
   32  0.003  0.000  0.005  0.008
   33  0.000  0.000  0.007  0.007
   34  0.004  0.000  0.004  0.008
   35  0.000  0.000  0.007  0.007
   36  0.000  0.000  0.001  0.001
   37  0.000  0.001  0.000  0.001
   38  0.000  0.004  0.000  0.004
tot    0.093  0.016  0.712  0.821
 
band    20 # energy   -4.97354377 # occ.  2.00000000
 
ion      s      p      d    tot
    1  0.000  0.000  0.002  0.002
    2  0.001  0.000  0.009  0.010
    3  0.001  0.000  0.009  0.010
    4  0.001  0.000  0.009  0.010
    5  0.000  0.000  0.000  0.001
    6  0.001  0.000  0.009  0.010
    7  0.001  0.000  0.009  0.010
    8  0.001  0.000  0.009  0.010
    9  0.005  0.000  0.013  0.018
   10  0.001  0.000  0.019  0.020
   11  0.000  0.000  0.011  0.011
   12  0.001  0.000  0.018  0.020
   13  0.000  0.000  0.011  0.011
   14  0.000  0.000  0.010  0.011
   15  0.001  0.000  0.046  0.047
   16  0.001  0.000  0.018  0.020
   17  0.001  0.000  0.046  0.047
   18  0.001  0.000  0.046  0.047
   19  0.004  0.001  0.021  0.025
   20  0.003  0.000  0.029  0.032
   21  0.003  0.000  0.028  0.031
   22  0.002  0.000  0.068  0.070
   23  0.003  0.000  0.028  0.031
   24  0.002  0.000  0.069  0.071
   25  0.004  0.001  0.021  0.025
   26  0.004  0.001  0.021  0.025
   27  0.002  0.000  0.068  0.070
   28  0.006  0.001  0.000  0.007
   29  0.003  0.000  0.013  0.015
   30  0.003  0.000  0.012  0.015
   31  0.003  0.000  0.013  0.015
   32  0.003  0.000  0.012  0.015
   33  0.003  0.000  0.012  0.015
   34  0.003  0.000  0.012  0.015
   35  0.005  0.000  0.028  0.033
   36  0.000  0.000  0.002  0.002
   37  0.000  0.001  0.000  0.001
   38  0.000  0.001  0.000  0.001
tot    0.071  0.009  0.752  0.832
 
band    21 # energy   -4.96911069 # occ.  2.00000000
 
ion      s      p      d    tot
    1  0.000  0.000  0.006  0.006
    2  0.002  0.000  0.007  0.009
    3  0.000  0.000  0.008  0.008
    4  0.002  0.000  0.007  0.009
    5  0.000  0.000  0.006  0.006
    6  0.002  0.000  0.005  0.007
    7  0.000  0.000  0.008  0.008
    8  0.002  0.000  0.005  0.007
    9  0.000  0.000  0.018  0.018
   10  0.000  0.000  0.033  0.033
   11  0.001  0.000  0.043  0.044
   12  0.000  0.000  0.016  0.016
   13  0.001  0.000  0.042  0.043
   14  0.003  0.000  0.008  0.012
   15  0.000  0.000  0.038  0.039
   16  0.000  0.000  0.015  0.015