PROCAR new format
# of k-points:   10         # of bands:  252         # of ions:   36

 k-point     1 :    0.00000000 0.00000000 0.00000000     weight = 0.01562500

band     1 # energy   -8.11477735 # occ.  2.00000000
 
ion      s      p      d    tot
    1  0.007  0.001  0.000  0.007
    2  0.007  0.001  0.000  0.007
    3  0.007  0.001  0.000  0.007
    4  0.007  0.001  0.000  0.007
    5  0.007  0.001  0.000  0.007
    6  0.007  0.001  0.000  0.007
    7  0.007  0.001  0.000  0.007
    8  0.007  0.001  0.000  0.007
    9  0.007  0.001  0.000  0.007
   10  0.027  0.000  0.000  0.027
   11  0.027  0.000  0.000  0.028
   12  0.027  0.000  0.000  0.027
   13  0.027  0.000  0.000  0.028
   14  0.027  0.000  0.000  0.027
   15  0.027  0.000  0.000  0.027
   16  0.027  0.000  0.000  0.027
   17  0.027  0.000  0.000  0.027
   18  0.027  0.000  0.000  0.027
   19  0.024  0.000  0.000  0.024
   20  0.024  0.000  0.000  0.025
   21  0.024  0.000  0.000  0.025
   22  0.024  0.000  0.000  0.024
   23  0.024  0.000  0.000  0.025
   24  0.024  0.000  0.000  0.024
   25  0.024  0.000  0.000  0.024
   26  0.024  0.000  0.000  0.024
   27  0.024  0.000  0.000  0.024
   28  0.005  0.000  0.000  0.005
   29  0.005  0.000  0.000  0.005
   30  0.005  0.000  0.000  0.005
   31  0.005  0.000  0.000  0.005
   32  0.005  0.000  0.000  0.005
   33  0.005  0.000  0.000  0.005
   34  0.005  0.000  0.000  0.005
   35  0.005  0.000  0.000  0.005
   36  0.006  0.001  0.000  0.007
tot    0.566  0.012  0.003  0.581
 
band     2 # energy   -6.94171496 # occ.  2.00000000
 
ion      s      p      d    tot
    1  0.016  0.000  0.001  0.018
    2  0.016  0.000  0.001  0.018
    3  0.016  0.000  0.001  0.018
    4  0.016  0.000  0.001  0.018
    5  0.016  0.000  0.001  0.018
    6  0.016  0.000  0.001  0.018
    7  0.016  0.000  0.001  0.018
    8  0.016  0.000  0.001  0.018
    9  0.016  0.000  0.001  0.018
   10  0.010  0.001  0.003  0.014
   11  0.010  0.001  0.002  0.014
   12  0.010  0.001  0.003  0.014
   13  0.010  0.001  0.002  0.014
   14  0.010  0.001  0.002  0.014
   15  0.010  0.001  0.003  0.014
   16  0.010  0.001  0.003  0.014
   17  0.010  0.001  0.003  0.014
   18  0.010  0.001  0.003  0.014
   19  0.014  0.001  0.003  0.019
   20  0.014  0.001  0.003  0.018
   21  0.014  0.001  0.003  0.018
   22  0.014  0.001  0.003  0.019
   23  0.014  0.001  0.003  0.018
   24  0.014  0.001  0.003  0.019
   25  0.014  0.001  0.003  0.019
   26  0.014  0.001  0.003  0.019
   27  0.014  0.001  0.003  0.019
   28  0.015  0.001  0.001  0.016
   29  0.015  0.001  0.001  0.016
   30  0.015  0.001  0.001  0.016
   31  0.015  0.001  0.001  0.016
   32  0.015  0.001  0.001  0.016
   33  0.015  0.001  0.001  0.016
   34  0.015  0.001  0.001  0.016
   35  0.015  0.001  0.001  0.016
   36  0.017  0.001  0.000  0.018
tot    0.500  0.032  0.066  0.598
 
band     3 # energy   -5.99269482 # occ.  2.00000000
 
ion      s      p      d    tot
    1  0.020  0.000  0.022  0.042
    2  0.022  0.000  0.020  0.042
    3  0.022  0.000  0.020  0.042
    4  0.022  0.000  0.020  0.042
    5  0.019  0.000  0.020  0.040
    6  0.022  0.000  0.020  0.042
    7  0.022  0.000  0.020  0.042
    8  0.022  0.000  0.020  0.042
    9  0.027  0.000  0.019  0.045
   10  0.009  0.001  0.022  0.032
   11  0.011  0.001  0.021  0.033
   12  0.009  0.001  0.022  0.032
   13  0.011  0.001  0.021  0.033
   14  0.011  0.001  0.021  0.033
   15  0.004  0.001  0.024  0.029
   16  0.009  0.001  0.022  0.032
   17  0.004  0.001  0.024  0.029
   18  0.004  0.001  0.024  0.029
   19  0.000  0.001  0.001  0.002
   20  0.000  0.001  0.002  0.003
   21  0.000  0.001  0.002  0.003
   22  0.000  0.001  0.001  0.002
   23  0.000  0.001  0.002  0.003
   24  0.000  0.001  0.001  0.002
   25  0.000  0.001  0.001  0.002
   26  0.000  0.001  0.001  0.002
   27  0.000  0.001  0.001  0.002
   28  0.004  0.000  0.001  0.005
   29  0.003  0.000  0.001  0.004
   30  0.003  0.000  0.001  0.004
   31  0.003  0.000  0.001  0.004
   32  0.003  0.000  0.001  0.004
   33  0.003  0.000  0.001  0.004
   34  0.003  0.000  0.001  0.004
   35  0.004  0.000  0.001  0.005
   36  0.001  0.000  0.001  0.002
tot    0.296  0.013  0.404  0.713
 
band     4 # energy   -5.95477197 # occ.  2.00000000
 
ion      s      p      d    tot
    1  0.014  0.001  0.001  0.016
    2  0.000  0.001  0.006  0.007
    3  0.000  0.001  0.006  0.007
    4  0.000  0.001  0.006  0.007
    5  0.001  0.000  0.001  0.002
    6  0.000  0.001  0.006  0.007
    7  0.000  0.001  0.006  0.007
    8  0.000  0.001  0.006  0.007
    9  0.010  0.002  0.002  0.014
   10  0.013  0.000  0.031  0.044
   11  0.001  0.002  0.019  0.022
   12  0.012  0.000  0.031  0.043
   13  0.001  0.002  0.019  0.022
   14  0.001  0.002  0.019  0.022
   15  0.033  0.003  0.002  0.039
   16  0.012  0.000  0.031  0.043
   17  0.033  0.003  0.002  0.039
   18  0.034  0.003  0.003  0.039
   19  0.001  0.001  0.019  0.021
   20  0.018  0.000  0.020  0.038
   21  0.017  0.000  0.020  0.037
   22  0.022  0.003  0.004  0.029
   23  0.017  0.000  0.020  0.037
   24  0.022  0.003  0.004  0.029
   25  0.001  0.002  0.019  0.021
   26  0.001  0.001  0.019  0.021
   27  0.022  0.003  0.004  0.029
   28  0.000  0.000  0.000  0.000
   29  0.000  0.000  0.004  0.004
   30  0.000  0.000  0.004  0.004
   31  0.000  0.000  0.004  0.004
   32  0.000  0.000  0.004  0.004
   33  0.000  0.000  0.004  0.004
   34  0.000  0.000  0.004  0.004
   35  0.008  0.001  0.000  0.009
   36  0.011  0.002  0.002  0.014
tot    0.305  0.042  0.352  0.699
 
band     5 # energy   -5.95108317 # occ.  2.00000000
 
ion      s      p      d    tot
    1  0.000  0.001  0.009  0.010
    2  0.004  0.001  0.004  0.008
    3  0.007  0.001  0.003  0.012
    4  0.004  0.001  0.004  0.009
    5  0.000  0.001  0.007  0.008
    6  0.001  0.000  0.003  0.004
    7  0.008  0.001  0.004  0.013
    8  0.001  0.000  0.003  0.004
    9  0.000  0.000  0.001  0.002
   10  0.000  0.000  0.044  0.044
   11  0.039  0.002  0.015  0.056
   12  0.033  0.002  0.013  0.047
   13  0.041  0.001  0.015  0.057
   14  0.000  0.004  0.022  0.026
   15  0.000  0.001  0.012  0.014
   16  0.031  0.002  0.015  0.047
   17  0.000  0.001  0.012  0.014
   18  0.000  0.004  0.007  0.010
   19  0.009  0.001  0.011  0.021
   20  0.000  0.002  0.032  0.033
   21  0.042  0.002  0.013  0.056
   22  0.011  0.001  0.010  0.022
   23  0.040  0.002  0.014  0.055
   24  0.000  0.000  0.024  0.024
   25  0.000  0.004  0.004  0.008
   26  0.009  0.001  0.012  0.022
   27  0.010  0.001  0.011  0.022
   28  0.000  0.000  0.001  0.002
   29  0.000  0.000  0.002  0.003
   30  0.003  0.001  0.002  0.006
   31  0.000  0.000  0.002  0.002
   32  0.004  0.001  0.003  0.008
   33  0.003  0.001  0.002  0.006
   34  0.004  0.001  0.003  0.008
   35  0.000  0.000  0.004  0.004
   36  0.000  0.002  0.006  0.007
tot    0.305  0.043  0.347  0.694
 
band     6 # energy   -5.95107675 # occ.  2.00000000
 
ion      s      p      d    tot
    1  0.000  0.001  0.010  0.010
    2  0.004  0.001  0.003  0.008
    3  0.000  0.000  0.004  0.004
    4  0.004  0.001  0.003  0.008
    5  0.000  0.001  0.007  0.008
    6  0.007  0.001  0.004  0.012
    7  0.000  0.000  0.003  0.004
    8  0.007  0.001  0.004  0.013
    9  0.000  0.000  0.001  0.002
   10  0.042  0.002  0.003  0.048
   11  0.014  0.003  0.019  0.037
   12  0.010  0.000  0.035  0.046
   13  0.012  0.003  0.020  0.035
   14  0.053  0.001  0.013  0.066
   15  0.000  0.003  0.009  0.011
   16  0.012  0.001  0.033  0.046
   17  0.000  0.003  0.008  0.011
   18  0.001  0.000  0.014  0.015
   19  0.003  0.003  0.007  0.013
   20  0.054  0.002  0.007  0.063
   21  0.013  0.002  0.026  0.040
   22  0.003  0.001  0.020  0.024
   23  0.015  0.002  0.025  0.042
   24  0.013  0.002  0.006  0.020
   25  0.013  0.000  0.014  0.027
   26  0.003  0.003  0.006  0.012
   27  0.004  0.001  0.019  0.023
   28  0.000  0.000  0.001  0.002
   29  0.005  0.001  0.003  0.008
   30  0.002  0.001  0.003  0.005
   31  0.005  0.001  0.003  0.008
   32  0.001  0.000  0.002  0.003
   33  0.002  0.001  0.003  0.005
   34  0.001  0.000  0.002  0.003
   35  0.000  0.000  0.003  0.004
   36  0.000  0.002  0.006  0.007
tot    0.305  0.043  0.347  0.694
 
band     7 # energy   -5.93861480 # occ.  2.00000000
 
ion      s      p      d    tot
    1  0.000  0.001  0.003  0.004
    2  0.004  0.001  0.004  0.009
    3  0.008  0.001  0.004  0.013
    4  0.004  0.001  0.004  0.009
    5  0.000  0.000  0.005  0.005
    6  0.001  0.000  0.003  0.004
    7  0.008  0.001  0.004  0.013
    8  0.001  0.000  0.003  0.004
    9  0.000  0.001  0.011  0.012
   10  0.022  0.000  0.017  0.040
   11  0.003  0.001  0.022  0.026
   12  0.005  0.004  0.007  0.015
   13  0.003  0.001  0.023  0.027
   14  0.011  0.001  0.007  0.019
   15  0.017  0.001  0.032  0.051
   16  0.006  0.004  0.007  0.016
   17  0.015  0.001  0.033  0.050
   18  0.063  0.002  0.006  0.070
   19  0.011  0.001  0.028  0.039
   20  0.000  0.001  0.012  0.012
   21  0.000  0.002  0.009  0.011
   22  0.009  0.003  0.016  0.028
   23  0.000  0.002  0.009  0.011
   24  0.039  0.001  0.012  0.051
   25  0.039  0.002  0.003  0.044
   26  0.010  0.001  0.028  0.039
   27  0.010  0.003  0.016  0.029
   28  0.000  0.000  0.006  0.007
   29  0.000  0.000  0.002  0.003
   30  0.003  0.001  0.002  0.005
   31  0.000  0.000  0.002  0.003
   32  0.004  0.001  0.003  0.008
   33  0.003  0.001  0.002  0.005
   34  0.004  0.001  0.003  0.008
   35  0.000  0.001  0.004  0.005
   36  0.000  0.000  0.001  0.001
tot    0.301  0.042  0.350  0.693
 
band     8 # energy   -5.93859361 # occ.  2.00000000
 
ion      s      p      d    tot
    1  0.000  0.001  0.003  0.004
    2  0.004  0.001  0.003  0.009
    3  0.001  0.000  0.004  0.004
    4  0.004  0.001  0.003  0.008
    5  0.000  0.000  0.005  0.005
    6  0.008  0.001  0.004  0.013
    7  0.000  0.000  0.004  0.004
    8  0.008  0.001  0.004  0.013
    9  0.000  0.001  0.011  0.012
   10  0.000  0.005  0.004  0.008
   11  0.008  0.001  0.012  0.022
   12  0.017  0.001  0.014  0.032
   13  0.008  0.001  0.012  0.021
   14  0.000  0.001  0.027  0.028
   15  0.047  0.002  0.015  0.063
   16  0.016  0.001  0.013  0.031
   17  0.048  0.002  0.014  0.064
   18  0.000  0.001  0.042  0.043
   19  0.029  0.002  0.012  0.043
   20  0.000  0.002  0.008  0.010
   21  0.000  0.001  0.011  0.012
   22  0.029  0.001  0.013  0.044
   23  0.000  0.001  0.011  0.012
   24  0.000  0.004  0.017  0.021
   25  0.000  0.000  0.036  0.037
   26  0.030  0.002  0.011  0.043
   27  0.029  0.001  0.013  0.043
   28  0.000  0.000  0.006  0.007
   29  0.005  0.001  0.002  0.008
   30  0.002  0.001  0.003  0.005
   31  0.005  0.001  0.002  0.008
   32  0.000  0.000  0.002  0.003
   33  0.002  0.001  0.003  0.005
   34  0.001  0.000  0.002  0.003
   35  0.000  0.001  0.004  0.005
   36  0.000  0.000  0.001  0.001
tot    0.301  0.042  0.350  0.693
 
band     9 # energy   -5.93622498 # occ.  2.00000000
 
ion      s      p      d    tot
    1  0.005  0.001  0.000  0.006
    2  0.000  0.001  0.006  0.007
    3  0.000  0.001  0.006  0.007
    4  0.000  0.001  0.006  0.007
    5  0.019  0.002  0.001  0.022
    6  0.000  0.001  0.006  0.007
    7  0.000  0.001  0.006  0.007
    8  0.000  0.001  0.006  0.007
    9  0.001  0.000  0.002  0.004
   10  0.018  0.003  0.005  0.026
   11  0.027  0.001  0.016  0.045
   12  0.018  0.003  0.005  0.026
   13  0.027  0.001  0.016  0.045
   14  0.028  0.001  0.016  0.046
   15  0.002  0.000  0.030  0.033
   16  0.018  0.003  0.005  0.026
   17  0.002  0.000  0.030  0.033
   18  0.003  0.000  0.030  0.033
   19  0.025  0.002  0.009  0.036
   20  0.010  0.003  0.008  0.021
   21  0.010  0.003  0.009  0.021
   22  0.003  0.000  0.026  0.029
   23  0.010  0.003  0.009  0.021
   24  0.004  0.000  0.026  0.030
   25  0.026  0.002  0.009  0.037
   26  0.025  0.002  0.009  0.036
   27  0.003  0.000  0.026  0.029
   28  0.009  0.001  0.001  0.012
   29  0.000  0.000  0.004  0.004
   30  0.000  0.000  0.004  0.004
   31  0.000  0.000  0.004  0.004
   32  0.000  0.000  0.004  0.004
   33  0.000  0.000  0.004  0.004
   34  0.000  0.000  0.004  0.004
   35  0.004  0.000  0.001  0.005
   36  0.003  0.000  0.000  0.004
tot    0.302  0.042  0.350  0.694
 
band    10 # energy   -5.86973425 # occ.  2.00000000
 
ion      s      p      d    tot
    1  0.000  0.000  0.000  0.000
    2  0.000  0.000  0.000  0.000
    3  0.000  0.000  0.000  0.000
    4  0.000  0.000  0.000  0.000
    5  0.000  0.000  0.000  0.000
    6  0.000  0.000  0.000  0.000
    7  0.000  0.000  0.000  0.000
    8  0.000  0.000  0.000  0.000
    9  0.000  0.000  0.000  0.000
   10  0.001  0.000  0.005  0.006
   11  0.000  0.000  0.005  0.006
   12  0.001  0.000  0.005  0.006
   13  0.000  0.000  0.005  0.006
   14  0.000  0.000  0.005  0.006
   15  0.000  0.000  0.005  0.005
   16  0.001  0.000  0.005  0.006
   17  0.000  0.000  0.005  0.005
   18  0.000  0.000  0.005  0.005
   19  0.007  0.001  0.025  0.033
   20  0.006  0.001  0.026  0.033
   21  0.006  0.001  0.026  0.033
   22  0.008  0.001  0.026  0.035
   23  0.006  0.001  0.026  0.033
   24  0.008  0.001  0.026  0.035
   25  0.007  0.001  0.025  0.033
   26  0.007  0.001  0.025  0.033
   27  0.008  0.001  0.026  0.035
   28  0.025  0.000  0.021  0.046
   29  0.023  0.000  0.020  0.043
   30  0.023  0.000  0.020  0.043
   31  0.023  0.000  0.020  0.043
   32  0.023  0.000  0.020  0.043
   33  0.023  0.000  0.020  0.043
   34  0.023  0.000  0.020  0.043
   35  0.024  0.000  0.022  0.045
   36  0.020  0.000  0.013  0.032
tot    0.272  0.008  0.452  0.732
 
band    11 # energy   -5.45941885 # occ.  2.00000000
 
ion      s      p      d    tot
    1  0.020  0.002  0.001  0.022
    2  0.000  0.001  0.008  0.009
    3  0.000  0.001  0.008  0.009
    4  0.000  0.001  0.008  0.009
    5  0.003  0.001  0.002  0.007
    6  0.000  0.001  0.008  0.009
    7  0.000  0.001  0.008  0.009
    8  0.000  0.001  0.008  0.009
    9  0.006  0.000  0.000  0.007
   10  0.006  0.002  0.014  0.021
   11  0.008  0.001  0.024  0.032
   12  0.006  0.002  0.013  0.021
   13  0.008  0.001  0.024  0.032
   14  0.007  0.001  0.024  0.032
   15  0.000  0.000  0.042  0.043
   16  0.006  0.002  0.013  0.021
   17  0.000  0.000  0.042  0.043
   18  0.000  0.000  0.043  0.043
   19  0.012  0.002  0.007  0.020
   20  0.000  0.000  0.032  0.033
   21  0.000  0.000  0.032  0.033
   22  0.008  0.001  0.038  0.047
   23  0.000  0.000  0.032  0.033
   24  0.008  0.001  0.038  0.047
   25  0.012  0.002  0.007  0.020
   26  0.012  0.002  0.007  0.020
   27  0.008  0.001  0.038  0.047
   28  0.015  0.002  0.002  0.019
   29  0.000  0.001  0.006  0.007
   30  0.000  0.001  0.006  0.007
   31  0.000  0.001  0.006  0.007
   32  0.000  0.001  0.006  0.007
   33  0.000  0.001  0.006  0.007
   34  0.000  0.001  0.006  0.007
   35  0.003  0.001  0.002  0.005
   36  0.008  0.001  0.000  0.008
tot    0.157  0.030  0.562  0.750
 
band    12 # energy   -5.45531126 # occ.  2.00000000
 
ion      s      p      d    tot
    1  0.000  0.001  0.003  0.004
    2  0.009  0.001  0.004  0.014
    3  0.001  0.000  0.005  0.006
    4  0.009  0.001  0.004  0.014
    5  0.000  0.001  0.011  0.013
    6  0.004  0.001  0.005  0.011
    7  0.001  0.000  0.005  0.006
    8  0.004  0.001  0.005  0.011
    9  0.000  0.000  0.010  0.010
   10  0.007  0.002  0.011  0.020
   11  0.004  0.000  0.047  0.051
   12  0.001  0.001  0.037  0.039
   13  0.004  0.000  0.047  0.051
   14  0.018  0.001  0.010  0.030
   15  0.001  0.001  0.016  0.017
   16  0.002  0.001  0.036  0.039
   17  0.001  0.001  0.016  0.017
   18  0.003  0.000  0.024  0.027
   19  0.002  0.001  0.013  0.017
   20  0.027  0.001  0.008  0.036
   21  0.007  0.000  0.046  0.053
   22  0.001  0.001  0.037  0.039
   23  0.007  0.000  0.046  0.053
   24  0.006  0.001  0.010  0.018
   25  0.007  0.000  0.023  0.031
   26  0.002  0.001  0.013  0.017
   27  0.001  0.001  0.036  0.039
   28  0.000  0.000  0.007  0.007
   29  0.006  0.001  0.004  0.012
   30  0.000  0.000  0.004  0.004
   31  0.006  0.001  0.004  0.012
   32  0.006  0.001  0.003  0.010
   33  0.000  0.000  0.004  0.004
   34  0.006  0.001  0.003  0.010
   35  0.000  0.000  0.003  0.004
   36  0.000  0.002  0.005  0.008
tot    0.153  0.030  0.567  0.751
 
band    13 # energy   -5.45530022 # occ.  2.00000000
 
ion      s      p      d    tot
    1  0.000  0.001  0.003  0.004
    2  0.000  0.001  0.005  0.006
    3  0.009  0.001  0.005  0.015
    4  0.000  0.001  0.005  0.006
    5  0.000  0.001  0.011  0.013
    6  0.005  0.001  0.004  0.010
    7  0.009  0.001  0.005  0.015
    8  0.005  0.001  0.004  0.010
    9  0.000  0.000  0.010  0.011
   10  0.000  0.001  0.045  0.046
   11  0.013  0.001  0.023  0.037
   12  0.005  0.002  0.019  0.026
   13  0.013  0.001  0.022  0.037
   14  0.000  0.000  0.059  0.059
   15  0.002  0.000  0.021  0.024
   16  0.005  0.002  0.020  0.026
   17  0.002  0.000  0.021  0.024
   18  0.000  0.001  0.013  0.014
   19  0.006  0.000  0.020  0.026
   20  0.000  0.000  0.059  0.059
   21  0.020  0.001  0.021  0.041
   22  0.005  0.001  0.019  0.025
   23  0.020  0.001  0.021  0.041
   24  0.000  0.001  0.046  0.047
   25  0.000  0.001  0.010  0.011
   26  0.006  0.000  0.020  0.026
   27  0.005  0.001  0.019  0.025
   28  0.000  0.000  0.007  0.007
   29  0.002  0.000  0.003  0.005
   30  0.008  0.001  0.004  0.013
   31  0.002  0.000  0.003  0.005
   32  0.002  0.001  0.004  0.007
   33  0.008  0.001  0.004  0.013
   34  0.002  0.001  0.004  0.007
   35  0.000  0.000  0.004  0.004
   36  0.000  0.002  0.005  0.008
tot    0.153  0.030  0.567  0.751
 
band    14 # energy   -5.45203340 # occ.  2.00000000
 
ion      s      p      d    tot
    1  0.000  0.000  0.002  0.002
    2  0.000  0.001  0.009  0.010
    3  0.000  0.001  0.008  0.009
    4  0.000  0.001  0.009  0.010
    5  0.015  0.001  0.000  0.017
    6  0.000  0.001  0.008  0.008
    7  0.000  0.001  0.008  0.009
    8  0.000  0.001  0.008  0.008
    9  0.013  0.002  0.002  0.016
   10  0.004  0.000  0.037  0.041
   11  0.001  0.001  0.032  0.034
   12  0.003  0.000  0.044  0.047
   13  0.001  0.001  0.032  0.034
   14  0.002  0.001  0.024  0.027
   15  0.008  0.002  0.010  0.020
   16  0.003  0.000  0.044  0.046
   17  0.008  0.002  0.010  0.020
   18  0.012  0.002  0.009  0.022
   19  0.001  0.000  0.044  0.045
   20  0.012  0.001  0.022  0.036
   21  0.013  0.001  0.018  0.032
   22  0.007  0.001  0.015  0.023
   23  0.013  0.001  0.018  0.032
   24  0.003  0.001  0.012  0.017
   25  0.003  0.000  0.046  0.049
   26  0.001  0.000  0.044  0.045
   27  0.007  0.001  0.015  0.023
   28  0.000  0.000  0.001  0.002
   29  0.000  0.001  0.006  0.006
   30  0.000  0.001  0.006  0.007
   31  0.000  0.001  0.006  0.006
   32  0.000  0.001  0.006  0.006
   33  0.000  0.001  0.006  0.007
   34  0.000  0.001  0.006  0.006
   35  0.013  0.001  0.000  0.015
   36  0.013  0.002  0.002  0.017
tot    0.156  0.031  0.567  0.754
 
band    15 # energy   -5.45171209 # occ.  2.00000000
 
ion      s      p      d    tot
    1  0.000  0.001  0.014  0.015
    2  0.009  0.001  0.004  0.015
    3  0.001  0.000  0.005  0.006
    4  0.009  0.001  0.004  0.015
    5  0.000  0.000  0.005  0.006
    6  0.004  0.001  0.005  0.011
    7  0.001  0.000  0.005  0.006
    8  0.004  0.001  0.005  0.011
    9  0.000  0.001  0.006  0.007
   10  0.000  0.001  0.034  0.034
   11  0.000  0.001  0.020  0.021
   12  0.008  0.000  0.023  0.031
   13  0.000  0.001  0.020  0.021
   14  0.000  0.001  0.018  0.019
   15  0.011  0.002  0.021  0.033
   16  0.008  0.000  0.023  0.032
   17  0.011  0.002  0.021  0.034
   18  0.000  0.000  0.063  0.063
   19  0.015  0.001  0.020  0.036
   20  0.000  0.002  0.018  0.020
   21  0.000  0.001  0.020  0.021
   22  0.016  0.001  0.021  0.038
   23  0.000  0.001  0.020  0.021
   24  0.000  0.001  0.030  0.031
   25  0.000  0.000  0.067  0.067
   26  0.015  0.001  0.020  0.036
   27  0.016  0.001  0.021  0.038
   28  0.000  0.001  0.005  0.006
   29  0.005  0.001  0.004  0.011
   30  0.000  0.000  0.004  0.004
   31  0.005  0.001  0.004  0.011
   32  0.005  0.001  0.003  0.009
   33  0.000  0.000  0.004  0.004
   34  0.005  0.001  0.003  0.009
   35  0.000  0.001  0.009  0.010
   36  0.000  0.000  0.002  0.002
tot    0.151  0.029  0.571  0.751
 
band    16 # energy   -5.45168504 # occ.  2.00000000
 
ion      s      p      d    tot
    1  0.000  0.001  0.014  0.015
    2  0.000  0.001  0.005  0.006
    3  0.009  0.001  0.005  0.015
    4  0.000  0.001  0.005  0.006
    5  0.000  0.000  0.005  0.006
    6  0.005  0.001  0.005  0.011
    7  0.009  0.001  0.005  0.015
    8  0.005  0.001  0.005  0.011
    9  0.000  0.001  0.006  0.008
   10  0.009  0.000  0.024  0.034
   11  0.000  0.001  0.016  0.018
   12  0.003  0.000  0.028  0.032
   13  0.000  0.001  0.016  0.017
   14  0.000  0.001  0.025  0.026
   15  0.005  0.001  0.049  0.054
   16  0.003  0.000  0.028  0.032
   17  0.005  0.001  0.048  0.054
   18  0.012  0.002  0.007  0.021
   19  0.006  0.000  0.052  0.058
   20  0.000  0.000  0.018  0.018
   21  0.000  0.001  0.020  0.022
   22  0.004  0.001  0.026  0.031
   23  0.000  0.001  0.020  0.022
   24  0.023  0.001  0.020  0.044
   25  0.019  0.001  0.004  0.024
   26  0.006  0.001  0.052  0.058
   27  0.004  0.001  0.026  0.031
   28  0.000  0.001  0.005  0.006
   29  0.001  0.000  0.003  0.005
   30  0.007  0.001  0.003  0.011
   31  0.001  0.000  0.003  0.005
   32  0.002  0.001  0.004  0.007
   33  0.007  0.001  0.003  0.011
   34  0.002  0.001  0.004  0.007
   35  0.000  0.001  0.009  0.010
   36  0.000  0.000  0.002  0.002
tot    0.151  0.029  0.571  0.751
 
band    17 # energy   -5.07629989 # occ.  2.00000000
 
ion      s      p      d    tot
    1  0.003  0.001  0.005  0.009
    2  0.000  0.001  0.020  0.021
    3  0.000  0.001  0.021  0.022
    4  0.000  0.001  0.020  0.021
    5  0.025  0.001  0.003  0.028
    6  0.000  0.001  0.020  0.021
    7  0.000  0.001  0.021  0.022
    8  0.000  0.001  0.020  0.021
    9  0.012  0.000  0.014  0.026
   10  0.000  0.000  0.041  0.041
   11  0.000  0.000  0.030  0.031
   12  0.000  0.000  0.037  0.037
   13  0.000  0.000  0.030  0.031
   14  0.000  0.000  0.027  0.028
   15  0.000  0.000  0.039  0.040
   16  0.000  0.000  0.037  0.037
   17  0.000  0.000  0.039  0.040
   18  0.000  0.000  0.037  0.038
   19  0.001  0.000  0.028  0.029
   20  0.000  0.000  0.023  0.023
   21  0.000  0.000  0.020  0.020
   22  0.001  0.000  0.020  0.021
   23  0.000  0.000  0.020  0.020
   24  0.001  0.000  0.019  0.020
   25  0.001  0.000  0.027  0.028
   26  0.001  0.000  0.028  0.029
   27  0.001  0.000  0.020  0.021
   28  0.011  0.000  0.005  0.017
   29  0.000  0.001  0.011  0.012
   30  0.000  0.001  0.011  0.011
   31  0.000  0.001  0.012  0.012
   32  0.000  0.000  0.012  0.012
   33  0.000  0.001  0.011  0.011
   34  0.000  0.000  0.012  0.012
   35  0.001  0.000  0.004  0.005
   36  0.008  0.001  0.000  0.009
tot    0.065  0.015  0.746  0.826
 
band    18 # energy   -5.07582746 # occ.  2.00000000
 
ion      s      p      d    tot
    1  0.000  0.001  0.019  0.019
    2  0.013  0.001  0.013  0.027
    3  0.004  0.001  0.011  0.016
    4  0.013  0.001  0.013  0.027
    5  0.000  0.000  0.034  0.035
    6  0.003  0.000  0.017  0.020
    7  0.004  0.001  0.011  0.016
    8  0.003  0.000  0.017  0.020
    9  0.000  0.002  0.009  0.011
   10  0.000  0.000  0.008  0.008
   11  0.000  0.001  0.039  0.039
   12  0.000  0.000  0.018  0.018
   13  0.000  0.001  0.039  0.039
   14  0.000  0.000  0.043  0.043
   15  0.000  0.000  0.050  0.050
   16  0.000  0.000  0.018  0.018
   17  0.000  0.000  0.050  0.050
   18  0.000  0.000  0.045  0.045
   19  0.001  0.000  0.010  0.011
   20  0.000  0.000  0.014  0.014
   21  0.001  0.000  0.028  0.030
   22  0.000  0.000  0.038  0.038
   23  0.001  0.000  0.028  0.030
   24  0.000  0.000  0.029  0.030
   25  0.000  0.000  0.011  0.011
   26  0.001  0.000  0.010  0.011
   27  0.000  0.000  0.038  0.038
   28  0.000  0.000  0.013  0.013
   29  0.003  0.000  0.006  0.009
   30  0.007  0.000  0.009  0.017
   31  0.003  0.000  0.006  0.009
   32  0.001  0.000  0.008  0.010
   33  0.007  0.000  0.009  0.017
   34  0.001  0.000  0.008  0.010
   35  0.000  0.000  0.018  0.019
   36  0.000  0.002  0.003  0.005
tot    0.067  0.016  0.740  0.823
 
band    19 # energy   -5.07582266 # occ.  2.00000000
 
ion      s      p      d    tot
    1  0.000  0.001  0.019  0.019
    2  0.000  0.001  0.015  0.015
    3  0.009  0.001  0.016  0.026
    4  0.000  0.001  0.015  0.015
    5  0.000  0.000  0.034  0.035
    6  0.010  0.001  0.011  0.022
    7  0.009  0.001  0.016  0.026
    8  0.010  0.001  0.011  0.022
    9  0.000  0.002  0.009  0.011
   10  0.000  0.000  0.019  0.019
   11  0.000  0.000  0.041  0.041
   12  0.000  0.000  0.012  0.012
   13  0.000  0.000  0.041  0.041
   14  0.000  0.001  0.038  0.039
   15  0.000  0.000  0.045  0.046
   16  0.000  0.000  0.012  0.013
   17  0.000  0.000  0.045  0.046
   18  0.000  0.000  0.054  0.054
   19  0.000  0.000  0.010  0.011
   20  0.002  0.000  0.031  0.033
   21  0.000  0.000  0.020  0.020
   22  0.000  0.000  0.032  0.032
   23  0.000  0.000  0.020  0.021
   24  0.000  0.000  0.041  0.041
   25  0.001  0.000  0.011  0.012
   26  0.000  0.000  0.010  0.011
   27  0.000  0.000  0.032  0.032
   28  0.000  0.000  0.013  0.013
   29  0.005  0.000  0.009  0.015
   30  0.000  0.000  0.007  0.008
   31  0.005  0.000  0.009  0.015
   32  0.006  0.001  0.007  0.013
   33  0.000  0.000  0.007  0.008
   34  0.006  0.001  0.007  0.014
   35  0.000  0.000  0.018  0.019
   36  0.000  0.002  0.003  0.005
tot    0.067  0.016  0.740  0.823
 
band    20 # energy   -5.07307773 # occ.  2.00000000
 
ion      s      p      d    tot
    1  0.021  0.000  0.010  0.032
    2  0.000  0.001  0.020  0.021
    3  0.000  0.001  0.020  0.021
    4  0.000  0.001  0.020  0.021
    5  0.001  0.000  0.013  0.014
    6  0.000  0.001  0.020  0.021
    7  0.000  0.001  0.020  0.021
    8  0.000  0.001  0.020  0.021
    9  0.014  0.001  0.000  0.015
   10  0.000  0.000  0.034  0.035
   11  0.000  0.000  0.041  0.042
   12  0.000  0.000  0.034  0.034
   13  0.000  0.000  0.041  0.042
   14  0.000  0.000  0.042  0.042
   15  0.000  0.000  0.030  0.031
   16  0.000  0.000  0.034  0.034
   17  0.000  0.000  0.030  0.031
   18  0.000  0.000  0.030  0.030
   19  0.000  0.000  0.019  0.020
   20  0.001  0.000  0.026  0.027
   21  0.001  0.000  0.026  0.027
   22  0.000  0.000  0.026  0.026
   23  0.001  0.000  0.026  0.027
   24  0.000  0.000  0.026  0.027
   25  0.000  0.000  0.019  0.019
   26  0.000  0.000  0.019  0.020
   27  0.000  0.000  0.026  0.026
   28  0.003  0.000  0.000  0.004
   29  0.000  0.001  0.011  0.012
   30  0.000  0.001  0.011  0.012
   31  0.000  0.001  0.011  0.012
   32  0.000  0.001  0.011  0.012
   33  0.000  0.001  0.011  0.012
   34  0.000  0.001  0.011  0.012
   35  0.013  0.001  0.002  0.016
   36  0.006  0.000  0.005  0.010
tot    0.063  0.015  0.747  0.826
 
band    21 # energy   -5.06215528 # occ.  2.00000000
 
ion      s      p      d    tot
    1  0.000  0.001  0.023  0.024
    2  0.013  0.001  0.014  0.028
    3  0.004  0.001  0.011  0.017
    4  0.013  0.001  0.014  0.027
    5  0.000  0.001  0.007  0.009
    6  0.002  0.000  0.018  0.021
    7  0.004  0.001  0.011  0.017
    8  0.003  0.000  0.018  0.021
    9  0.000  0.000  0.032  0.032
   10  0.000  0.001  0.057  0.058
   11  0.000  0.000  0.029  0.029
   12  0.000  0.000  0.063  0.063
   13  0.000  0.000  0.029  0.029
   14  0.000  0.000  0.041  0.041
   15  0.000  0.000  0.021  0.021
   16  0.000  0.000  0.062  0.063
   17  0.000  0.000  0.020  0.021
   18  0.000  0.001  0.022  0.023
   19  0.000  0.000  0.029  0.030
   20  0.000  0.000  0.025  0.025
   21  0.000  0.000  0.021  0.022
   22  0.001  0.000  0.009  0.009
   23  0.000  0.000  0.021  0.022
   24  0.003  0.000  0.014  0.017
   25  0.001  0.000  0.042  0.044
   26  0.000  0.000  0.029  0.029
   27  0.001  0.000  0.009  0.009
   28  0.000  0.001  0.010  0.011
   29  0.002  0.000  0.005  0.007
   30  0.005  0.000  0.005  0.011
   31  0.002  0.000  0.005  0.007
   32  0.001  0.000  0.007  0.008
   33  0.005  0.000  0.005  0.011
   34  0.001  0.000  0.007  0.008
   35  0.000  0.001  0.006  0.006
   36  0.000  0.000  0.007  0.007
tot    0.062  0.016  0.747  0.825
 
band    22 # energy   -5.06215378 # occ.  2.00000000
 
ion      s      p      d    tot
    1  0.000  0.001  0.023  0.024
    2  0.000  0.001  0.015  0.016
    3  0.009  0.001  0.017  0.027
    4  0.000  0.001  0.015  0.016
    5  0.000  0.001  0.007  0.009
    6  0.011  0.001  0.011  0.023
    7  0.009  0.001  0.017  0.027
    8  0.011  0.001  0.011  0.022
    9  0.000  0.000  0.032  0.032
   10  0.000  0.000  0.064  0.064
   11  0.000  0.000  0.037  0.037
   12  0.000  0.001  0.059  0.060
   13  0.000  0.000  0.037  0.037
   14  0.000  0.000  0.025  0.025
   15  0.000  0.001  0.022  0.022
   16  0.000  0.001  0.059  0.060