 vasp.6.2.0 18Jan21 (build Jun 12 2021 23:27:24) complex                        
  
 executed on             LinuxIFC date 2022.05.26  19:48:46
 running on   28 total cores
 distrk:  each k-point on   28 cores,    1 groups
 distr:  one band on NCORE=   1 cores,   28 groups


--------------------------------------------------------------------------------------------------------


 INCAR:
   ISMEAR = -5
   SIGMA = 0.1
   ISPIN = 1
   EDIFF = 1.d-5
   EDIFFG = -0.01
   NSW = 0
   NELM = 150
   ENCUT = 500
   ISIF = 2
   IBRION = 2
   LREAL = Auto
   ALGO = Fast
   ICHARG = 11
   LORBIT = 10
   LCHARG = .F.
   LWAVE = .F.

 POTCAR:    PAW_PBE Ag 02Apr2005                  
 POTCAR:    PAW_PBE Rh 04Feb2005                  
 POTCAR:    PAW_PBE O 08Apr2002                   
 -----------------------------------------------------------------------------
|                                                                             |
|           W    W    AA    RRRRR   N    N  II  N    N   GGGG   !!!           |
|           W    W   A  A   R    R  NN   N  II  NN   N  G    G  !!!           |
|           W    W  A    A  R    R  N N  N  II  N N  N  G       !!!           |
|           W WW W  AAAAAA  RRRRR   N  N N  II  N  N N  G  GGG   !            |
|           WW  WW  A    A  R   R   N   NN  II  N   NN  G    G                |
|           W    W  A    A  R    R  N    N  II  N    N   GGGG   !!!           |
|                                                                             |
|     For optimal performance we recommend to set                             |
|       NCORE = 2 up to number-of-cores-per-socket                            |
|     NCORE specifies how many cores store one orbital (NPAR=cpu/NCORE).      |
|     This setting can greatly improve the performance of VASP for DFT.       |
|     The default, NCORE=1 might be grossly inefficient on modern             |
|     multi-core architectures or massively parallel machines. Do your        |
|     own testing! More info at https://www.vasp.at/wiki/index.php/NCORE      |
|     Unfortunately you need to use the default for GW and RPA                |
|     calculations (for HF NCORE is supported but not extensively tested      |
|     yet).                                                                   |
|                                                                             |
 -----------------------------------------------------------------------------

 POTCAR:    PAW_PBE Ag 02Apr2005                  
   VRHFIN =Ag : s1 d10                                                                              
   LEXCH  = PE                                                                                      
   EATOM  =  1037.2675 eV,   76.2370 Ry                                                             
                                                                                                    
   TITEL  = PAW_PBE Ag 02Apr2005                                                                    
   LULTRA =        F    use ultrasoft PP ?                                                          
   IUNSCR =        1    unscreen: 0-lin 1-nonlin 2-no                                               
   RPACOR =    2.000    partial core radius                                                         
   POMASS =  107.868; ZVAL   =   11.000    mass and valenz                                          
   RCORE  =    2.500    outmost cutoff radius                                                       
   RWIGS  =    2.840; RWIGS  =    1.503    wigner-seitz radius (au A)                               
   ENMAX  =  249.844; ENMIN  =  187.383 eV                                                          
   ICORE  =        3    local potential                                                             
   LCOR   =        T    correct aug charges                                                         
   LPAW   =        T    paw PP                                                                      
   EAUG   =  412.496                                                                                
   DEXC   =    0.000                                                                                
   RMAX   =    2.560    core radius for proj-oper                                                   
   RAUG   =    1.300    factor for augmentation sphere                                              
   RDEP   =    2.576    radius for radial grids                                                     
   RDEPT  =    2.072    core radius for aug-charge                                                  
                                                                                                    
   Atomic configuration                                                                             
   12 entries                                                                                       
     n  l   j            E        occ.                                                              
     1  0  0.50    -25324.9161   2.0000                                                             
     2  0  0.50     -3728.5341   2.0000                                                             
     2  1  1.50     -3344.0404   6.0000                                                             
     3  0  0.50      -683.5581   2.0000                                                             
     3  1  1.50      -557.3225   6.0000                                                             
     3  2  2.50      -358.3853  10.0000                                                             
     4  0  0.50       -95.0341   2.0000                                                             
     4  1  1.50       -58.5511   6.0000                                                             
     4  2  2.50        -7.4440  10.0000                                                             
     5  0  0.50        -4.4045   1.0000                                                             
     5  1  0.50        -1.3606   0.0000                                                             
     4  3  2.50        -1.3606   0.0000                                                             
   Description                                                                                      
     l       E           TYP  RCUT    TYP  RCUT                                                     
     2     -7.4439781     23  2.400                                                                 
     2     -8.8045607     23  2.400                                                                 
     0     -4.4044681     23  2.400                                                                 
     0      1.9520038     23  2.400                                                                 
     1     -1.3605826     23  2.500                                                                 
     1     27.2116520     23  2.500                                                                 
     3     -4.0817478     23  2.400                                                                 
  local pseudopotential read in
  partial core-charges read in
  partial kinetic energy density read in
  atomic valenz-charges read in
  non local Contribution for L=           2  read in
    real space projection operators read in
  non local Contribution for L=           2  read in
    real space projection operators read in
  non local Contribution for L=           0  read in
    real space projection operators read in
  non local Contribution for L=           0  read in
    real space projection operators read in
  non local Contribution for L=           1  read in
    real space projection operators read in
  non local Contribution for L=           1  read in
    real space projection operators read in
    PAW grid and wavefunctions read in
 
   number of l-projection  operators is LMAX  =           6
   number of lm-projection operators is LMMAX =          18
 
 POTCAR:    PAW_PBE Rh 04Feb2005                  
   VRHFIN =Rh: s1 d8                                                                                
   LEXCH  = PE                                                                                      
   EATOM  =   616.4198 eV,   45.3056 Ry                                                             
                                                                                                    
   TITEL  = PAW_PBE Rh 04Feb2005                                                                    
   LULTRA =        F    use ultrasoft PP ?                                                          
   IUNSCR =        1    unscreen: 0-lin 1-nonlin 2-no                                               
   RPACOR =    2.170    partial core radius                                                         
   POMASS =  102.906; ZVAL   =    9.000    mass and valenz                                          
   RCORE  =    2.700    outmost cutoff radius                                                       
   RWIGS  =    2.650; RWIGS  =    1.402    wigner-seitz radius (au A)                               
   ENMAX  =  228.996; ENMIN  =  171.747 eV                                                          
   ICORE  =        3    local potential                                                             
   LCOR   =        T    correct aug charges                                                         
   LPAW   =        T    paw PP                                                                      
   EAUG   =  374.513                                                                                
   DEXC   =    0.000                                                                                
   RMAX   =    2.752    core radius for proj-oper                                                   
   RAUG   =    1.300    factor for augmentation sphere                                              
   RDEP   =    2.703    radius for radial grids                                                     
   RDEPT  =    2.174    core radius for aug-charge                                                  
                                                                                                    
   Atomic configuration                                                                             
   12 entries                                                                                       
     n  l   j            E        occ.                                                              
     1  0  0.50    -23034.1986   2.0000                                                             
     2  0  0.50     -3339.2387   2.0000                                                             
     2  1  1.50     -2992.3290   6.0000                                                             
     3  0  0.50      -596.7249   2.0000                                                             
     3  1  1.50      -482.7183   6.0000                                                             
     3  2  2.50      -300.5356  10.0000                                                             
     4  0  0.50       -82.4809   2.0000                                                             
     4  1  0.50       -50.4082   6.0000                                                             
     4  2  2.50        -5.9408   8.0000                                                             
     5  0  0.50        -4.2999   1.0000                                                             
     5  1  1.50        -1.3606   0.0000                                                             
     4  3  2.50        -1.3606   0.0000                                                             
   Description                                                                                      
     l       E           TYP  RCUT    TYP  RCUT                                                     
     2     -5.9407964     23  2.500                                                                 
     2     -7.3013790     23  2.500                                                                 
     0     -4.2998518     23  2.400                                                                 
     0      6.0533315     23  2.400                                                                 
     1     -4.0817478     23  2.700                                                                 
     1     27.2116520     23  2.700                                                                 
     3     -4.0817478     23  2.500                                                                 
  local pseudopotential read in
  partial core-charges read in
  partial kinetic energy density read in
  atomic valenz-charges read in
  non local Contribution for L=           2  read in
    real space projection operators read in
  non local Contribution for L=           2  read in
    real space projection operators read in
  non local Contribution for L=           0  read in
    real space projection operators read in
  non local Contribution for L=           0  read in
    real space projection operators read in
  non local Contribution for L=           1  read in
    real space projection operators read in
  non local Contribution for L=           1  read in
    real space projection operators read in
    PAW grid and wavefunctions read in
 
   number of l-projection  operators is LMAX  =           6
   number of lm-projection operators is LMMAX =          18
 
 POTCAR:    PAW_PBE O 08Apr2002                   
   VRHFIN =O: s2p4                                                                                  
   LEXCH  = PE                                                                                      
   EATOM  =   432.3788 eV,   31.7789 Ry                                                             
                                                                                                    
   TITEL  = PAW_PBE O 08Apr2002                                                                     
   LULTRA =        F    use ultrasoft PP ?                                                          
   IUNSCR =        1    unscreen: 0-lin 1-nonlin 2-no                                               
   RPACOR =    1.200    partial core radius                                                         
   POMASS =   16.000; ZVAL   =    6.000    mass and valenz                                          
   RCORE  =    1.520    outmost cutoff radius                                                       
   RWIGS  =    1.550; RWIGS  =    0.820    wigner-seitz radius (au A)                               
   ENMAX  =  400.000; ENMIN  =  300.000 eV                                                          
   ICORE  =        2    local potential                                                             
   LCOR   =        T    correct aug charges                                                         
   LPAW   =        T    paw PP                                                                      
   EAUG   =  605.392                                                                                
   DEXC   =    0.000                                                                                
   RMAX   =    1.553    core radius for proj-oper                                                   
   RAUG   =    1.300    factor for augmentation sphere                                              
   RDEP   =    1.550    radius for radial grids                                                     
   RDEPT  =    1.329    core radius for aug-charge                                                  
                                                                                                    
   Atomic configuration                                                                             
    4 entries                                                                                       
     n  l   j            E        occ.                                                              
     1  0  0.50      -514.6923   2.0000                                                             
     2  0  0.50       -23.9615   2.0000                                                             
     2  1  0.50        -9.0305   4.0000                                                             
     3  2  1.50        -9.5241   0.0000                                                             
   Description                                                                                      
     l       E           TYP  RCUT    TYP  RCUT                                                     
     0    -23.9615318     23  1.200                                                                 
     0     -9.5240782     23  1.200                                                                 
     1     -9.0304911     23  1.520                                                                 
     1      8.1634956     23  1.520                                                                 
     2     -9.5240782      7  1.500                                                                 
  local pseudopotential read in
  partial core-charges read in
  partial kinetic energy density read in
  kinetic energy density of atom read in
  atomic valenz-charges read in
  non local Contribution for L=           0  read in
    real space projection operators read in
  non local Contribution for L=           0  read in
    real space projection operators read in
  non local Contribution for L=           1  read in
    real space projection operators read in
  non local Contribution for L=           1  read in
    real space projection operators read in
    PAW grid and wavefunctions read in
 
   number of l-projection  operators is LMAX  =           4
   number of lm-projection operators is LMMAX =           8
 
 Optimization of the real space projectors (new method)

 maximal supplied QI-value         = 15.12
 optimisation between [QCUT,QGAM] = [ 11.34, 22.83] = [ 36.00,145.93] Ry 
 Optimized for a Real-space Cutoff    1.43 Angstroem

   l    n(q)    QCUT    max X(q) W(low)/X(q) W(high)/X(q)  e(spline) 
   2      9    11.338    53.897    0.16E-03    0.20E-03    0.28E-06
   2      9    11.338    52.416    0.16E-03    0.20E-03    0.29E-06
   0     10    11.338   122.045    0.31E-04    0.76E-04    0.15E-06
   0     10    11.338    73.629    0.30E-04    0.72E-04    0.15E-06
   1      9    11.338    15.255    0.20E-03    0.19E-04    0.17E-06
   1      9    11.338     9.562    0.16E-03    0.15E-04    0.14E-06
 Optimization of the real space projectors (new method)

 maximal supplied QI-value         = 13.98
 optimisation between [QCUT,QGAM] = [ 11.33, 22.79] = [ 35.93,145.49] Ry 
 Optimized for a Real-space Cutoff    1.47 Angstroem

   l    n(q)    QCUT    max X(q) W(low)/X(q) W(high)/X(q)  e(spline) 
   2      9    11.327    59.645    0.31E-03    0.12E-04    0.28E-06
   2      9    11.327    58.460    0.31E-03    0.12E-04    0.29E-06
   0     10    11.327    97.683    0.32E-04    0.83E-04    0.31E-06
   0     10    11.327    53.223    0.30E-04    0.78E-04    0.29E-06
   1     10    11.327    13.596    0.49E-03    0.95E-03    0.55E-06
   1     10    11.327     7.885    0.36E-03    0.71E-03    0.41E-06
 Optimization of the real space projectors (new method)

 maximal supplied QI-value         = 24.76
 optimisation between [QCUT,QGAM] = [ 11.39, 22.77] = [ 36.31,145.25] Ry 
 Optimized for a Real-space Cutoff    1.00 Angstroem

   l    n(q)    QCUT    max X(q) W(low)/X(q) W(high)/X(q)  e(spline) 
   0      7    11.387    20.381    0.39E-03    0.13E-02    0.15E-06
   0      7    11.387    15.268    0.42E-03    0.14E-02    0.17E-06
   1      6    11.387     5.964    0.41E-03    0.11E-02    0.17E-06
   1      6    11.387     5.382    0.39E-03    0.87E-03    0.15E-06
  PAW_PBE Ag 02Apr2005                  :
 energy of atom  1       EATOM=-1037.2675
 kinetic energy error for atom=    0.0052 (will be added to EATOM!!)
  PAW_PBE Rh 04Feb2005                  :
 energy of atom  2       EATOM= -616.4198
 kinetic energy error for atom=    0.0030 (will be added to EATOM!!)
  PAW_PBE O 08Apr2002                   :
 energy of atom  3       EATOM= -432.3788
 kinetic energy error for atom=    0.0224 (will be added to EATOM!!)
 
 
 POSCAR: Ag-Rh-O
  positions in direct lattice
  velocities in cartesian coordinates
 exchange correlation table for  LEXCH =        8
   RHO(1)=    0.500       N(1)  =     2000
   RHO(2)=  100.500       N(2)  =     4000

 VTST: version 3.2, (02/03/18)

 CHAIN: initializing optimizer
 
 OPT: Using VASP Conjugate-Gradient optimizer
 CHAIN: Read ICHAIN            0
 
 POSCAR: Ag-Rh-O
  positions in direct lattice
  velocities in cartesian coordinates
 


--------------------------------------------------------------------------------------------------------


 ion  position               nearest neighbor table
   1  0.000  0.000  0.238-   2 2.93   8 2.93   7 2.93   6 2.93   4 2.93  12 2.93  16 2.93  10 2.93
                             3 2.93
   2  0.333  0.000  0.238-   1 2.93   8 2.93   9 2.93   3 2.93   4 2.93   5 2.93  10 2.93  17 2.93
                            11 2.93
   3  0.667  0.000  0.238-   9 2.93   2 2.93   5 2.93  11 2.93   7 2.93  18 2.93   1 2.93   6 2.93
                            12 2.93
   4  0.000  0.333  0.238-   5 2.93   6 2.93   2 2.93   1 2.93   7 2.93  13 2.93  15 2.93   9 2.93
                            10 2.93
   5  0.333  0.333  0.238-   4 2.93   3 2.93   7 2.93   2 2.93   8 2.93  14 2.93  13 2.93  11 2.93
                             6 2.93
   6  0.667  0.333  0.238-   4 2.93   9 2.93   1 2.93  15 2.93   8 2.93  12 2.93   3 2.93   5 2.93
                            14 2.93
   7  0.000  0.667  0.238-   8 2.93   1 2.93   5 2.93   3 2.93   4 2.93  16 2.93  18 2.93  13 2.93
                             9 2.93
   8  0.333  0.667  0.238-   7 2.93   1 2.93   2 2.93   9 2.93   5 2.93  16 2.93   6 2.93  17 2.93
                            14 2.93
   9  0.667  0.667  0.238-   3 2.93   2 2.93   8 2.93   6 2.93  17 2.93   4 2.93  15 2.93   7 2.93
                            18 2.93
  10  0.111  0.111  0.346-  20 2.90  19 2.93  26 2.93  12 2.93  16 2.93  15 2.93  17 2.93  13 2.93
                            11 2.93   2 2.93   1 2.93   4 2.93
  11  0.444  0.111  0.346-  21 2.90  20 2.90  27 2.92  14 2.93  17 2.93  18 2.93   3 2.93  12 2.93
                            13 2.93  10 2.93   5 2.93   2 2.93
  12  0.778  0.111  0.346-  21 2.90  25 2.93  19 2.93  10 2.93  16 2.93  18 2.93  15 2.93  11 2.93
                             1 2.93  14 2.93   6 2.93   3 2.93
  13  0.111  0.444  0.346-  20 2.90  23 2.90  22 2.92  15 2.93  14 2.93  18 2.93  10 2.93  11 2.93
                            16 2.93   4 2.93   5 2.93   7 2.93
  14  0.444  0.444  0.346-  23 2.90  21 2.90  24 2.92  13 2.93  11 2.93  16 2.93   5 2.93  12 2.93
                            17 2.93   8 2.93  15 2.93   6 2.93
  15  0.778  0.444  0.346-  24 2.92  22 2.92  19 2.92  13 2.93  10 2.93  12 2.93  17 2.93  18 2.93
                             4 2.93   6 2.93   9 2.93  14 2.93
  16  0.111  0.778  0.346-  23 2.90  26 2.93  25 2.93  18 2.93  12 2.93  10 2.93  14 2.93  17 2.93
                            13 2.93   7 2.93   8 2.93   1 2.93
  17  0.444  0.778  0.346-  27 2.92  24 2.92  26 2.92  11 2.93  10 2.93   9 2.93  18 2.93  15 2.93
                            16 2.93   2 2.93  14 2.93   8 2.93
  18  0.778  0.778  0.346-  22 2.92  27 2.92  25 2.92  16 2.93  12 2.93  13 2.93  11 2.93  17 2.93
                            15 2.93   7 2.93   3 2.93   9 2.93
  19  0.889  0.223  0.454-  28 2.91  15 2.92  10 2.93  12 2.93  24 2.93  22 2.93  32 2.93  31 2.93
                            20 2.93  21 2.93  26 2.94  25 2.94
  20  0.222  0.222  0.452-  36 2.78  13 2.90  11 2.90  10 2.90  31 2.91  29 2.91  21 2.92  23 2.92
                            27 2.93  22 2.93  19 2.93  26 2.93
  21  0.555  0.222  0.452-  36 2.78  11 2.90  14 2.90  12 2.90  30 2.91  32 2.91  20 2.92  23 2.92
                            27 2.93  24 2.93  25 2.93  19 2.93
  22  0.889  0.556  0.453-  35 2.90  18 2.92  15 2.92  13 2.92  33 2.92  31 2.92  25 2.93  19 2.93
                            24 2.93  27 2.93  23 2.93  20 2.93
  23  0.222  0.555  0.452-  36 2.78  14 2.90  13 2.90  16 2.90  34 2.91  33 2.91  21 2.92  20 2.92
                            22 2.93  24 2.93  26 2.93  25 2.93
  24  0.556  0.556  0.453-  35 2.90  15 2.92  17 2.92  14 2.92  32 2.92  34 2.92  19 2.93  26 2.93
                            27 2.93  22 2.93  23 2.93  21 2.93
  25  0.889  0.889  0.454-  28 2.91  18 2.92  16 2.93  12 2.93  22 2.93  27 2.93  33 2.93  30 2.93
                            23 2.93  21 2.93  26 2.94  19 2.94
  26  0.223  0.889  0.454-  28 2.91  17 2.92  16 2.93  10 2.93  27 2.93  24 2.93  34 2.93  29 2.93
                            23 2.93  20 2.93  25 2.94  19 2.94
  27  0.556  0.889  0.453-  35 2.90  17 2.92  18 2.92  11 2.92  29 2.92  30 2.92  26 2.93  25 2.93
                            24 2.93  22 2.93  20 2.93  21 2.93
  28  0.000  0.000  0.560-  26 2.91  25 2.91  19 2.91  29 2.95  34 2.95  33 2.95  32 2.95  31 2.95
                            30 2.95
  29  0.333  0.005  0.560-  31 2.88  30 2.89  36 2.89  20 2.91  27 2.92  26 2.93  28 2.95  35 2.95
                            34 3.02
  30  0.662  0.005  0.560-  32 2.88  29 2.89  36 2.89  21 2.91  27 2.92  25 2.93  28 2.95  35 2.95
                            33 3.02
  31  0.005  0.333  0.560-  29 2.88  33 2.89  36 2.89  20 2.91  22 2.92  19 2.93  28 2.95  35 2.95
                            32 3.02
  32  0.662  0.333  0.560-  30 2.88  34 2.89  36 2.89  21 2.91  24 2.92  19 2.93  28 2.95  35 2.95
                            31 3.02
  33  0.005  0.662  0.560-  34 2.88  31 2.89  36 2.89  23 2.91  22 2.92  25 2.93  28 2.95  35 2.95
                            30 3.02
  34  0.333  0.662  0.560-  33 2.88  32 2.89  36 2.89  23 2.91  24 2.92  26 2.93  28 2.95  35 2.95
                            29 3.02
  35  0.667  0.667  0.560-  24 2.90  27 2.90  22 2.90  30 2.95  32 2.95  29 2.95  34 2.95  31 2.95
                            33 2.95
  36  0.333  0.333  0.552-  37 1.77  21 2.78  20 2.78  23 2.78  31 2.89  30 2.89  33 2.89  29 2.89
                            34 2.89  32 2.89
  37  0.333  0.333  0.632-  36 1.77
 
  LATTYP: Found a hexagonal cell.
 ALAT       =     8.7913665772
 C/A-ratio  =     2.5227160501
  
  Lattice vectors:
  
 A1 = (  -4.3956832886,  -7.6135467898,   0.0000000000)
 A2 = (   8.7913665771,   0.0000000000,   0.0000000000)
 A3 = (   0.0000000000,   0.0000000000,  22.1781215668)


Analysis of symmetry for initial positions (statically):
=====================================================================
 Subroutine PRICEL returns:
 Original cell was already a primitive cell.
 

 Routine SETGRP: Setting up the symmetry group for a 
 hexagonal supercell.


 Subroutine GETGRP returns: Found  6 space group operations
 (whereof  6 operations were pure point group operations)
 out of a pool of 24 trial point group operations.


The static configuration has the point symmetry C_3v.


Analysis of symmetry for dynamics (positions and initial velocities):
=====================================================================
 Subroutine PRICEL returns:
 Original cell was already a primitive cell.
 

 Routine SETGRP: Setting up the symmetry group for a 
 hexagonal supercell.


 Subroutine GETGRP returns: Found  6 space group operations
 (whereof  6 operations were pure point group operations)
 out of a pool of 24 trial point group operations.


The dynamic configuration has the point symmetry C_3v.


Analysis of constrained symmetry for selective dynamics:
=====================================================================
 Subroutine PRICEL returns:
 Original cell was already a primitive cell.
 

 Routine SETGRP: Setting up the symmetry group for a 
 hexagonal supercell.


 Subroutine GETGRP returns: Found  6 space group operations
 (whereof  6 operations were pure point group operations)
 out of a pool of 24 trial point group operations.


The constrained configuration has the point symmetry C_3v.


 Subroutine INISYM returns: Found  6 space group operations
 (whereof  6 operations are pure point group operations),
 and found     1 'primitive' translations


----------------------------------------------------------------------------------------

                                     Primitive cell                                     

  volume of cell :    1484.4589

  direct lattice vectors                    reciprocal lattice vectors
     8.791366577  0.000000000  0.000000000     0.113747958 -0.065672414  0.000000000
     4.395683289  7.613546790  0.000000000     0.000000000  0.131344829  0.000000000
     0.000000000  0.000000000 22.178121567     0.000000000  0.000000000  0.045089481

  length of vectors
     8.791366577  8.791366577 22.178121567     0.131344829  0.131344829  0.045089481

  position of ions in fractional coordinates (direct lattice)
     0.000000000  0.000000000  0.238171124
     0.333333313  0.000000000  0.238171124
     0.666666627  0.000000000  0.238171124
     0.000000000  0.333333343  0.238171124
     0.333333313  0.333333343  0.238171124
     0.666666687  0.333333343  0.238171124
     0.000000000  0.666666687  0.238171124
     0.333333313  0.666666687  0.238171124
     0.666666627  0.666666687  0.238171124
     0.111111104  0.111111112  0.346057051
     0.444444448  0.111111112  0.346057051
     0.777777791  0.111111112  0.346057051
     0.111111097  0.444444448  0.346057051
     0.444444418  0.444444448  0.346057051
     0.777777791  0.444444448  0.346057051
     0.111111104  0.777777791  0.346057051
     0.444444448  0.777777791  0.346057051
     0.777777791  0.777777791  0.346057051
     0.888609664  0.222780689  0.453622681
     0.222430726  0.222430741  0.452355854
     0.555138488  0.222430741  0.452355854
     0.888744334  0.555627863  0.453241121
     0.222430741  0.555138548  0.452355854
     0.555627863  0.555627863  0.453241121
     0.888609664  0.888609664  0.453622681
     0.222780659  0.888609664  0.453622681
     0.555627803  0.888744334  0.453241121
     0.000000000  0.000000000  0.560097234
     0.333144422  0.005093285  0.560395766
     0.661762233  0.005093285  0.560395766
     0.005093285  0.333144452  0.560395766
     0.661762293  0.333144452  0.560395766
     0.005093285  0.661762293  0.560395766
     0.333144422  0.661762293  0.560395766
     0.666666627  0.666666687  0.559701535
     0.333333313  0.333333343  0.551753294
     0.333333313  0.333333343  0.631769927

  ion indices of the primitive-cell ions
   primitive index   ion index
                 1           1
                 2           2
                 3           3
                 4           4
                 5           5
                 6           6
                 7           7
                 8           8
                 9           9
                10          10
                11          11
                12          12
                13          13
                14          14
                15          15
                16          16
                17          17
                18          18
                19          19
                20          20
                21          21
                22          22
                23          23
                24          24
                25          25
                26          26
                27          27
                28          28
                29          29
                30          30
                31          31
                32          32
                33          33
                34          34
                35          35
                36          36
                37          37

----------------------------------------------------------------------------------------

 
 
 KPOINTS: Automatic mesh                          

Automatic generation of k-mesh.
 Grid dimensions read from file:
 generate k-points for:    8    8    1

 Generating k-lattice:

  Cartesian coordinates                     Fractional coordinates (reciprocal lattice)
     0.014218495 -0.008209052  0.000000000     0.125000000  0.000000000  0.000000000
     0.000000000  0.016418104  0.000000000     0.000000000  0.125000000  0.000000000
     0.000000000  0.000000000  0.045089481     0.000000000  0.000000000  1.000000000

  Length of vectors
     0.016418104  0.016418104  0.045089481

  Shift w.r.t. Gamma in fractional coordinates (k-lattice)
     0.000000000  0.000000000  0.000000000

 TETIRR: Found     36 inequivalent tetrahedra from      384
 
 Subroutine IBZKPT returns following result:
 ===========================================
 
 Found     10 irreducible k-points:
 
 Following reciprocal coordinates:
            Coordinates               Weight
  0.000000  0.000000  0.000000      1.000000
  0.125000 -0.000000  0.000000      6.000000
  0.250000 -0.000000  0.000000      6.000000
  0.375000 -0.000000  0.000000      6.000000
  0.500000 -0.000000  0.000000      3.000000
  0.250000  0.125000  0.000000      6.000000
  0.375000  0.125000  0.000000     12.000000
  0.500000  0.125000  0.000000     12.000000
  0.500000  0.250000  0.000000      6.000000
 -0.375000  0.250000  0.000000      6.000000
 
 Following cartesian coordinates:
            Coordinates               Weight
  0.000000  0.000000  0.000000      1.000000
  0.014218 -0.008209  0.000000      6.000000
  0.028437 -0.016418  0.000000      6.000000
  0.042655 -0.024627  0.000000      6.000000
  0.056874 -0.032836  0.000000      3.000000
  0.028437 -0.000000  0.000000      6.000000
  0.042655 -0.008209  0.000000     12.000000
  0.056874 -0.016418  0.000000     12.000000
  0.056874 -0.000000  0.000000      6.000000
 -0.042655  0.057463  0.000000      6.000000
 


--------------------------------------------------------------------------------------------------------




 Dimension of arrays:
   k-points           NKPTS =     10   k-points in BZ     NKDIM =     10   number of bands    NBANDS=    252
   number of dos      NEDOS =    301   number of ions     NIONS =     37
   non local maximal  LDIM  =      6   non local SUM 2l+1 LMDIM =     18
   total plane-waves  NPLWV = 290304
   max r-space proj   IRMAX =   2675   max aug-charges    IRDMAX=  11313
   dimension x,y,z NGX =    48 NGY =   48 NGZ =  126
   dimension x,y,z NGXF=    96 NGYF=   96 NGZF=  252
   support grid    NGXF=    96 NGYF=   96 NGZF=  252
   ions per type =              35   1   1
   NGX,Y,Z   is equivalent  to a cutoff of   9.08,  9.08,  9.44 a.u.
   NGXF,Y,Z  is equivalent  to a cutoff of  18.15, 18.15, 18.89 a.u.

 SYSTEM =  unknown system                          
 POSCAR =  Ag-Rh-O                                 

 Startparameter for this run:
   NWRITE =      2    write-flag & timer
   PREC   = normal    normal or accurate (medium, high low for compatibility)
   ISTART =      0    job   : 0-new  1-cont  2-samecut
   ICHARG =     11    charge: 1-file 2-atom 10-const
   ISPIN  =      1    spin polarized calculation?
   LNONCOLLINEAR =      F non collinear calculations
   LSORBIT =      F    spin-orbit coupling
   INIWAV =      1    electr: 0-lowe 1-rand  2-diag
   LASPH  =      F    aspherical Exc in radial PAW
   METAGGA=      F    non-selfconsistent MetaGGA calc.

 Electronic Relaxation 1
   ENCUT  =  500.0 eV  36.75 Ry    6.06 a.u.  16.03 16.03 40.44*2*pi/ulx,y,z
   ENINI  =  500.0     initial cutoff
   ENAUG  =  605.4 eV  augmentation charge cutoff
   NELM   =    150;   NELMIN=  2; NELMDL= -5     # of ELM steps 
   EDIFF  = 0.1E-04   stopping-criterion for ELM
   LREAL  =      T    real-space projection
   NLSPLINE    = F    spline interpolate recip. space projectors
   LCOMPAT=      F    compatible to vasp.4.4
   GGA_COMPAT  = T    GGA compatible to vasp.4.4-vasp.4.6
   LMAXPAW     = -100 max onsite density
   LMAXMIX     =    2 max onsite mixed and CHGCAR
   VOSKOWN=      0    Vosko Wilk Nusair interpolation
   ROPT   =   -0.00050  -0.00050  -0.00050
 Ionic relaxation
   EDIFFG = -.1E-01   stopping-criterion for IOM
   NSW    =      0    number of steps for IOM
   NBLOCK =      1;   KBLOCK =      1    inner block; outer block 
   IBRION =     -1    ionic relax: 0-MD 1-quasi-New 2-CG
   NFREE  =      1    steps in history (QN), initial steepest desc. (CG)
   ISIF   =      2    stress and relaxation
   IWAVPR =     10    prediction:  0-non 1-charg 2-wave 3-comb
   ISYM   =      2    0-nonsym 1-usesym 2-fastsym
   LCORR  =      T    Harris-Foulkes like correction to forces

   POTIM  = 0.5000    time-step for ionic-motion
   TEIN   =    0.0    initial temperature
   TEBEG  =    0.0;   TEEND  =   0.0 temperature during run
   SMASS  =  -3.00    Nose mass-parameter (am)
   estimated Nose-frequenzy (Omega)   =  0.10E-29 period in steps = 0.13E+47 mass=  -0.177E-26a.u.
   SCALEE = 1.0000    scale energy and forces
   NPACO  =    256;   APACO  = 16.0  distance and # of slots for P.C.
   PSTRESS=    0.0 pullay stress

  Mass of Ions in am
   POMASS = 107.87102.91 16.00
  Ionic Valenz
   ZVAL   =  11.00  9.00  6.00
  Atomic Wigner-Seitz radii
   RWIGS  =  -1.00 -1.00 -1.00
  virtual crystal weights 
   VCA    =   1.00  1.00  1.00
   NELECT =     400.0000    total number of electrons
   NUPDOWN=      -1.0000    fix difference up-down

 DOS related values:
   EMIN   =  10.00;   EMAX   =-10.00  energy-range for DOS
   EFERMI =   0.00
   ISMEAR =    -5;   SIGMA  =   0.10  broadening in eV -4-tet -1-fermi 0-gaus

 Electronic relaxation 2 (details)
   IALGO  =     68    algorithm
   LDIAG  =      T    sub-space diagonalisation (order eigenvalues)
   LSUBROT=      F    optimize rotation matrix (better conditioning)
   TURBO    =      0    0=normal 1=particle mesh
   IRESTART =      0    0=no restart 2=restart with 2 vectors
   NREBOOT  =      0    no. of reboots
   NMIN     =      0    reboot dimension
   EREF     =   0.00    reference energy to select bands
   IMIX   =      4    mixing-type and parameters
     AMIX     =   0.40;   BMIX     =  1.00
     AMIX_MAG =   1.60;   BMIX_MAG =  1.00
     AMIN     =   0.10
     WC   =   100.;   INIMIX=   1;  MIXPRE=   1;  MAXMIX= -45

 Intra band minimization:
   WEIMIN = 0.0000     energy-eigenvalue tresh-hold
   EBREAK =  0.99E-08  absolut break condition
   DEPER  =   0.30     relativ break condition  

   TIME   =   0.40     timestep for ELM

  volume/ion in A,a.u.               =      40.12       270.75
  Fermi-wavevector in a.u.,A,eV,Ry     =   1.057399  1.998194 15.212565  1.118092
  Thomas-Fermi vector in A             =   2.192670
 
 Write flags
   LWAVE        =      F    write WAVECAR
   LDOWNSAMPLE  =      F    k-point downsampling of WAVECAR
   LCHARG       =      F    write CHGCAR
   LVTOT        =      F    write LOCPOT, total local potential
   LVHAR        =      F    write LOCPOT, Hartree potential only
   LELF         =      F    write electronic localiz. function (ELF)
   LORBIT       =     10    0 simple, 1 ext, 2 COOP (PROOUT), +10 PAW based schemes


 Dipole corrections
   LMONO  =      F    monopole corrections only (constant potential shift)
   LDIPOL =      F    correct potential (dipole corrections)
   IDIPOL =      0    1-x, 2-y, 3-z, 4-all directions 
   EPSILON=  1.0000000 bulk dielectric constant

 Exchange correlation treatment:
   GGA     =    --    GGA type
   LEXCH   =     8    internal setting for exchange type
   VOSKOWN=      0    Vosko Wilk Nusair interpolation
   LHFCALC =     F    Hartree Fock is set to
   LHFONE  =     F    Hartree Fock one center treatment
   AEXX    =    0.0000 exact exchange contribution

 Linear response parameters
   LEPSILON=     F    determine dielectric tensor
   LRPA    =     F    only Hartree local field effects (RPA)
   LNABLA  =     F    use nabla operator in PAW spheres
   LVEL    =     F    velocity operator in full k-point grid
   LINTERFAST=   F  fast interpolation
   KINTER  =     0    interpolate to denser k-point grid
   CSHIFT  =0.1000    complex shift for real part using Kramers Kronig
   OMEGAMAX=  -1.0    maximum frequency
   DEG_THRESHOLD= 0.2000000E-02 threshold for treating states as degnerate
   RTIME   =   -0.100 relaxation time in fs
  (WPLASMAI=    0.000 imaginary part of plasma frequency in eV, 0.658/RTIME)
   DFIELD  = 0.0000000 0.0000000 0.0000000 field for delta impulse in time
 
 Orbital magnetization related:
   ORBITALMAG=     F  switch on orbital magnetization
   LCHIMAG   =     F  perturbation theory with respect to B field
   DQ        =  0.001000  dq finite difference perturbation B field
   LLRAUG    =     F  two centre corrections for induced B field



--------------------------------------------------------------------------------------------------------


 Static calculation
 charge density and potential remain constant during run
 non-spin polarized calculation
 RMM-DIIS sequential band-by-band and
  variant of blocked Davidson during initial phase
 perform sub-space diagonalisation
    before iterative eigenvector-optimisation
 no mixing
 using additional bands           52
 real space projection scheme for non local part
 use partial core corrections
 calculate Harris-corrections to forces 
   (improved forces if not selfconsistent)
 use gradient corrections 
 WARNING: stress and forces are not correct
  (second derivative of E(xc) not defined)
 use of overlap-Matrix (Vanderbilt PP)
 Fermi weights with tetrahedron method with Bloechl corrections


--------------------------------------------------------------------------------------------------------


  energy-cutoff  :      500.00
  volume of cell :     1484.46
      direct lattice vectors                 reciprocal lattice vectors
     8.791366577  0.000000000  0.000000000     0.113747958 -0.065672414  0.000000000
     4.395683289  7.613546790  0.000000000     0.000000000  0.131344829  0.000000000
     0.000000000  0.000000000 22.178121567     0.000000000  0.000000000  0.045089481

  length of vectors
     8.791366577  8.791366577 22.178121567     0.131344829  0.131344829  0.045089481


 
 k-points in units of 2pi/SCALE and weight: Automatic mesh                          
   0.00000000  0.00000000  0.00000000       0.016
   0.01421849 -0.00820905  0.00000000       0.094
   0.02843699 -0.01641810  0.00000000       0.094
   0.04265548 -0.02462716  0.00000000       0.094
   0.05687398 -0.03283621  0.00000000       0.047
   0.02843699 -0.00000000  0.00000000       0.094
   0.04265548 -0.00820905  0.00000000       0.188
   0.05687398 -0.01641810  0.00000000       0.188
   0.05687398 -0.00000000  0.00000000       0.094
  -0.04265548  0.05746336  0.00000000       0.094
 
 k-points in reciprocal lattice and weights: Automatic mesh                          
   0.00000000  0.00000000  0.00000000       0.016
   0.12500000 -0.00000000  0.00000000       0.094
   0.25000000 -0.00000000  0.00000000       0.094
   0.37500000 -0.00000000  0.00000000       0.094
   0.50000000 -0.00000000  0.00000000       0.047
   0.25000000  0.12500000  0.00000000       0.094
   0.37500000  0.12500000  0.00000000       0.188
   0.50000000  0.12500000  0.00000000       0.188
   0.50000000  0.25000000  0.00000000       0.094
  -0.37500000  0.25000000  0.00000000       0.094
 
 position of ions in fractional coordinates (direct lattice) 
   0.00000000  0.00000000  0.23817112
   0.33333331  0.00000000  0.23817112
   0.66666663  0.00000000  0.23817112
   0.00000000  0.33333334  0.23817112
   0.33333331  0.33333334  0.23817112
   0.66666669  0.33333334  0.23817112
   0.00000000  0.66666669  0.23817112
   0.33333331  0.66666669  0.23817112
   0.66666663  0.66666669  0.23817112
   0.11111110  0.11111111  0.34605705
   0.44444445  0.11111111  0.34605705
   0.77777779  0.11111111  0.34605705
   0.11111110  0.44444445  0.34605705
   0.44444442  0.44444445  0.34605705
   0.77777779  0.44444445  0.34605705
   0.11111110  0.77777779  0.34605705
   0.44444445  0.77777779  0.34605705
   0.77777779  0.77777779  0.34605705
   0.88860966  0.22278069  0.45362268
   0.22243073  0.22243074  0.45235585
   0.55513849  0.22243074  0.45235585
   0.88874433  0.55562786  0.45324112
   0.22243074  0.55513855  0.45235585
   0.55562786  0.55562786  0.45324112
   0.88860966  0.88860966  0.45362268
   0.22278066  0.88860966  0.45362268
   0.55562780  0.88874433  0.45324112
   0.00000000  0.00000000  0.56009723
   0.33314442  0.00509329  0.56039577
   0.66176223  0.00509329  0.56039577
   0.00509329  0.33314445  0.56039577
   0.66176229  0.33314445  0.56039577
   0.00509329  0.66176229  0.56039577
   0.33314442  0.66176229  0.56039577
   0.66666663  0.66666669  0.55970153
   0.33333331  0.33333334  0.55175329
   0.33333331  0.33333334  0.63176993
 
 position of ions in cartesian coordinates  (Angst):
   0.00000000  0.00000000  5.28218814
   2.93045535  0.00000000  5.28218814
   5.86091070  0.00000000  5.28218814
   1.46522781  2.53784900  5.28218814
   4.39568315  2.53784900  5.28218814
   7.32613904  2.53784900  5.28218814
   2.93045562  5.07569801  5.28218814
   5.86091096  5.07569801  5.28218814
   8.79136632  5.07569801  5.28218814
   1.46522770  0.84594965  7.67489535
   4.39568332  0.84594965  7.67489535
   7.32613893  0.84594965  7.67489535
   2.93045542  3.38379860  7.67489535
   5.86091083  3.38379860  7.67489535
   8.79136671  3.38379860  7.67489535
   4.39568328  5.92164760  7.67489535
   7.32613890  5.92164760  7.67489535
  10.25659451  5.92164760  7.67489535
   8.79136665  1.69615120 10.06049895
   2.93320514  1.69348685 10.03240313
   5.85816104  1.69348685 10.03240313
  10.25564135  4.23029873 10.05203667
   4.39568342  4.22657331 10.03240313
   7.32709233  4.23029873 10.05203667
  11.71813994  6.76547125 10.06049895
   5.86459309  6.76547125 10.06049895
   8.79136631  6.76649657 10.05203667
   0.00000000  0.00000000 12.42190454
   2.95118320  0.03877797 12.42852542
   5.84018285  0.03877797 12.42852542
   1.50917444  2.53641087 12.42852542
   7.28219240  2.53641087 12.42852542
   2.95367439  5.03835818 12.42852542
   5.83769219  5.03835818 12.42852542
   8.79136632  5.07569801 12.41312868
   4.39568315  2.53784900 12.23685164
   4.39568315  2.53784900 14.01147023
 


--------------------------------------------------------------------------------------------------------


 k-point   1 :   0.0000 0.0000 0.0000  plane waves:   37683
 k-point   2 :   0.1250-0.0000 0.0000  plane waves:   37658
 k-point   3 :   0.2500-0.0000 0.0000  plane waves:   37682
 k-point   4 :   0.3750-0.0000 0.0000  plane waves:   37686
 k-point   5 :   0.5000-0.0000 0.0000  plane waves:   37668
 k-point   6 :   0.2500 0.1250 0.0000  plane waves:   37666
 k-point   7 :   0.3750 0.1250 0.0000  plane waves:   37708
 k-point   8 :   0.5000 0.1250 0.0000  plane waves:   37726
 k-point   9 :   0.5000 0.2500 0.0000  plane waves:   37706
 k-point  10 :  -0.3750 0.2500 0.0000  plane waves:   37686

 maximum and minimum number of plane-waves per node :     37726    37658

 maximum number of plane-waves:     37726
 maximum index in each direction: 
   IXMAX=   16   IYMAX=   16   IZMAX=   40
   IXMIN=  -16   IYMIN=  -16   IZMIN=  -40


 serial   3D FFT for wavefunctions
 parallel 3D FFT for charge:
    minimum data exchange during FFTs selected (reduces bandwidth)


 total amount of memory used by VASP MPI-rank0   123115. kBytes
=======================================================================

   base      :      30000. kBytes
   nonlr-proj:      15012. kBytes
   fftplans  :       4330. kBytes
   grid      :      17879. kBytes
   one-center:        575. kBytes
   wavefun   :      55319. kBytes
 
     INWAV:  cpu time    0.0000: real time    0.0000
 initial charge density was supplied:
 number of electron     399.9999858 magnetization 
 keeping initial charge density in first step


--------------------------------------------------------------------------------------------------------


 Maximum index for non-local projection operator         2548
 Maximum index for augmentation-charges          702 (set IRDMAX)


--------------------------------------------------------------------------------------------------------


 First call to EWALD:  gamma=   0.155
 Maximum number of real-space cells 4x 4x 2
 Maximum number of reciprocal cells 2x 2x 5

    FEWALD:  cpu time    0.0013: real time    0.0013


--------------------------------------- Iteration      1(   1)  ---------------------------------------


    POTLOK:  cpu time    0.0436: real time    0.0439
    SETDIJ:  cpu time    0.0046: real time    0.0047
     EDDAV:  cpu time    7.1834: real time    7.1854
 BZINTS: Fermi energy:    9.460014;  400.000000 electrons
         Band energy: 0.121177E+04;  BLOECHL correction:   -0.015633
       DOS:  cpu time    0.0102: real time    0.0102
    --------------------------------------------
      LOOP:  cpu time    7.2418: real time    7.2443

 eigenvalue-minimisations  :  5040
 total energy-change (2. order) : 0.2448419E+04  (-0.1859717E+05)
 number of electron     399.9999858 magnetization 
 augmentation part      399.9999858 magnetization 

 Free energy of the ion-electron system (eV)
  ---------------------------------------------------
  alpha Z        PSCENC =       752.10433715
  Ewald energy   TEWEN  =     98683.58745683
  -Hartree energ DENC   =   -136747.75082384
  -exchange      EXHF   =         0.00000000
  -V(xc)+E(xc)   XCENC  =      -378.71288552
  PAW double counting   =     39576.14167150   -38001.67601224
  entropy T*S    EENTRO =         0.00000000
  eigenvalues    EBANDS =      1211.77091497
  atomic energy  EATOM  =     37352.95409078
  Solvation  Ediel_sol  =         0.00000000
  ---------------------------------------------------
  free energy    TOTEN  =      2448.41874964 eV

  energy without entropy =     2448.41874964  energy(sigma->0) =     2448.41874964


--------------------------------------------------------------------------------------------------------




--------------------------------------- Iteration      1(   2)  ---------------------------------------


     EDDAV:  cpu time    7.4692: real time    7.4725
 BZINTS: Fermi energy:    1.375010;  400.000000 electrons
         Band energy:-0.125280E+04;  BLOECHL correction:   -0.061885
       DOS:  cpu time    0.0098: real time    0.0098
    --------------------------------------------
      LOOP:  cpu time    7.4789: real time    7.4823

 eigenvalue-minimisations  :  5320
 total energy-change (2. order) :-0.2464566E+04  (-0.2352182E+04)
 number of electron     399.9999858 magnetization 
 augmentation part      399.9999858 magnetization 

 Free energy of the ion-electron system (eV)
  ---------------------------------------------------
  alpha Z        PSCENC =       752.10433715
  Ewald energy   TEWEN  =     98683.58745683
  -Hartree energ DENC   =   -136747.75082384
  -exchange      EXHF   =         0.00000000
  -V(xc)+E(xc)   XCENC  =      -378.71288552
  PAW double counting   =     39576.14167150   -38001.67601224
  entropy T*S    EENTRO =         0.00000000
  eigenvalues    EBANDS =     -1252.79542347
  atomic energy  EATOM  =     37352.95409078
  Solvation  Ediel_sol  =         0.00000000
  ---------------------------------------------------
  free energy    TOTEN  =       -16.14758880 eV

  energy without entropy =      -16.14758880  energy(sigma->0) =      -16.14758880


--------------------------------------------------------------------------------------------------------




--------------------------------------- Iteration      1(   3)  ---------------------------------------


     EDDAV:  cpu time    8.1160: real time    8.1165
 BZINTS: Fermi energy:    0.784658;  400.000000 electrons
         Band energy:-0.133621E+04;  BLOECHL correction:   -0.036781
       DOS:  cpu time    0.0102: real time    0.0102
    --------------------------------------------
      LOOP:  cpu time    8.1262: real time    8.1267

 eigenvalue-minimisations  :  5880
 total energy-change (2. order) :-0.8341946E+02  (-0.8140605E+02)
 number of electron     399.9999858 magnetization 
 augmentation part      399.9999858 magnetization 

 Free energy of the ion-electron system (eV)
  ---------------------------------------------------
  alpha Z        PSCENC =       752.10433715
  Ewald energy   TEWEN  =     98683.58745683
  -Hartree energ DENC   =   -136747.75082384
  -exchange      EXHF   =         0.00000000
  -V(xc)+E(xc)   XCENC  =      -378.71288552
  PAW double counting   =     39576.14167150   -38001.67601224
  entropy T*S    EENTRO =         0.00000000
  eigenvalues    EBANDS =     -1336.21488109
  atomic energy  EATOM  =     37352.95409078
  Solvation  Ediel_sol  =         0.00000000
  ---------------------------------------------------
  free energy    TOTEN  =       -99.56704643 eV

  energy without entropy =      -99.56704643  energy(sigma->0) =      -99.56704643


--------------------------------------------------------------------------------------------------------




--------------------------------------- Iteration      1(   4)  ---------------------------------------


     EDDAV:  cpu time    7.7015: real time    7.7018
 BZINTS: Fermi energy:    0.760659;  400.000000 electrons
         Band energy:-0.133758E+04;  BLOECHL correction:   -0.036028
       DOS:  cpu time    0.0097: real time    0.0097
    --------------------------------------------
      LOOP:  cpu time    7.7112: real time    7.7116

 eigenvalue-minimisations  :  5516
 total energy-change (2. order) :-0.1369449E+01  (-0.1364704E+01)
 number of electron     399.9999858 magnetization 
 augmentation part      399.9999858 magnetization 

 Free energy of the ion-electron system (eV)
  ---------------------------------------------------
  alpha Z        PSCENC =       752.10433715
  Ewald energy   TEWEN  =     98683.58745683
  -Hartree energ DENC   =   -136747.75082384
  -exchange      EXHF   =         0.00000000
  -V(xc)+E(xc)   XCENC  =      -378.71288552
  PAW double counting   =     39576.14167150   -38001.67601224
  entropy T*S    EENTRO =         0.00000000
  eigenvalues    EBANDS =     -1337.58432993
  atomic energy  EATOM  =     37352.95409078
  Solvation  Ediel_sol  =         0.00000000
  ---------------------------------------------------
  free energy    TOTEN  =      -100.93649527 eV

  energy without entropy =     -100.93649527  energy(sigma->0) =     -100.93649527


--------------------------------------------------------------------------------------------------------




--------------------------------------- Iteration      1(   5)  ---------------------------------------


     EDDAV:  cpu time    8.8091: real time    8.8095
 BZINTS: Fermi energy:    0.760373;  400.000000 electrons
         Band energy:-0.133762E+04;  BLOECHL correction:   -0.036038
       DOS:  cpu time    0.0099: real time    0.0099
    --------------------------------------------
      LOOP:  cpu time    8.8191: real time    8.8195

 eigenvalue-minimisations  :  6496
 total energy-change (2. order) :-0.3502788E-01  (-0.3500526E-01)
 number of electron     399.9999858 magnetization 
 augmentation part      399.9999858 magnetization 

 Free energy of the ion-electron system (eV)
  ---------------------------------------------------
  alpha Z        PSCENC =       752.10433715
  Ewald energy   TEWEN  =     98683.58745683
  -Hartree energ DENC   =   -136747.75082384
  -exchange      EXHF   =         0.00000000
  -V(xc)+E(xc)   XCENC  =      -378.71288552
  PAW double counting   =     39576.14167150   -38001.67601224
  entropy T*S    EENTRO =         0.00000000
  eigenvalues    EBANDS =     -1337.61935781
  atomic energy  EATOM  =     37352.95409078
  Solvation  Ediel_sol  =         0.00000000
  ---------------------------------------------------
  free energy    TOTEN  =      -100.97152314 eV

  energy without entropy =     -100.97152314  energy(sigma->0) =     -100.97152314


--------------------------------------------------------------------------------------------------------




--------------------------------------- Iteration      1(   6)  ---------------------------------------


    EDDIAG:  cpu time    1.4011: real time    1.4014
  RMM-DIIS:  cpu time    3.9621: real time    3.9622
    ORTHCH:  cpu time    0.2589: real time    0.2589
 BZINTS: Fermi energy:    0.760370;  400.000000 electrons
         Band energy:-0.133762E+04;  BLOECHL correction:   -0.036038
       DOS:  cpu time    0.0102: real time    0.0102
    --------------------------------------------
      LOOP:  cpu time    5.6322: real time    5.6328

 eigenvalue-minimisations  :  5109
 total energy-change (2. order) :-0.6486471E-03  (-0.6483615E-03)
 number of electron     399.9999858 magnetization 
 augmentation part      399.9999858 magnetization 

 Free energy of the ion-electron system (eV)
  ---------------------------------------------------
  alpha Z        PSCENC =       752.10433715
  Ewald energy   TEWEN  =     98683.58745683
  -Hartree energ DENC   =   -136747.75082384
  -exchange      EXHF   =         0.00000000
  -V(xc)+E(xc)   XCENC  =      -378.71288552
  PAW double counting   =     39576.14167150   -38001.67601224
  entropy T*S    EENTRO =         0.00000000
  eigenvalues    EBANDS =     -1337.62000646
  atomic energy  EATOM  =     37352.95409078
  Solvation  Ediel_sol  =         0.00000000
  ---------------------------------------------------
  free energy    TOTEN  =      -100.97217179 eV

  energy without entropy =     -100.97217179  energy(sigma->0) =     -100.97217179


--------------------------------------------------------------------------------------------------------




--------------------------------------- Iteration      1(   7)  ---------------------------------------


    EDDIAG:  cpu time    1.4023: real time    1.4024
  RMM-DIIS:  cpu time    5.4105: real time    5.4107
    ORTHCH:  cpu time    0.2588: real time    0.2588
 BZINTS: Fermi energy:    0.760369;  400.000000 electrons
         Band energy:-0.133762E+04;  BLOECHL correction:   -0.036038
       DOS:  cpu time    0.0095: real time    0.0095
    --------------------------------------------
      LOOP:  cpu time    7.0810: real time    7.0814

 eigenvalue-minimisations  :  6969
 total energy-change (2. order) :-0.2351095E-03  (-0.2346915E-03)
 number of electron     399.9999858 magnetization 
 augmentation part      399.9999858 magnetization 

 Free energy of the ion-electron system (eV)
  ---------------------------------------------------
  alpha Z        PSCENC =       752.10433715
  Ewald energy   TEWEN  =     98683.58745683
  -Hartree energ DENC   =   -136747.75082384
  -exchange      EXHF   =         0.00000000
  -V(xc)+E(xc)   XCENC  =      -378.71288552
  PAW double counting   =     39576.14167150   -38001.67601224
  entropy T*S    EENTRO =         0.00000000
  eigenvalues    EBANDS =     -1337.62024157
  atomic energy  EATOM  =     37352.95409078
  Solvation  Ediel_sol  =         0.00000000
  ---------------------------------------------------
  free energy    TOTEN  =      -100.97240690 eV

  energy without entropy =     -100.97240690  energy(sigma->0) =     -100.97240690


--------------------------------------------------------------------------------------------------------




--------------------------------------- Iteration      1(   8)  ---------------------------------------


    EDDIAG:  cpu time    1.4023: real time    1.4026
  RMM-DIIS:  cpu time    4.0396: real time    4.0397
    ORTHCH:  cpu time    0.2584: real time    0.2585
 BZINTS: Fermi energy:    0.760369;  400.000000 electrons
         Band energy:-0.133762E+04;  BLOECHL correction:   -0.036038
       DOS:  cpu time    0.0101: real time    0.0101
    --------------------------------------------
      LOOP:  cpu time    5.7104: real time    5.7109

 eigenvalue-minimisations  :  4826
 total energy-change (2. order) :-0.1376119E-04  (-0.1381743E-04)
 number of electron     399.9999858 magnetization 
 augmentation part      399.9999858 magnetization 

 Free energy of the ion-electron system (eV)
  ---------------------------------------------------
  alpha Z        PSCENC =       752.10433715
  Ewald energy   TEWEN  =     98683.58745683
  -Hartree energ DENC   =   -136747.75082384
  -exchange      EXHF   =         0.00000000
  -V(xc)+E(xc)   XCENC  =      -378.71288552
  PAW double counting   =     39576.14167150   -38001.67601224
  entropy T*S    EENTRO =         0.00000000
  eigenvalues    EBANDS =     -1337.62025533
  atomic energy  EATOM  =     37352.95409078
  Solvation  Ediel_sol  =         0.00000000
  ---------------------------------------------------
  free energy    TOTEN  =      -100.97242066 eV

  energy without entropy =     -100.97242066  energy(sigma->0) =     -100.97242066


--------------------------------------------------------------------------------------------------------




--------------------------------------- Iteration      1(   9)  ---------------------------------------


    EDDIAG:  cpu time    1.4033: real time    1.4034
  RMM-DIIS:  cpu time    3.1245: real time    3.1246
    ORTHCH:  cpu time    0.2588: real time    0.2588
 BZINTS: Fermi energy:    0.760369;  400.000000 electrons
         Band energy:-0.133762E+04;  BLOECHL correction:   -0.036038
       DOS:  cpu time    0.0099: real time    0.0099
    --------------------------------------------
      LOOP:  cpu time    4.7965: real time    4.7968

 eigenvalue-minimisations  :  3447
 total energy-change (2. order) :-0.3214693E-05  (-0.3263441E-05)
 number of electron     399.9999858 magnetization 
 augmentation part      399.9999858 magnetization 

 Free energy of the ion-electron system (eV)
  ---------------------------------------------------
  alpha Z        PSCENC =       752.10433715
  Ewald energy   TEWEN  =     98683.58745683
  -Hartree energ DENC   =   -136747.75082384
  -exchange      EXHF   =         0.00000000
  -V(xc)+E(xc)   XCENC  =      -378.71288552
  PAW double counting   =     39576.14167150   -38001.67601224
  entropy T*S    EENTRO =         0.00000000
  eigenvalues    EBANDS =     -1337.62025854
  atomic energy  EATOM  =     37352.95409078
  Solvation  Ediel_sol  =         0.00000000
  ---------------------------------------------------
  free energy    TOTEN  =      -100.97242388 eV

  energy without entropy =     -100.97242388  energy(sigma->0) =     -100.97242388


--------------------------------------------------------------------------------------------------------




 average (electrostatic) potential at core
  the test charge radii are     1.1249  1.1806  0.7215
  (the norm of the test charge is              1.0000)
       1 -78.1266       2 -78.1009       3 -78.1009       4 -78.1009       5 -78.0912
       6 -78.1007       7 -78.1009       8 -78.1007       9 -78.1337      10 -78.3362
      11 -78.3234      12 -78.3359      13 -78.3233      14 -78.3231      15 -78.3439
      16 -78.3359      17 -78.3439      18 -78.3439      19 -78.3407      20 -78.3369
      21 -78.3366      22 -78.3567      23 -78.3367      24 -78.3566      25 -78.3405
      26 -78.3408      27 -78.3567      28 -78.0845      29 -78.0651      30 -78.0649
      31 -78.0650      32 -78.0648      33 -78.0649      34 -78.0648      35 -78.1015
      36 -72.6242      37 -75.0627
 
 
 
 E-fermi :   0.7604     XC(G=0):  -5.9313     alpha+bet : -5.6348

 Fermi energy:         0.7603688037

 k-point     1 :       0.0000    0.0000    0.0000
  band No.  band energies     occupation 
      1     -17.0055      2.00000
      2      -6.3481      2.00000
      3      -5.4746      2.00000
      4      -5.1928      2.00000
      5      -5.1045      2.00000
      6      -5.0701      2.00000
      7      -5.0701      2.00000
      8      -5.0676      2.00000
      9      -5.0676      2.00000
     10      -5.0675      2.00000
     11      -5.0414      2.00000
     12      -5.0327      2.00000
     13      -5.0274      2.00000
     14      -5.0274      2.00000
     15      -5.0172      2.00000
     16      -5.0172      2.00000
     17      -5.0105      2.00000
     18      -4.8816      2.00000
     19      -4.8639      2.00000
     20      -4.8639      2.00000
     21      -4.8563      2.00000
     22      -4.8510      2.00000
     23      -4.8510      2.00000
     24      -4.6774      2.00000
     25      -4.6724      2.00000
     26      -4.6724      2.00000
     27      -4.6536      2.00000
     28      -4.6487      2.00000
     29      -4.6371      2.00000
     30      -4.6315      2.00000
     31      -4.6315      2.00000
     32      -4.6172      2.00000
     33      -4.6172      2.00000
     34      -4.6064      2.00000
     35      -4.6064      2.00000
     36      -4.5202      2.00000
     37      -4.5075      2.00000
     38      -4.5075      2.00000
     39      -4.4777      2.00000
     40      -4.4092      2.00000
     41      -4.4092      2.00000
     42      -4.3336      2.00000
     43      -4.2883      2.00000
     44      -4.2883      2.00000
     45      -4.2742      2.00000
     46      -4.2742      2.00000
     47      -4.2669      2.00000
     48      -4.2669      2.00000
     49      -4.2602      2.00000
     50      -4.2542      2.00000
     51      -4.2541      2.00000
     52      -4.1948      2.00000
     53      -4.1142      2.00000
     54      -4.1056      2.00000
     55      -4.0902      2.00000
     56      -3.9102      2.00000
     57      -3.9021      2.00000
     58      -3.9021      2.00000
     59      -3.8786      2.00000
     60      -3.8664      2.00000
     61      -3.8664      2.00000
     62      -3.8571      2.00000
     63      -3.8516      2.00000
     64      -3.8516      2.00000
     65      -3.8159      2.00000
     66      -3.8159      2.00000
     67      -3.8034      2.00000
     68      -3.7493      2.00000
     69      -3.7492      2.00000
     70      -3.7057      2.00000
     71      -3.7056      2.00000
     72      -3.6992      2.00000
     73      -3.6974      2.00000
     74      -3.6974      2.00000
     75      -3.6914      2.00000
     76      -3.6845      2.00000
     77      -3.6845      2.00000
     78      -3.6529      2.00000
     79      -3.6529      2.00000
     80      -3.6448      2.00000
     81      -3.6408      2.00000
     82      -3.6408      2.00000
     83      -3.6327      2.00000
     84      -3.5936      2.00000
     85      -3.5698      2.00000
     86      -3.5698      2.00000
     87      -3.5565      2.00000
     88      -3.5565      2.00000
     89      -3.4924      2.00000
     90      -3.4923      2.00000
     91      -3.4904      2.00000
     92      -3.4659      2.00000
     93      -3.4659      2.00000
     94      -3.4437      2.00000
     95      -3.4437      2.00000
     96      -3.4103      2.00000
     97      -3.4103      2.00000
     98      -3.3834      2.00000
     99      -3.3834      2.00000
    100      -3.3055      2.00000
    101      -3.1788      2.00000
    102      -3.1788      2.00000
    103      -3.1691      2.00000
    104      -3.1690      2.00000
    105      -3.1576      2.00000
    106      -3.1570      2.00000
    107      -3.1570      2.00000
    108      -3.1562      2.00000
    109      -3.1000      2.00000
    110      -3.0904      2.00000
    111      -3.0904      2.00000
    112      -3.0852      2.00000
    113      -3.0852      2.00000
    114      -3.0329      2.00000
    115      -3.0329      2.00000
    116      -2.9085      2.00000
    117      -2.9085      2.00000
    118      -2.8835      2.00000
    119      -2.8835      2.00000
    120      -2.8720      2.00000
    121      -2.8720      2.00000
    122      -2.8676      2.00000
    123      -2.8307      2.00000
    124      -2.8307      2.00000
    125      -2.8003      2.00000
    126      -2.8002      2.00000
    127      -2.7975      2.00000
    128      -2.7729      2.00000
    129      -2.7729      2.00000
    130      -2.7681      2.00000
    131      -2.7659      2.00000
    132      -2.7658      2.00000
    133      -2.7626      2.00000
    134      -2.7619      2.00000
    135      -2.7325      2.00000
    136      -2.7325      2.00000
    137      -2.5787      2.00000
    138      -2.5730      2.00000
    139      -2.5730      2.00000
    140      -2.5593      2.00000
    141      -2.5592      2.00000
    142      -2.5592      2.00000
    143      -2.5570      2.00000
    144      -2.5570      2.00000
    145      -2.5507      2.00000
    146      -2.5408      2.00000
    147      -2.5363      2.00000
    148      -2.5363      2.00000
    149      -2.4948      2.00000
    150      -2.4948      2.00000
    151      -2.4799      2.00000
    152      -2.4678      2.00000
    153      -2.4613      2.00000
    154      -2.4613      2.00000
    155      -2.4597      2.00000
    156      -2.4432      2.00000
    157      -2.4432      2.00000
    158      -2.4258      2.00000
    159      -2.3993      2.00000
    160      -2.3993      2.00000
    161      -2.3756      2.00000
    162      -2.3679      2.00000
    163      -2.3636      2.00000
    164      -2.3635      2.00000
    165      -2.3635      2.00000
    166      -2.3599      2.00000
    167      -2.3599      2.00000
    168      -2.3377      2.00000
    169      -2.3224      2.00000
    170      -2.3097      2.00000
    171      -2.3070      2.00000
    172      -2.3070      2.00000
    173      -2.2961      2.00000
    174      -2.2961      2.00000
    175      -2.2389      2.00000
    176      -2.2389      2.00000
    177      -2.2035      2.00000
    178      -2.2035      2.00000
    179      -2.1726      2.00000
    180      -2.1725      2.00000
    181      -2.1578      2.00000
    182      -2.1492      2.00000
    183      -2.0825      2.00000
    184      -2.0759      2.00000
    185      -2.0759      2.00000
    186      -2.0284      2.00000
    187      -2.0179      2.00000
    188      -2.0178      2.00000
    189      -1.3624      2.00000
    190      -1.3624      2.00000
    191      -1.3051      2.00000
    192      -1.2846      2.00000
    193      -1.2845      2.00000
    194      -1.1670      2.00000
    195      -0.5218      2.00000
    196      -0.5218      2.00000
    197      -0.0897      2.00000
    198       0.1271      2.00000
    199       0.3553      2.00000
    200       0.3553      2.00000
    201       0.4376      2.00000
    202       0.4772      2.00000
    203       0.4773      2.38040
    204       0.9395      0.00000
    205       0.9396      0.00000
    206       1.2171      0.00000
    207       1.8829      0.00000
    208       2.6641      0.00000
    209       2.7099      0.00000
    210       2.7099      0.00000
    211       2.8487      0.00000
    212       2.8487      0.00000
    213       3.9969      0.00000
    214       4.0273      0.00000
    215       4.0753      0.00000
    216       4.2310      0.00000
    217       4.2311      0.00000
    218       4.2648      0.00000
    219       4.2648      0.00000
    220       5.0393      0.00000
    221       5.0397      0.00000
    222       5.0397      0.00000
    223       5.0400      0.00000
    224       5.0849      0.00000
    225       5.0849      0.00000
    226       5.1391      0.00000
    227       5.1391      0.00000
    228       5.2481      0.00000
    229       5.2481      0.00000
    230       5.3180      0.00000
    231       5.3358      0.00000
    232       5.3906      0.00000
    233       5.7563      0.00000
    234       6.6195      0.00000
    235       6.6450      0.00000
    236       6.6450      0.00000
    237       6.7503      0.00000
    238       6.8227      0.00000
    239       6.8228      0.00000
    240       6.8348      0.00000
    241       7.0470      0.00000
    242       7.0686      0.00000
    243       7.0687      0.00000
    244       7.1251      0.00000
    245       7.1376      0.00000
    246       7.1380      0.00000
    247       7.2234      0.00000
    248       7.3544      0.00000
    249       7.3561      0.00000
    250       7.3604      0.00000
    251       7.4002      0.00000
    252       7.4176      0.00000

 k-point     2 :       0.1250   -0.0000    0.0000
  band No.  band energies     occupation 
      1     -17.0055      2.00000
      2      -6.3022      2.00000
      3      -5.4345      2.00000
      4      -5.1609      2.00000
      5      -5.1332      2.00000
      6      -5.1038      2.00000
      7      -5.0812      2.00000
      8      -5.0682      2.00000
      9      -5.0672      2.00000
     10      -5.0486      2.00000
     11      -5.0416      2.00000
     12      -5.0357      2.00000
     13      -5.0284      2.00000
     14      -4.9872      2.00000
     15      -4.9707      2.00000
     16      -4.9569      2.00000
     17      -4.9527      2.00000
     18      -4.9379      2.00000
     19      -4.9122      2.00000
     20      -4.9061      2.00000
     21      -4.8015      2.00000
     22      -4.7925      2.00000
     23      -4.7477      2.00000
     24      -4.7379      2.00000
     25      -4.7303      2.00000
     26      -4.7275      2.00000
     27      -4.6758      2.00000
     28      -4.6711      2.00000
     29      -4.6338      2.00000
     30      -4.6285      2.00000
     31      -4.5992      2.00000
     32      -4.5881      2.00000
     33      -4.5838      2.00000
     34      -4.5477      2.00000
     35      -4.5253      2.00000
     36      -4.5227      2.00000
     37      -4.5061      2.00000
     38      -4.4913      2.00000
     39      -4.4224      2.00000
     40      -4.3849      2.00000
     41      -4.3799      2.00000
     42      -4.3696      2.00000
     43      -4.3502      2.00000
     44      -4.3440      2.00000
     45      -4.3160      2.00000
     46      -4.3044      2.00000
     47      -4.3016      2.00000
     48      -4.2937      2.00000
     49      -4.2459      2.00000
     50      -4.2331      2.00000
     51      -4.1973      2.00000
     52      -4.1741      2.00000
     53      -4.1055      2.00000
     54      -4.0756      2.00000
     55      -4.0755      2.00000
     56      -3.9376      2.00000
     57      -3.9268      2.00000
     58      -3.9208      2.00000
     59      -3.8867      2.00000
     60      -3.8815      2.00000
     61      -3.8717      2.00000
     62      -3.8708      2.00000
     63      -3.8645      2.00000
     64      -3.8482      2.00000
     65      -3.8352      2.00000
     66      -3.8105      2.00000
     67      -3.7999      2.00000
     68      -3.7881      2.00000
     69      -3.7676      2.00000
     70      -3.7434      2.00000
     71      -3.7246      2.00000
     72      -3.7219      2.00000
     73      -3.6900      2.00000
     74      -3.6864      2.00000
     75      -3.6830      2.00000
     76      -3.6816      2.00000
     77      -3.6743      2.00000
     78      -3.6674      2.00000
     79      -3.6565      2.00000
     80      -3.6549      2.00000
     81      -3.6399      2.00000
     82      -3.6362      2.00000
     83      -3.6145      2.00000
     84      -3.6116      2.00000
     85      -3.6000      2.00000
     86      -3.5995      2.00000
     87      -3.5726      2.00000
     88      -3.5425      2.00000
     89      -3.5418      2.00000
     90      -3.5267      2.00000
     91      -3.5126      2.00000
     92      -3.4767      2.00000
     93      -3.4764      2.00000
     94      -3.4464      2.00000
     95      -3.4405      2.00000
     96      -3.3985      2.00000
     97      -3.3737      2.00000
     98      -3.3003      2.00000
     99      -3.2830      2.00000
    100      -3.2826      2.00000
    101      -3.2386      2.00000
    102      -3.2356      2.00000
    103      -3.2052      2.00000
    104      -3.2036      2.00000
    105      -3.1863      2.00000
    106      -3.1679      2.00000
    107      -3.1631      2.00000
    108      -3.1564      2.00000
    109      -3.1393      2.00000
    110      -3.0950      2.00000
    111      -3.0846      2.00000
    112      -3.0686      2.00000
    113      -3.0539      2.00000
    114      -3.0287      2.00000
    115      -3.0248      2.00000
    116      -2.9739      2.00000
    117      -2.9628      2.00000
    118      -2.9526      2.00000
    119      -2.9341      2.00000
    120      -2.9281      2.00000
    121      -2.9094      2.00000
    122      -2.8888      2.00000
    123      -2.8567      2.00000
    124      -2.8546      2.00000
    125      -2.8481      2.00000
    126      -2.8431      2.00000
    127      -2.8316      2.00000
    128      -2.8159      2.00000
    129      -2.8074      2.00000
    130      -2.7978      2.00000
    131      -2.7809      2.00000
    132      -2.7636      2.00000
    133      -2.7565      2.00000
    134      -2.7399      2.00000
    135      -2.7314      2.00000
    136      -2.7068      2.00000
    137      -2.7003      2.00000
    138      -2.6978      2.00000
    139      -2.6704      2.00000
    140      -2.6547      2.00000
    141      -2.6426      2.00000
    142      -2.6256      2.00000
    143      -2.5971      2.00000
    144      -2.5598      2.00000
    145      -2.5552      2.00000
    146      -2.5539      2.00000
    147      -2.5388      2.00000
    148      -2.5125      2.00000
    149      -2.5034      2.00000
    150      -2.4996      2.00000
    151      -2.4915      2.00000
    152      -2.4886      2.00000
    153      -2.4720      2.00000
    154      -2.4649      2.00000
    155      -2.4537      2.00000
    156      -2.4509      2.00000
    157      -2.4400      2.00000
    158      -2.4321      2.00000
    159      -2.4290      2.00000
    160      -2.4181      2.00000
    161      -2.4134      2.00000
    162      -2.4054      2.00000
    163      -2.4011      2.00000
    164      -2.3832      2.00000
    165      -2.3710      2.00000
    166      -2.3698      2.00000
    167      -2.3378      2.00000
    168      -2.3272      2.00000
    169      -2.3253      2.00000
    170      -2.3018      2.00000
    171      -2.2921      2.00000
    172      -2.2792      2.00000
    173      -2.2533      2.00000
    174      -2.2417      2.00000
[...]
  0.000   0.000   0.000   0.000   0.000   0.000   0.000   0.000   0.000   0.000   0.000   0.000   0.000   0.000   0.000   0.000
  0.000   0.000   0.000   0.000   0.000   0.000   0.000   0.000   0.000   0.000   0.000   0.000   0.000   0.000   0.000   0.000
  0.000   0.000   0.000   0.000   0.000   0.000   0.000   0.000   0.000   0.000   0.000   0.000   0.000   0.000   0.000   0.000
  0.000   0.000   0.000   0.000   0.000   0.000   0.000   0.000   0.000   0.000   0.000   0.000   0.000   0.000   0.000   0.000
  0.000   0.000   0.000   0.000   0.000   0.000   0.000   0.000   0.000   0.000   0.000   0.000   0.000   0.000   0.000   0.000
  0.000   0.000   0.000   0.000   0.000   0.000   0.000   0.000   0.000   0.000   1.000   0.000   0.000   0.000   0.000   0.000
  0.000   0.000   0.000   0.000   0.000   0.000   0.000   0.000   0.000   0.000   0.000   0.000   0.000   0.000   0.000   0.000
  0.000   0.000   0.000   0.000   0.000   0.000   0.000   0.000   0.000   0.000   0.000   0.000   0.000   0.000   0.000   0.000
  0.000   0.000   0.000   0.000   0.000   0.000   0.000   0.000   0.000   0.000   0.000   0.000   0.000   0.000   0.000   0.000
  0.000   0.000   0.000   0.000   0.000   0.000   0.000   0.000   0.000   0.000   0.000   0.000   0.000   0.000   0.000   0.000
  0.000   0.000   0.000   0.000   0.000   0.000   0.000   0.000   0.000   0.000   0.000   0.000   0.000   0.000   0.000   0.000
  0.000   0.000   0.000   0.000   0.000   0.000   0.000   0.000   0.000   0.000   0.000   0.000   0.000   0.000   0.000   0.000
  0.000   0.000   0.000   0.000   0.000   0.000   0.000   0.000   0.000   0.000   0.000   0.000   0.000   0.000   0.000   0.000


------------------------ aborting loop because EDIFF is reached ----------------------------------------





 total charge

# of ion       s       p       d       tot
------------------------------------------
    1        0.417   0.201   9.179   9.797
    2        0.417   0.203   9.177   9.797
    3        0.417   0.203   9.177   9.797
    4        0.417   0.203   9.177   9.797
    5        0.415   0.204   9.175   9.795
    6        0.417   0.203   9.177   9.797
    7        0.417   0.203   9.177   9.797
    8        0.417   0.203   9.177   9.797
    9        0.413   0.202   9.179   9.794
   10        0.407   0.269   9.164   9.840
   11        0.406   0.270   9.166   9.843
   12        0.407   0.269   9.164   9.840
   13        0.406   0.270   9.166   9.843
   14        0.406   0.270   9.166   9.843
   15        0.403   0.268   9.166   9.837
   16        0.407   0.269   9.164   9.840
   17        0.403   0.268   9.166   9.837
   18        0.403   0.268   9.166   9.837
   19        0.402   0.269   9.165   9.836
   20        0.425   0.290   9.154   9.868
   21        0.425   0.290   9.154   9.868
   22        0.399   0.270   9.169   9.838
   23        0.425   0.290   9.154   9.868
   24        0.399   0.270   9.169   9.838
   25        0.402   0.269   9.165   9.836
   26        0.402   0.269   9.165   9.836
   27        0.399   0.270   9.169   9.838
   28        0.419   0.195   9.182   9.797
   29        0.399   0.206   9.185   9.791
   30        0.399   0.206   9.185   9.791
   31        0.399   0.206   9.185   9.791
   32        0.399   0.206   9.185   9.791
   33        0.399   0.206   9.185   9.791
   34        0.399   0.206   9.185   9.791
   35        0.412   0.199   9.180   9.792
   36        0.487   0.521   7.424   8.433
   37        1.603   3.216   0.000   4.819
--------------------------------------------------
tot         16.396  12.102 328.443 356.941
 
    CHARGE:  cpu time    0.3370: real time    0.3370
    FORLOC:  cpu time    0.0100: real time    0.0100
    FORNL :  cpu time    1.4745: real time    1.4748
    STRESS:  cpu time    4.4175: real time    4.4179
    FORCOR:  cpu time    0.0530: real time    0.0531
    FORHAR:  cpu time    0.0166: real time    0.0166
    OFIELD:  cpu time    0.0002: real time    0.0002

  FORCE on cell =-STRESS in cart. coord.  units (eV):
  Direction    XX          YY          ZZ          XY          YZ          ZX
  --------------------------------------------------------------------------------------
  Alpha Z   752.10434   752.10434   752.10434
  Ewald  121525.56030121525.56037************     0.00003     0.00000     0.00004
  Hartree131826.11310131826.11313************     0.00001    -0.00000     0.00002
  E(xc)   -2101.75894 -2101.75895 -2106.53859     0.00001    -0.00000    -0.00000
  Local  ************************264664.21450     0.00046    -0.00006    -0.00017
  n-local  -353.39448  -333.58947  -337.70860    11.39451    -0.28663     0.51124
  augment  3287.48595  3287.48617  3288.65371    -0.00019    -0.00001    -0.00002
  Kinetic  5011.58298  5017.26198  5018.26912     4.79135     1.24174    -0.36660
  Fock        0.00000     0.00000     0.00000     0.00000     0.00000     0.00000
  -------------------------------------------------------------------------------------
  Total      -7.64399    -7.64399    -0.07520    -0.00000    -0.00000    -0.00000
  in kB      -8.25016    -8.25016    -0.08116    -0.00000    -0.00000    -0.00000
  external pressure =       -5.53 kB  Pullay stress =        0.00 kB


 VOLUME and BASIS-vectors are now :
 -----------------------------------------------------------------------------
  energy-cutoff  :      500.00
  volume of cell :     1484.46
      direct lattice vectors                 reciprocal lattice vectors
     8.791366577  0.000000000  0.000000000     0.113747958 -0.065672414  0.000000000
     4.395683289  7.613546790  0.000000000     0.000000000  0.131344829  0.000000000
     0.000000000  0.000000000 22.178121567     0.000000000  0.000000000  0.045089481

  length of vectors
     8.791366577  8.791366577 22.178121567     0.131344829  0.131344829  0.045089481


 FORCES acting on ions
    electron-ion (+dipol)            ewald-force                    non-local-force                 convergence-correction
 -----------------------------------------------------------------------------------------------
   0.457E-04 -.284E-04 0.252E+04   -.954E-04 0.593E-04 -.252E+04   0.201E-17 0.107E-17 -.209E+01   -.171E-03 -.165E-03 0.161E+00
   0.327E+00 0.490E+00 0.252E+04   -.435E+00 -.520E+00 -.252E+04   0.492E-01 0.651E-01 -.157E+01   0.601E-01 -.214E-01 0.176E+00
   -.327E+00 0.490E+00 0.252E+04   0.435E+00 -.520E+00 -.252E+04   -.492E-01 0.651E-01 -.157E+01   -.605E-01 -.195E-01 0.177E+00
   0.588E+00 0.379E-01 0.252E+04   -.668E+00 -.116E+00 -.252E+04   0.809E-01 0.100E-01 -.157E+01   0.117E-01 0.629E-01 0.176E+00
   -.557E-05 -.187E-04 0.252E+04   0.981E-04 -.199E-05 -.252E+04   -.138E-17 -.919E-18 -.149E+01   0.625E-02 0.382E-02 0.100E+00
   -.588E+00 0.379E-01 0.252E+04   0.668E+00 -.116E+00 -.252E+04   -.809E-01 0.100E-01 -.157E+01   -.131E-01 0.638E-01 0.177E+00
   0.261E+00 -.528E+00 0.252E+04   -.233E+00 0.637E+00 -.252E+04   0.318E-01 -.751E-01 -.157E+01   -.468E-01 -.422E-01 0.177E+00
   -.261E+00 -.528E+00 0.252E+04   0.233E+00 0.637E+00 -.252E+04   -.318E-01 -.751E-01 -.157E+01   0.483E-01 -.432E-01 0.177E+00
   0.362E-04 -.131E-04 0.252E+04   0.792E-04 -.643E-04 -.252E+04   -.177E-17 -.121E-18 -.188E+01   -.661E-02 -.343E-02 0.235E+00
   0.501E+01 0.289E+01 0.865E+03   -.466E+01 -.269E+01 -.864E+03   -.326E+00 -.188E+00 -.799E+00   -.223E-01 -.127E-01 0.159E+00
   -.289E-04 0.520E+01 0.872E+03   0.414E-04 -.515E+01 -.872E+03   0.631E-12 0.960E-01 -.303E+00   0.661E-02 -.168E+00 0.108E+00
   -.501E+01 0.289E+01 0.865E+03   0.466E+01 -.269E+01 -.864E+03   0.326E+00 -.188E+00 -.799E+00   0.205E-01 -.117E-01 0.159E+00
   0.450E+01 -.260E+01 0.872E+03   -.446E+01 0.257E+01 -.872E+03   0.831E-01 -.480E-01 -.303E+00   -.142E+00 0.896E-01 0.109E+00
   -.450E+01 -.260E+01 0.872E+03   0.446E+01 0.257E+01 -.872E+03   -.831E-01 -.480E-01 -.303E+00   0.153E+00 0.882E-01 0.108E+00
   0.161E-04 0.317E+00 0.865E+03   -.109E-03 -.527E+00 -.864E+03   0.503E-12 0.767E-01 -.668E+00   -.171E-02 0.110E+00 0.134E+00
   -.770E-05 -.579E+01 0.865E+03   0.206E-04 0.538E+01 -.864E+03   0.247E-11 0.376E+00 -.799E+00   -.237E-03 0.237E-01 0.159E+00
   0.274E+00 -.158E+00 0.865E+03   -.456E+00 0.263E+00 -.864E+03   0.664E-01 -.383E-01 -.668E+00   0.948E-01 -.567E-01 0.134E+00
   -.275E+00 -.159E+00 0.865E+03   0.456E+00 0.264E+00 -.864E+03   -.664E-01 -.383E-01 -.668E+00   -.943E-01 -.545E-01 0.135E+00
   0.410E-04 0.251E+01 -.820E+03   -.129E-03 -.270E+01 0.819E+03   0.730E-12 0.111E+00 0.603E+00   -.658E-02 0.620E-01 0.110E-01
   0.178E+02 0.103E+02 -.783E+03   -.165E+02 -.955E+01 0.783E+03   -.113E+01 -.655E+00 -.709E+00   -.907E-01 -.516E-01 0.102E+00
   -.178E+02 0.103E+02 -.783E+03   0.165E+02 -.955E+01 0.783E+03   0.113E+01 -.655E+00 -.709E+00   0.923E-01 -.530E-01 0.102E+00
   0.776E+01 -.448E+01 -.810E+03   -.793E+01 0.458E+01 0.809E+03   0.227E+00 -.131E+00 0.709E+00   -.504E-01 0.308E-01 0.658E-01
   -.572E-04 -.205E+02 -.783E+03   0.444E-04 0.191E+02 0.783E+03   0.860E-11 0.131E+01 -.709E+00   -.542E-02 0.974E-01 0.102E+00
   -.776E+01 -.448E+01 -.810E+03   0.793E+01 0.458E+01 0.809E+03   -.227E+00 -.131E+00 0.709E+00   0.519E-01 0.293E-01 0.665E-01
   -.218E+01 -.126E+01 -.820E+03   0.233E+01 0.135E+01 0.819E+03   -.963E-01 -.556E-01 0.603E+00   -.613E-01 -.348E-01 0.111E-01
   0.218E+01 -.126E+01 -.820E+03   -.233E+01 0.135E+01 0.819E+03   0.963E-01 -.556E-01 0.603E+00   0.505E-01 -.357E-01 0.110E-01
   0.205E-04 0.896E+01 -.810E+03   0.110E-03 -.915E+01 0.809E+03   0.172E-11 0.262E+00 0.709E+00   0.995E-03 -.596E-01 0.658E-01
   0.545E-04 -.374E-04 -.248E+04   -.117E-03 0.784E-04 0.248E+04   -.108E-16 0.458E-17 0.189E+01   -.151E-02 -.723E-03 -.105E+00
   0.263E+02 0.461E+02 -.247E+04   -.265E+02 -.465E+02 0.247E+04   -.455E-01 0.181E+00 0.221E+01   0.696E-01 0.654E-01 -.149E+00
   -.263E+02 0.461E+02 -.247E+04   0.265E+02 -.465E+02 0.247E+04   0.455E-01 0.181E+00 0.221E+01   -.594E-01 0.668E-01 -.150E+00
   0.531E+02 -.254E+00 -.247E+04   -.535E+02 0.367E+00 0.247E+04   0.134E+00 -.130E+00 0.221E+01   0.916E-01 0.278E-01 -.149E+00
   -.531E+02 -.253E+00 -.247E+04   0.535E+02 0.367E+00 0.247E+04   -.134E+00 -.130E+00 0.221E+01   -.822E-01 0.281E-01 -.150E+00
   0.268E+02 -.458E+02 -.247E+04   -.271E+02 0.462E+02 0.247E+04   0.180E+00 -.512E-01 0.221E+01   0.283E-01 -.846E-01 -.150E+00
   -.268E+02 -.458E+02 -.247E+04   0.271E+02 0.462E+02 0.247E+04   -.180E+00 -.512E-01 0.221E+01   -.169E-01 -.854E-01 -.149E+00
   0.219E-04 -.112E-04 -.248E+04   0.107E-03 -.665E-04 0.248E+04   -.238E-17 0.142E-18 0.196E+01   -.745E-02 -.401E-02 -.181E+00
   0.200E-04 -.881E-05 -.175E+04   0.860E-04 0.106E-04 0.175E+04   -.120E-16 -.600E-18 -.456E+01   0.228E-02 0.165E-02 0.986E-01
   0.180E-03 -.983E-04 -.167E+04   0.272E-04 0.381E-06 0.170E+04   -.448E-17 0.380E-18 -.266E+02   0.332E-02 0.205E-02 -.883E-01
 -----------------------------------------------------------------------------------------------
   0.611E-03 -.767E-03 0.304E+02   0.201E-13 0.109E-12 -.591E-11   -.744E-16 0.686E-17 -.324E+02   0.221E-01 0.110E-01 0.212E+01
 
 
 POSITION                                       TOTAL-FORCE (eV/Angst)
 -----------------------------------------------------------------------------------
      0.00000      0.00000      5.28219        -0.000000     -0.000000     -0.008580
      2.93046      0.00000      5.28219         0.001625      0.013986      0.025519
      5.86091      0.00000      5.28219        -0.001625      0.013986      0.025519
      1.46523      2.53785      5.28219         0.012925     -0.005585      0.025519
      4.39568      2.53785      5.28219        -0.000000     -0.000000      0.023094
      7.32614      2.53785      5.28219        -0.012925     -0.005585      0.025519
      2.93046      5.07570      5.28219         0.011300     -0.008400      0.025519
      5.86091      5.07570      5.28219        -0.011300     -0.008400      0.025519
      8.79137      5.07570      5.28219        -0.000000     -0.000000     -0.001684
      1.46523      0.84595      7.67490         0.006242      0.003604      0.003445
      4.39568      0.84595      7.67490        -0.000000     -0.025420     -0.047040
      7.32614      0.84595      7.67490        -0.006242      0.003604      0.003445
      2.93046      3.38380      7.67490        -0.022014      0.012710     -0.047040
      5.86091      3.38380      7.67490         0.022014      0.012710     -0.047040
      8.79137      3.38380      7.67490        -0.000000     -0.023514     -0.008821
      4.39568      5.92165      7.67490        -0.000000     -0.007207      0.003445
      7.32614      5.92165      7.67490        -0.020364      0.011757     -0.008821
     10.25659      5.92165      7.67490         0.020364      0.011757     -0.008821
      8.79137      1.69615     10.06050        -0.000000     -0.005694     -0.019463
      2.93321      1.69349     10.03240        -0.002618     -0.001512     -0.165365
      5.85816      1.69349     10.03240         0.002618     -0.001512     -0.165365
     10.25564      4.23030     10.05204         0.006919     -0.003995     -0.040596
      4.39568      4.22657     10.03240         0.000000      0.003023     -0.165365
      7.32709      4.23030     10.05204        -0.006919     -0.003995     -0.040596
     11.71814      6.76547     10.06050         0.004931      0.002847     -0.019463
      5.86459      6.76547     10.06050        -0.004931      0.002847     -0.019463
      8.79137      6.76650     10.05204         0.000000      0.007989     -0.040596
      0.00000      0.00000     12.42190        -0.000000     -0.000000      0.013466
      2.95118      0.03878     12.42853        -0.110306     -0.207063     -0.044633
      5.84018      0.03878     12.42853         0.110306     -0.207063     -0.044633
      1.50917      2.53641     12.42853        -0.234475      0.008004     -0.044633
      7.28219      2.53641     12.42853         0.234475      0.008004     -0.044633
      2.95367      5.03836     12.42853        -0.124169      0.199059     -0.044633
      5.83769      5.03836     12.42853         0.124169      0.199059     -0.044633
      8.79137      5.07570     12.41313        -0.000000     -0.000000      0.031629
      4.39568      2.53785     12.23685        -0.000000     -0.000000      0.894628
      4.39568      2.53785     14.01147        -0.000000     -0.000000     -0.004347
 -----------------------------------------------------------------------------------
    total drift:                                0.022734      0.010244      0.162193


--------------------------------------------------------------------------------------------------------



  FREE ENERGIE OF THE ION-ELECTRON SYSTEM (eV)
  ---------------------------------------------------
  free  energy   TOTEN  =      -100.97242388 eV

  energy  without entropy=     -100.97242388  energy(sigma->0) =     -100.97242388
 


--------------------------------------------------------------------------------------------------------


    POTLOK:  cpu time    0.0432: real time    0.0432


--------------------------------------------------------------------------------------------------------


 stress matrix after NEB project (eV)
     -7.64399     -0.00000     -0.00000
     -0.00000     -7.64399      0.00000
      0.00000     -0.00000     -0.07520
  FORCES: max atom, RMS     0.004347    0.000715
  FORCE total and by dimension    0.004347    0.004347
  Stress total and by dimension   10.810494    7.643989
     LOOP+:  cpu time   68.9967: real time   69.0108
 -----------------------------------------------------------------------------
|                                                                             |
|           W    W    AA    RRRRR   N    N  II  N    N   GGGG   !!!           |
|           W    W   A  A   R    R  NN   N  II  NN   N  G    G  !!!           |
|           W    W  A    A  R    R  N N  N  II  N N  N  G       !!!           |
|           W WW W  AAAAAA  RRRRR   N  N N  II  N  N N  G  GGG   !            |
|           WW  WW  A    A  R   R   N   NN  II  N   NN  G    G                |
|           W    W  A    A  R    R  N    N  II  N    N   GGGG   !!!           |
|                                                                             |
|     Tetrahedron method does not include variations of the Fermi             |
|     occupations, so forces and stress will be inaccurate. We suggest        |
|     using a different smearing scheme ISMEAR = 1 or 2 for metals in         |
|     relaxations.                                                            |
|                                                                             |
 -----------------------------------------------------------------------------

    4ORBIT:  cpu time    0.0000: real time    0.0000



 total charge

# of ion       s       p       d       tot
------------------------------------------
    1        0.417   0.201   9.179   9.797
    2        0.417   0.203   9.177   9.797
    3        0.417   0.203   9.177   9.797
    4        0.417   0.203   9.177   9.797
    5        0.415   0.204   9.175   9.795
    6        0.417   0.203   9.177   9.797
    7        0.417   0.203   9.177   9.797
    8        0.417   0.203   9.177   9.797
    9        0.413   0.202   9.179   9.794
   10        0.407   0.269   9.164   9.840
   11        0.406   0.270   9.166   9.843
   12        0.407   0.269   9.164   9.840
   13        0.406   0.270   9.166   9.843
   14        0.406   0.270   9.166   9.843
   15        0.403   0.268   9.166   9.837
   16        0.407   0.269   9.164   9.840
   17        0.403   0.268   9.166   9.837
   18        0.403   0.268   9.166   9.837
   19        0.402   0.269   9.165   9.836
   20        0.425   0.290   9.154   9.868
   21        0.425   0.290   9.154   9.868
   22        0.399   0.270   9.169   9.838
   23        0.425   0.290   9.154   9.868
   24        0.399   0.270   9.169   9.838
   25        0.402   0.269   9.165   9.836
   26        0.402   0.269   9.165   9.836
   27        0.399   0.270   9.169   9.838
   28        0.419   0.195   9.182   9.797
   29        0.399   0.206   9.185   9.791
   30        0.399   0.206   9.185   9.791
   31        0.399   0.206   9.185   9.791
   32        0.399   0.206   9.185   9.791
   33        0.399   0.206   9.185   9.791
   34        0.399   0.206   9.185   9.791
   35        0.412   0.199   9.180   9.792
   36        0.487   0.521   7.424   8.433
   37        1.603   3.216   0.000   4.819
--------------------------------------------------
tot         16.396  12.102 328.443 356.941
 
 BZINTS: Fermi energy:    0.760369;  400.000000 electrons
         Band energy:-0.133762E+04;  BLOECHL correction:   -0.036038

 total amount of memory used by VASP MPI-rank0   123115. kBytes
=======================================================================

   base      :      30000. kBytes
   nonlr-proj:      15012. kBytes
   fftplans  :       4330. kBytes
   grid      :      17879. kBytes
   one-center:        575. kBytes
   wavefun   :      55319. kBytes
 
  
  
 General timing and accounting informations for this job:
 ========================================================
  
                  Total CPU time used (sec):       76.308
                            User time (sec):       73.448
                          System time (sec):        2.859
                         Elapsed time (sec):       76.736
  
                   Maximum memory used (kb):      379740.
                   Average memory used (kb):          N/A
  
                          Minor page faults:        74189
                          Major page faults:            0
                 Voluntary context switches:         4774
