PROCAR new format
# of k-points:   10         # of bands:  252         # of ions:   37

 k-point     1 :    0.00000000 0.00000000 0.00000000     weight = 0.01562500

band     1 # energy  -17.00547951 # occ.  2.00000000
 
ion      s      p      d    tot
    1  0.000  0.000  0.000  0.000
    2  0.000  0.000  0.000  0.000
    3  0.000  0.000  0.000  0.000
    4  0.000  0.000  0.000  0.000
    5  0.000  0.000  0.000  0.000
    6  0.000  0.000  0.000  0.000
    7  0.000  0.000  0.000  0.000
    8  0.000  0.000  0.000  0.000
    9  0.000  0.000  0.000  0.000
   10  0.000  0.000  0.000  0.000
   11  0.000  0.000  0.000  0.000
   12  0.000  0.000  0.000  0.000
   13  0.000  0.000  0.000  0.000
   14  0.000  0.000  0.000  0.000
   15  0.000  0.000  0.000  0.000
   16  0.000  0.000  0.000  0.000
   17  0.000  0.000  0.000  0.000
   18  0.000  0.000  0.000  0.000
   19  0.000  0.000  0.000  0.000
   20  0.000  0.000  0.000  0.000
   21  0.000  0.000  0.000  0.000
   22  0.000  0.000  0.000  0.000
   23  0.000  0.000  0.000  0.000
   24  0.000  0.000  0.000  0.000
   25  0.000  0.000  0.000  0.000
   26  0.000  0.000  0.000  0.000
   27  0.000  0.000  0.000  0.000
   28  0.000  0.000  0.000  0.000
   29  0.000  0.000  0.000  0.000
   30  0.000  0.000  0.000  0.000
   31  0.000  0.000  0.000  0.000
   32  0.000  0.000  0.000  0.000
   33  0.000  0.000  0.000  0.000
   34  0.000  0.000  0.000  0.000
   35  0.000  0.000  0.000  0.000
   36  0.026  0.044  0.074  0.143
   37  0.769  0.012  0.000  0.780
tot    0.794  0.056  0.074  0.924
 
band     2 # energy   -6.34805101 # occ.  2.00000000
 
ion      s      p      d    tot
    1  0.006  0.001  0.000  0.007
    2  0.006  0.001  0.000  0.006
    3  0.006  0.001  0.000  0.006
    4  0.006  0.001  0.000  0.006
    5  0.006  0.001  0.000  0.006
    6  0.006  0.001  0.000  0.006
    7  0.006  0.001  0.000  0.006
    8  0.006  0.001  0.000  0.006
    9  0.006  0.001  0.000  0.007
   10  0.023  0.000  0.000  0.024
   11  0.023  0.000  0.000  0.024
   12  0.023  0.000  0.000  0.024
   13  0.023  0.000  0.000  0.024
   14  0.023  0.000  0.000  0.024
   15  0.023  0.000  0.000  0.024
   16  0.023  0.000  0.000  0.024
   17  0.023  0.000  0.000  0.024
   18  0.023  0.000  0.000  0.024
   19  0.023  0.000  0.000  0.024
   20  0.024  0.000  0.000  0.025
   21  0.024  0.000  0.000  0.025
   22  0.024  0.000  0.000  0.024
   23  0.024  0.000  0.000  0.025
   24  0.024  0.000  0.000  0.024
   25  0.023  0.000  0.000  0.023
   26  0.023  0.000  0.000  0.023
   27  0.024  0.000  0.000  0.024
   28  0.006  0.001  0.000  0.006
   29  0.005  0.001  0.000  0.006
   30  0.005  0.001  0.000  0.006
   31  0.005  0.001  0.000  0.006
   32  0.005  0.001  0.000  0.006
   33  0.005  0.001  0.000  0.006
   34  0.005  0.001  0.000  0.006
   35  0.006  0.001  0.000  0.006
   36  0.006  0.001  0.000  0.007
   37  0.000  0.000  0.000  0.001
tot    0.525  0.014  0.006  0.545
 
band     3 # energy   -5.47459770 # occ.  2.00000000
 
ion      s      p      d    tot
    1  0.008  0.000  0.000  0.009
    2  0.008  0.000  0.000  0.009
    3  0.008  0.000  0.000  0.009
    4  0.008  0.000  0.000  0.009
    5  0.008  0.000  0.000  0.008
    6  0.008  0.000  0.000  0.009
    7  0.008  0.000  0.000  0.009
    8  0.008  0.000  0.000  0.009
    9  0.008  0.000  0.000  0.009
   10  0.011  0.001  0.015  0.027
   11  0.011  0.001  0.015  0.027
   12  0.011  0.001  0.015  0.027
   13  0.011  0.001  0.015  0.027
   14  0.011  0.001  0.015  0.027
   15  0.011  0.001  0.015  0.027
   16  0.011  0.001  0.015  0.027
   17  0.011  0.001  0.015  0.027
   18  0.011  0.001  0.015  0.027
   19  0.012  0.001  0.017  0.030
   20  0.012  0.001  0.018  0.032
   21  0.012  0.001  0.018  0.032
   22  0.012  0.001  0.017  0.030
   23  0.012  0.001  0.018  0.032
   24  0.012  0.001  0.017  0.030
   25  0.012  0.001  0.017  0.030
   26  0.012  0.001  0.017  0.030
   27  0.012  0.001  0.017  0.030
   28  0.007  0.000  0.000  0.007
   29  0.006  0.000  0.000  0.007
   30  0.006  0.000  0.000  0.007
   31  0.006  0.000  0.000  0.007
   32  0.006  0.000  0.000  0.007
   33  0.006  0.000  0.000  0.007
   34  0.006  0.000  0.000  0.007
   35  0.007  0.000  0.000  0.007
   36  0.006  0.001  0.000  0.007
   37  0.001  0.001  0.000  0.002
tot    0.337  0.026  0.296  0.659
 
band     4 # energy   -5.19284725 # occ.  2.00000000
 
ion      s      p      d    tot
    1  0.016  0.000  0.020  0.035
    2  0.013  0.000  0.020  0.034
    3  0.013  0.000  0.020  0.034
    4  0.013  0.000  0.020  0.034
    5  0.012  0.000  0.021  0.033
    6  0.013  0.000  0.020  0.034
    7  0.013  0.000  0.020  0.034
    8  0.013  0.000  0.020  0.034
    9  0.013  0.000  0.021  0.034
   10  0.000  0.000  0.021  0.021
   11  0.000  0.000  0.017  0.018
   12  0.000  0.000  0.021  0.021
   13  0.000  0.000  0.017  0.018
   14  0.000  0.000  0.017  0.018
   15  0.001  0.001  0.017  0.018
   16  0.000  0.000  0.021  0.021
   17  0.001  0.001  0.017  0.018
   18  0.001  0.001  0.017  0.018
   19  0.000  0.000  0.011  0.011
   20  0.000  0.000  0.013  0.014
   21  0.000  0.000  0.013  0.014
   22  0.000  0.000  0.013  0.014
   23  0.000  0.000  0.013  0.014
   24  0.000  0.000  0.013  0.014
   25  0.000  0.000  0.011  0.011
   26  0.000  0.000  0.011  0.011
   27  0.000  0.000  0.013  0.014
   28  0.009  0.000  0.009  0.018
   29  0.008  0.000  0.010  0.019
   30  0.008  0.000  0.010  0.019
   31  0.008  0.000  0.010  0.019
   32  0.008  0.000  0.010  0.019
   33  0.008  0.000  0.010  0.019
   34  0.008  0.000  0.010  0.019
   35  0.011  0.000  0.011  0.021
   36  0.004  0.000  0.012  0.016
   37  0.000  0.001  0.000  0.001
tot    0.198  0.008  0.556  0.762
 
band     5 # energy   -5.10453721 # occ.  2.00000000
 
ion      s      p      d    tot
    1  0.001  0.001  0.007  0.009
    2  0.001  0.000  0.006  0.007
    3  0.001  0.000  0.006  0.007
    4  0.001  0.000  0.006  0.007
    5  0.003  0.000  0.001  0.004
    6  0.001  0.000  0.006  0.007
    7  0.001  0.000  0.006  0.007
    8  0.001  0.000  0.006  0.007
    9  0.004  0.000  0.000  0.005
   10  0.006  0.000  0.023  0.028
   11  0.001  0.001  0.020  0.021
   12  0.006  0.000  0.023  0.028
   13  0.001  0.001  0.020  0.021
   14  0.001  0.001  0.020  0.021
   15  0.004  0.001  0.011  0.016
   16  0.006  0.000  0.023  0.028
   17  0.004  0.001  0.011  0.016
   18  0.004  0.001  0.011  0.016
   19  0.001  0.001  0.042  0.043
   20  0.010  0.000  0.084  0.094
   21  0.010  0.000  0.084  0.094
   22  0.012  0.001  0.004  0.017
   23  0.010  0.000  0.084  0.094
   24  0.012  0.001  0.004  0.017
   25  0.001  0.001  0.042  0.043
   26  0.001  0.001  0.042  0.043
   27  0.012  0.001  0.004  0.017
   28  0.000  0.000  0.001  0.001
   29  0.000  0.000  0.004  0.005
   30  0.000  0.000  0.004  0.005
   31  0.000  0.000  0.004  0.005
   32  0.000  0.000  0.004  0.005
   33  0.000  0.000  0.004  0.005
   34  0.000  0.000  0.004  0.005
   35  0.005  0.001  0.001  0.007
   36  0.006  0.001  0.032  0.039
   37  0.002  0.017  0.000  0.019
tot    0.129  0.031  0.652  0.812
 
band     6 # energy   -5.07007465 # occ.  2.00000000
 
ion      s      p      d    tot
    1  0.000  0.000  0.006  0.006
    2  0.000  0.000  0.003  0.003
    3  0.001  0.000  0.003  0.005
    4  0.000  0.000  0.002  0.002
    5  0.000  0.000  0.008  0.008
    6  0.002  0.000  0.004  0.006
    7  0.001  0.000  0.003  0.004
    8  0.001  0.000  0.003  0.005
    9  0.000  0.000  0.001  0.001
   10  0.012  0.001  0.007  0.020
   11  0.008  0.001  0.025  0.033
   12  0.001  0.000  0.046  0.048
   13  0.002  0.001  0.026  0.029
   14  0.017  0.001  0.022  0.040
   15  0.000  0.001  0.023  0.024
   16  0.006  0.000  0.031  0.037
   17  0.000  0.001  0.023  0.024
   18  0.000  0.000  0.025  0.026
   19  0.001  0.001  0.026  0.028
   20  0.029  0.001  0.022  0.052
   21  0.003  0.001  0.049  0.053
   22  0.002  0.000  0.095  0.097
   23  0.013  0.001  0.038  0.052
   24  0.014  0.001  0.009  0.024
   25  0.002  0.000  0.036  0.038
   26  0.000  0.001  0.019  0.021
   27  0.006  0.000  0.063  0.069
   28  0.000  0.000  0.000  0.000
   29  0.001  0.001  0.005  0.008
   30  0.000  0.000  0.004  0.005
   31  0.002  0.001  0.007  0.009
   32  0.000  0.000  0.003  0.003
   33  0.001  0.000  0.006  0.007
   34  0.001  0.000  0.003  0.004
   35  0.000  0.000  0.006  0.007
   36  0.000  0.000  0.006  0.007
   37  0.000  0.001  0.000  0.001
tot    0.126  0.018  0.659  0.803
 
band     7 # energy   -5.07005587 # occ.  2.00000000
 
ion      s      p      d    tot
    1  0.000  0.000  0.006  0.006
    2  0.001  0.000  0.003  0.005
    3  0.000  0.000  0.003  0.004
    4  0.002  0.000  0.004  0.006
    5  0.000  0.000  0.008  0.008
    6  0.000  0.000  0.002  0.003
    7  0.001  0.000  0.003  0.005
    8  0.000  0.000  0.003  0.003
    9  0.000  0.000  0.001  0.001
   10  0.000  0.000  0.049  0.050
   11  0.010  0.001  0.024  0.035
   12  0.011  0.001  0.010  0.023
   13  0.016  0.001  0.022  0.039
   14  0.001  0.001  0.027  0.028
   15  0.000  0.000  0.024  0.025
   16  0.007  0.001  0.025  0.033
   17  0.000  0.000  0.025  0.025
   18  0.000  0.001  0.023  0.024
   19  0.001  0.001  0.028  0.030
   20  0.001  0.001  0.051  0.053
   21  0.027  0.001  0.024  0.051
   22  0.013  0.001  0.016  0.030
   23  0.017  0.001  0.034  0.052
   24  0.001  0.000  0.102  0.102
   25  0.000  0.001  0.017  0.019
   26  0.002  0.000  0.035  0.037
   27  0.008  0.000  0.049  0.057
   28  0.000  0.000  0.000  0.000
   29  0.000  0.000  0.004  0.004
   30  0.001  0.001  0.005  0.007
   31  0.000  0.000  0.003  0.003
   32  0.002  0.001  0.007  0.009
   33  0.001  0.000  0.003  0.004
   34  0.001  0.000  0.006  0.008
   35  0.000  0.000  0.006  0.007
   36  0.000  0.000  0.006  0.007
   37  0.000  0.001  0.000  0.001
tot    0.126  0.018  0.659  0.803
 
band     8 # energy   -5.06756011 # occ.  2.00000000
 
ion      s      p      d    tot
    1  0.000  0.000  0.003  0.003
    2  0.001  0.000  0.006  0.008
    3  0.001  0.000  0.003  0.005
    4  0.001  0.000  0.006  0.008
    5  0.000  0.000  0.002  0.003
    6  0.000  0.000  0.001  0.001
    7  0.001  0.000  0.003  0.004
    8  0.000  0.000  0.001  0.002
    9  0.000  0.000  0.009  0.009
   10  0.011  0.000  0.034  0.046
   11  0.004  0.000  0.049  0.053
   12  0.000  0.001  0.015  0.017
   13  0.004  0.000  0.047  0.052
   14  0.001  0.001  0.011  0.013
   15  0.007  0.001  0.041  0.048
   16  0.000  0.001  0.015  0.016
   17  0.008  0.001  0.039  0.048
   18  0.019  0.001  0.021  0.041
   19  0.011  0.000  0.055  0.066
   20  0.000  0.001  0.026  0.027
   21  0.002  0.000  0.041  0.043
   22  0.005  0.001  0.013  0.019
   23  0.002  0.000  0.042  0.044
   24  0.011  0.000  0.060  0.071
   25  0.012  0.001  0.016  0.029
   26  0.012  0.000  0.052  0.065
   27  0.004  0.001  0.013  0.019
   28  0.001  0.000  0.008  0.009
   29  0.000  0.000  0.003  0.004
   30  0.000  0.000  0.002  0.002
   31  0.000  0.000  0.003  0.004
   32  0.001  0.000  0.006  0.008
   33  0.000  0.000  0.002  0.002
   34  0.001  0.000  0.006  0.008
   35  0.000  0.000  0.005  0.005
   36  0.000  0.000  0.002  0.002
   37  0.000  0.000  0.000  0.000
tot    0.124  0.017  0.663  0.803
 
band     9 # energy   -5.06755984 # occ.  2.00000000
 
ion      s      p      d    tot
    1  0.000  0.000  0.003  0.003
    2  0.000  0.000  0.003  0.003
    3  0.001  0.000  0.002  0.003
    4  0.000  0.000  0.003  0.003
    5  0.000  0.000  0.002  0.002
    6  0.002  0.000  0.004  0.006
    7  0.001  0.000  0.004  0.005
    8  0.002  0.001  0.005  0.007
    9  0.000  0.000  0.009  0.009
   10  0.000  0.001  0.013  0.014
   11  0.003  0.000  0.022  0.025
   12  0.004  0.001  0.026  0.031
   13  0.004  0.000  0.027  0.032
   14  0.000  0.000  0.061  0.061
   15  0.018  0.001  0.023  0.042
   16  0.007  0.001  0.029  0.037
   17  0.018  0.001  0.022  0.041
   18  0.000  0.001  0.053  0.054
   19  0.016  0.001  0.023  0.040
   20  0.000  0.001  0.055  0.056
   21  0.001  0.000  0.030  0.031
   22  0.011  0.001  0.023  0.035
   23  0.001  0.000  0.030  0.031
   24  0.000  0.002  0.015  0.017
   25  0.000  0.000  0.076  0.077
   26  0.019  0.001  0.026  0.046
   27  0.011  0.001  0.037  0.048
   28  0.000  0.000  0.008  0.008
   29  0.001  0.000  0.005  0.007
   30  0.001  0.000  0.004  0.006
   31  0.001  0.000  0.004  0.006
   32  0.000  0.000  0.002  0.002
   33  0.001  0.000  0.004  0.005
   34  0.000  0.000  0.003  0.003
   35  0.000  0.000  0.005  0.005
   36  0.000  0.000  0.002  0.002
   37  0.000  0.000  0.000  0.000
tot    0.123  0.017  0.664  0.803
 
band    10 # energy   -5.06748793 # occ.  2.00000000
 
ion      s      p      d    tot
    1  0.000  0.000  0.000  0.001
    2  0.000  0.000  0.004  0.004
    3  0.000  0.000  0.006  0.007
    4  0.000  0.000  0.003  0.003
    5  0.004  0.001  0.002  0.008
    6  0.000  0.000  0.007  0.007
    7  0.000  0.000  0.005  0.005
    8  0.000  0.000  0.006  0.006
    9  0.002  0.000  0.003  0.006
   10  0.002  0.001  0.005  0.008
   11  0.009  0.000  0.028  0.038
   12  0.008  0.001  0.011  0.020
   13  0.007  0.001  0.025  0.032
   14  0.015  0.000  0.027  0.042
   15  0.000  0.000  0.046  0.047
   16  0.005  0.001  0.008  0.014
   17  0.000  0.000  0.048  0.048
   18  0.006  0.000  0.034  0.041
   19  0.011  0.001  0.037  0.048
   20  0.007  0.001  0.006  0.014
   21  0.005  0.001  0.018  0.024
   22  0.000  0.000  0.085  0.085
   23  0.005  0.001  0.016  0.023
   24  0.006  0.000  0.045  0.051
   25  0.025  0.000  0.025  0.050
   26  0.006  0.001  0.037  0.044
   27  0.001  0.000  0.071  0.072
   28  0.005  0.001  0.005  0.012
   29  0.000  0.000  0.003  0.003
   30  0.000  0.000  0.006  0.006
   31  0.000  0.000  0.004  0.004
   32  0.000  0.000  0.004  0.004
   33  0.000  0.000  0.006  0.006
   34  0.000  0.000  0.003  0.003
   35  0.002  0.001  0.009  0.011
   36  0.000  0.000  0.000  0.001
   37  0.000  0.000  0.000  0.000
tot    0.134  0.017  0.650  0.801
 
band    11 # energy   -5.04136215 # occ.  2.00000000
 
ion      s      p      d    tot
    1  0.000  0.000  0.008  0.008
    2  0.002  0.000  0.010  0.012
    3  0.002  0.000  0.010  0.012
    4  0.002  0.000  0.010  0.012
    5  0.002  0.000  0.000  0.002
    6  0.002  0.000  0.010  0.012
    7  0.002  0.000  0.010  0.012
    8  0.002  0.000  0.010  0.012
    9  0.006  0.000  0.017  0.023
   10  0.005  0.000  0.012  0.018
   11  0.001  0.000  0.031  0.032
   12  0.005  0.000  0.012  0.018
   13  0.001  0.000  0.031  0.032
   14  0.001  0.000  0.031  0.032
   15  0.001  0.000  0.053  0.053
   16  0.005  0.000  0.012  0.018
   17  0.001  0.000  0.053  0.053
   18  0.001  0.000  0.053  0.053
   19  0.000  0.001  0.003  0.005
   20  0.001  0.000  0.028  0.029
   21  0.001  0.000  0.028  0.029
   22  0.002  0.000  0.054  0.055
   23  0.001  0.000  0.028  0.029
   24  0.002  0.000  0.054  0.056
   25  0.000  0.001  0.003  0.005
   26  0.000  0.001  0.003  0.005
   27  0.002  0.000  0.054  0.055
   28  0.006  0.000  0.001  0.007
   29  0.003  0.000  0.014  0.017
   30  0.003  0.000  0.014  0.017
   31  0.003  0.000  0.014  0.017
   32  0.003  0.000  0.013  0.017
   33  0.003  0.000  0.014  0.017
   34  0.003  0.000  0.013  0.017
   35  0.007  0.000  0.024  0.031
   36  0.000  0.000  0.003  0.004
   37  0.000  0.001  0.000  0.001
tot    0.081  0.008  0.738  0.828
 
band    12 # energy   -5.03271224 # occ.  2.00000000
 
ion      s      p      d    tot
    1  0.000  0.000  0.015  0.016
    2  0.000  0.000  0.008  0.008
    3  0.000  0.000  0.008  0.008
    4  0.000  0.000  0.008  0.008
    5  0.002  0.000  0.000  0.002
    6  0.000  0.000  0.008  0.008
    7  0.000  0.000  0.008  0.008
    8  0.000  0.000  0.008  0.008
    9  0.002  0.001  0.004  0.008
   10  0.002  0.000  0.090  0.093
   11  0.003  0.000  0.027  0.030
   12  0.002  0.000  0.091  0.093
   13  0.003  0.000  0.027  0.030
   14  0.003  0.000  0.027  0.030
   15  0.008  0.001  0.024  0.032
   16  0.002  0.000  0.091  0.093
   17  0.008  0.001  0.024  0.032
   18  0.008  0.001  0.024  0.032
   19  0.000  0.000  0.038  0.038
   20  0.000  0.000  0.025  0.026
   21  0.000  0.000  0.025  0.026
   22  0.000  0.000  0.017  0.017
   23  0.000  0.000  0.025  0.026
   24  0.000  0.000  0.017  0.017
   25  0.000  0.000  0.038  0.038
   26  0.000  0.000  0.038  0.038
   27  0.000  0.000  0.017  0.018
   28  0.003  0.000  0.005  0.009
   29  0.000  0.000  0.008  0.008
   30  0.000  0.000  0.008  0.008
   31  0.000  0.000  0.008  0.008
   32  0.000  0.000  0.008  0.008
   33  0.000  0.000  0.008  0.008
   34  0.000  0.000  0.008  0.008
   35  0.001  0.000  0.001  0.002
   36  0.000  0.000  0.005  0.005
   37  0.000  0.002  0.000  0.002
tot    0.051  0.009  0.787  0.847
 
band    13 # energy   -5.02738016 # occ.  2.00000000
 
ion      s      p      d    tot
    1  0.000  0.000  0.015  0.015
    2  0.001  0.000  0.008  0.009
    3  0.002  0.000  0.005  0.008
    4  0.001  0.001  0.007  0.009
    5  0.000  0.000  0.004  0.004
    6  0.002  0.000  0.005  0.008
    7  0.000  0.000  0.009  0.009
    8  0.000  0.000  0.009  0.010
    9  0.000  0.000  0.010  0.010
   10  0.002  0.000  0.036  0.039
   11  0.001  0.000  0.029  0.030
   12  0.000  0.000  0.030  0.030
   13  0.000  0.000  0.031  0.031
   14  0.001  0.000  0.030  0.031
   15  0.009  0.000  0.016  0.025
   16  0.004  0.000  0.040  0.044
   17  0.000  0.000  0.090  0.091
   18  0.006  0.000  0.045  0.051
   19  0.005  0.000  0.025  0.030
   20  0.002  0.000  0.029  0.032
   21  0.000  0.000  0.050  0.051
   22  0.000  0.000  0.013  0.013
   23  0.004  0.000  0.016  0.020
   24  0.000  0.000  0.030  0.030
   25  0.003  0.000  0.039  0.042
   26  0.000  0.000  0.062  0.062
   27  0.000  0.000  0.040  0.040
   28  0.000  0.000  0.014  0.014
   29  0.002  0.000  0.007  0.009
   30  0.000  0.000  0.008  0.008
   31  0.001  0.000  0.005  0.007
   32  0.000  0.000  0.008  0.008
   33  0.002  0.000  0.005  0.007
   34  0.002  0.000  0.006  0.008
   35  0.000  0.000  0.010  0.010
   36  0.000  0.000  0.002  0.002
   37  0.000  0.000  0.000  0.000
tot    0.054  0.007  0.784  0.845
 
band    14 # energy   -5.02736964 # occ.  2.00000000
 
ion      s      p      d    tot
    1  0.000  0.000  0.015  0.015
    2  0.002  0.001  0.006  0.008
    3  0.000  0.000  0.009  0.010
    4  0.001  0.000  0.007  0.009
    5  0.000  0.000  0.004  0.004
    6  0.000  0.000  0.010  0.010
    7  0.002  0.000  0.005  0.008
    8  0.002  0.001  0.005  0.008
    9  0.000  0.000  0.010  0.010
   10  0.002  0.000  0.035  0.037
   11  0.000  0.000  0.031  0.031
   12  0.004  0.000  0.041  0.045
   13  0.001  0.000  0.029  0.030
   14  0.001  0.000  0.030  0.031
   15  0.001  0.000  0.085  0.086
   16  0.000  0.000  0.031  0.031
   17  0.010  0.000  0.011  0.021
   18  0.004  0.000  0.056  0.060
   19  0.001  0.000  0.059  0.060
   20  0.002  0.000  0.034  0.036
   21  0.004  0.000  0.013  0.017
   22  0.000  0.000  0.042  0.042
   23  0.000  0.000  0.048  0.048
   24  0.000  0.000  0.026  0.026
   25  0.002  0.000  0.044  0.047
   26  0.005  0.000  0.022  0.028
   27  0.000  0.000  0.015  0.015
   28  0.000  0.000  0.014  0.014
   29  0.001  0.000  0.006  0.007
   30  0.002  0.000  0.005  0.007
   31  0.001  0.000  0.007  0.009
   32  0.002  0.000  0.005  0.008
   33  0.000  0.000  0.008  0.009
   34  0.000  0.000  0.007  0.008
   35  0.000  0.000  0.010  0.010
   36  0.000  0.000  0.002  0.002
   37  0.000  0.000  0.000  0.000
tot    0.054  0.007  0.784  0.845
 
band    15 # energy   -5.01718989 # occ.  2.00000000
 
ion      s      p      d    tot
    1  0.000  0.001  0.007  0.007
    2  0.001  0.000  0.009  0.010
    3  0.003  0.001  0.005  0.009
    4  0.002  0.001  0.008  0.011
    5  0.000  0.000  0.015  0.015
    6  0.003  0.001  0.005  0.009
    7  0.001  0.001  0.010  0.011
    8  0.000  0.000  0.010  0.011
    9  0.000  0.000  0.011  0.011
   10  0.004  0.000  0.058  0.062
   11  0.002  0.000  0.060  0.062
   12  0.011  0.000  0.009  0.020
   13  0.012  0.000  0.026  0.038
   14  0.005  0.000  0.049  0.055
   15  0.000  0.000  0.018  0.018
   16  0.001  0.000  0.080  0.082
   17  0.000  0.000  0.046  0.047
   18  0.000  0.000  0.027  0.027
   19  0.000  0.000  0.029  0.029
   20  0.000  0.000  0.030  0.031
   21  0.000  0.000  0.035  0.036
   22  0.006  0.000  0.010  0.017
   23  0.000  0.000  0.028  0.028
   24  0.002  0.000  0.038  0.040
   25  0.001  0.000  0.026  0.027
   26  0.003  0.000  0.021  0.023
   27  0.001  0.000  0.050  0.051
   28  0.000  0.000  0.004  0.004
   29  0.001  0.000  0.003  0.005
   30  0.000  0.000  0.006  0.006
   31  0.001  0.000  0.006  0.007
   32  0.000  0.000  0.007  0.007
   33  0.002  0.000  0.004  0.006
   34  0.002  0.000  0.002  0.005
   35  0.000  0.000  0.006  0.006
   36  0.000  0.000  0.004  0.004
   37  0.000  0.000  0.000  0.000
tot    0.066  0.008  0.765  0.839
 
band    16 # energy   -5.01718564 # occ.  2.00000000
 
ion      s      p      d    tot
    1  0.000  0.001  0.007  0.007
    2  0.002  0.001  0.007  0.010
    3  0.000  0.000  0.011  0.011
    4  0.002  0.000  0.008  0.010
    5  0.000  0.000  0.015  0.015
    6  0.000  0.000  0.011  0.011
    7  0.003  0.000  0.006  0.009
    8  0.003  0.001  0.006  0.010
    9  0.000  0.000  0.011  0.011
   10  0.007  0.000  0.040  0.047
   11  0.011  0.000  0.030  0.041
   12  0.000  0.000  0.089  0.090
   13  0.000  0.000  0.064  0.065
   14  0.008  0.000  0.041  0.049
   15  0.000  0.000  0.043  0.043
   16  0.010  0.000  0.018  0.028
   17  0.000  0.000  0.014  0.015
   18  0.000  0.000  0.034  0.034
   19  0.002  0.000  0.022  0.024
   20  0.000  0.000  0.032  0.033
   21  0.000  0.000  0.027  0.027
   22  0.000  0.000  0.055  0.055
   23  0.000  0.000  0.035  0.035
   24  0.004  0.000  0.028  0.032
   25  0.002  0.000  0.024  0.026
   26  0.000  0.000  0.030  0.030
   27  0.005  0.000  0.015  0.021
   28  0.000  0.000  0.004  0.004
   29  0.001  0.000  0.006  0.007
   30  0.002  0.000  0.003  0.006
   31  0.001  0.000  0.004  0.005
   32  0.002  0.000  0.003  0.005
   33  0.000  0.000  0.005  0.006
   34  0.000  0.000  0.007  0.007
   35  0.000  0.000  0.006  0.006
   36  0.000  0.000  0.004  0.004
   37  0.000  0.000  0.000  0.000
tot    0.066  0.008  0.765  0.839
 
band    17 # energy   -5.01047712 # occ.  2.00000000
 
ion      s      p      d    tot
    1  0.011  0.000  0.003  0.014
    2  0.003  0.000  0.013  0.016
    3  0.003  0.000  0.013  0.016
    4  0.003  0.000  0.013  0.016
    5  0.003  0.000  0.025  0.027
    6  0.003  0.000  0.013  0.016
    7  0.003  0.000  0.013  0.016
    8  0.003  0.000  0.013  0.016
    9  0.000  0.000  0.006  0.006
   10  0.001  0.000  0.010  0.011
   11  0.003  0.000  0.037  0.041
   12  0.001  0.000  0.010  0.011
   13  0.003  0.000  0.037  0.041
   14  0.003  0.000  0.037  0.041
   15  0.005  0.000  0.014  0.019
   16  0.001  0.000  0.010  0.011
   17  0.005  0.000  0.014  0.019
   18  0.005  0.000  0.014  0.019
   19  0.002  0.000  0.024  0.026
   20  0.000  0.001  0.019  0.020
   21  0.000  0.001  0.019  0.020
   22  0.001  0.001  0.013  0.015
   23  0.000  0.001  0.019  0.020
   24  0.001  0.001  0.013  0.015
   25  0.002  0.000  0.024  0.026
   26  0.002  0.000  0.024  0.026
   27  0.001  0.001  0.013  0.015
   28  0.007  0.000  0.035  0.041
   29  0.009  0.000  0.019  0.029
   30  0.009  0.000  0.019  0.029
   31  0.009  0.000  0.019  0.029
   32  0.009  0.000  0.019  0.029
   33  0.009  0.000  0.019  0.029
   34  0.009  0.000  0.019  0.029
   35  0.006  0.000  0.013  0.019
   36  0.015  0.001  0.011  0.027
   37  0.000  0.000  0.000  0.000
tot    0.152  0.009  0.636  0.797
 
band    18 # energy   -4.88164561 # occ.  2.00000000
 
ion      s      p      d    tot
    1  0.001  0.000  0.000  0.001
    2  0.000  0.000  0.006  0.006
    3  0.000  0.000  0.006  0.006
    4  0.000  0.000  0.006  0.006
    5  0.000  0.000  0.007  0.007
    6  0.000  0.000  0.006  0.006
    7  0.000  0.000  0.006  0.006
    8  0.000  0.000  0.006  0.006
    9  0.001  0.001  0.009  0.011
   10  0.000  0.000  0.010  0.010
   11  0.001  0.000  0.054  0.055
   12  0.000  0.000  0.010  0.010
   13  0.001  0.000  0.054  0.055
   14  0.001  0.000  0.053  0.055
   15  0.000  0.001  0.049  0.050
   16  0.000  0.000  0.010  0.010
   17  0.000  0.001  0.049  0.050
   18  0.000  0.001  0.049  0.050
   19  0.000  0.000  0.017  0.018
   20  0.001  0.001  0.060  0.062
   21  0.001  0.001  0.060  0.062
   22  0.003  0.000  0.032  0.035
   23  0.001  0.001  0.060  0.062
   24  0.003  0.000  0.032  0.035
   25  0.000  0.000  0.017  0.018
   26  0.000  0.000  0.017  0.018
   27  0.003  0.000  0.032  0.035
   28  0.004  0.001  0.000  0.005
   29  0.000  0.001  0.013  0.013
   30  0.000  0.001  0.013  0.013
   31  0.000  0.001  0.013  0.013
   32  0.000  0.001  0.013  0.013
   33  0.000  0.001  0.013  0.013
   34  0.000  0.001  0.013  0.013
   35  0.001  0.000  0.004  0.006
   36  0.002  0.000  0.016  0.018
   37  0.001  0.009  0.000  0.010
tot    0.028  0.023  0.813  0.864
 
band    19 # energy   -4.86389873 # occ.  2.00000000
 
ion      s      p      d    tot
    1  0.000  0.000  0.006  0.006
    2  0.000  0.000  0.009  0.010
    3  0.000  0.000  0.006  0.007
    4  0.000  0.000  0.009  0.010
    5  0.000  0.000  0.004  0.004
    6  0.002  0.001  0.005  0.008
    7  0.000  0.000  0.006  0.007
    8  0.002  0.001  0.005  0.008
    9  0.000  0.001  0.017  0.018
   10  0.001  0.001  0.035  0.037
   11  0.000  0.000  0.047  0.047
   12  0.000  0.000  0.008  0.009
   13  0.000  0.000  0.048  0.048
   14  0.000  0.001  0.023  0.024
   15  0.001  0.000  0.064  0.065
   16  0.000  0.000  0.010  0.010
   17  0.001  0.000  0.065  0.066
   18  0.002  0.000  0.044  0.046
   19  0.000  0.000  0.016  0.016
   20  0.003  0.001  0.046  0.050
   21  0.001  0.000  0.035  0.036
   22  0.000  0.000  0.072  0.072
   23  0.001  0.000  0.036  0.036
   24  0.002  0.000  0.033  0.035
   25  0.000  0.001  0.023  0.024
   26  0.000  0.000  0.015  0.016
   27  0.000  0.000  0.070  0.071
   28  0.000  0.000  0.001  0.001
   29  0.000  0.000  0.008  0.008
   30  0.001  0.001  0.008  0.010
   31  0.000  0.000  0.008  0.009
   32  0.001  0.001  0.005  0.007
   33  0.001  0.001  0.008  0.010
   34  0.001  0.001  0.005  0.007
   35  0.000  0.001  0.012  0.013
   36  0.000  0.001  0.011  0.012
   37  0.000  0.002  0.000  0.002
tot    0.023  0.016  0.827  0.866
 
band    20 # energy   -4.86386315 # occ.  2.00000000
 
ion      s      p      d    tot
    1  0.000  0.000  0.006  0.006
    2  0.001  0.000  0.005  0.006
    3  0.001  0.001  0.008  0.010
    4  0.001  0.000  0.004  0.006
    5  0.000  0.000  0.004  0.004
    6  0.000  0.000  0.009  0.009
    7  0.001  0.001  0.008  0.010
    8  0.000  0.000  0.009  0.009
    9  0.000  0.001  0.017  0.018
   10  0.000  0.000  0.000  0.001
   11  0.000  0.000  0.032  0.033
   12  0.001  0.001  0.027  0.029
   13  0.000  0.001  0.031  0.032
   14  0.000  0.000  0.056  0.056
   15  0.002  0.000  0.051  0.053
   16  0.001  0.001  0.026  0.028
   17  0.002  0.000  0.051  0.052
   18  0.000  0.000  0.072  0.072
   19  0.000  0.001  0.020  0.021
   20  0.000  0.000  0.032  0.032
   21  0.002  0.000  0.043  0.045
   22  0.001  0.000  0.045  0.047
   23  0.002  0.000  0.042  0.045
   24  0.000  0.000  0.084  0.084
   25  0.000  0.000  0.013  0.013
   26  0.000  0.001  0.021  0.022
   27  0.001  0.000  0.047  0.048
   28  0.000  0.000  0.001  0.001
   29  0.002  0.001  0.006  0.009
   30  0.000  0.000  0.007  0.007
   31  0.002  0.001  0.006  0.008
   32  0.000  0.000  0.009  0.010
   33  0.000  0.000  0.007  0.007
   34  0.000  0.000  0.009  0.010
   35  0.000  0.001  0.012  0.013
   36  0.000  0.001  0.011  0.012
   37  0.000  0.002  0.000  0.002
tot    0.023  0.016  0.827  0.866
 
band    21 # energy   -4.85631370 # occ.  2.00000000
 
ion      s      p      d    tot
    1  0.000  0.000  0.009  0.010
    2  0.000  0.000  0.009  0.010
    3  0.000  0.000  0.009  0.010
    4  0.000  0.000  0.009  0.010
    5  0.003  0.001  0.002  0.006
    6  0.000  0.000  0.009  0.010
    7  0.000  0.000  0.009  0.010
    8  0.000  0.000  0.009  0.010
    9  0.001  0.000  0.003  0.004
   10  0.001  0.001  0.056  0.058
   11  0.000  0.000  0.031  0.031
   12  0.001  0.001  0.056  0.058
   13  0.000  0.000  0.031  0.031
   14  0.000  0.000  0.030  0.030
   15  0.001  0.000  0.026  0.027
   16  0.001  0.001  0.056  0.058
   17  0.001  0.000  0.026  0.027
   18  0.001  0.000  0.026  0.027
   19  0.002  0.001  0.049  0.052
   20  0.001  0.000  0.017  0.018
   21  0.001  0.000  0.017  0.018
   22  0.000  0.001  0.047  0.047
   23  0.001  0.000  0.017  0.018
   24  0.000  0.001  0.046  0.047
   25  0.002  0.001  0.050  0.052
   26  0.002  0.001  0.049  0.051
   27  0.000  0.001  0.047  0.047
   28  0.000  0.000  0.008  0.008
   29  0.000  0.000  0.010  0.010
   30  0.000  0.000  0.010  0.010
   31  0.000  0.000  0.010  0.010
   32  0.000  0.000  0.010  0.010
   33  0.000  0.000  0.010  0.010
   34  0.000  0.000  0.010  0.010
   35  0.004  0.001  0.005  0.010
   36  0.003  0.001  0.001  0.004