PROCAR new format
# of k-points:   10         # of bands:  252         # of ions:   37

 k-point     1 :    0.00000000 0.00000000 0.00000000     weight = 0.01562500

band     1 # energy  -12.16164591 # occ.  2.00000000
 
ion      s      p      d    tot
    1  0.000  0.000  0.000  0.000
    2  0.000  0.000  0.000  0.000
    3  0.000  0.000  0.000  0.000
    4  0.000  0.000  0.000  0.000
    5  0.000  0.000  0.000  0.000
    6  0.000  0.000  0.000  0.000
    7  0.000  0.000  0.000  0.000
    8  0.000  0.000  0.000  0.000
    9  0.000  0.000  0.000  0.000
   10  0.000  0.000  0.000  0.000
   11  0.000  0.000  0.000  0.000
   12  0.000  0.000  0.000  0.000
   13  0.000  0.000  0.000  0.000
   14  0.000  0.000  0.000  0.000
   15  0.000  0.000  0.000  0.000
   16  0.000  0.000  0.000  0.000
   17  0.000  0.000  0.000  0.000
   18  0.000  0.000  0.000  0.000
   19  0.000  0.000  0.000  0.000
   20  0.001  0.000  0.000  0.001
   21  0.001  0.000  0.000  0.001
   22  0.000  0.000  0.000  0.000
   23  0.001  0.000  0.000  0.001
   24  0.000  0.000  0.000  0.000
   25  0.000  0.000  0.000  0.000
   26  0.000  0.000  0.000  0.000
   27  0.000  0.000  0.000  0.000
   28  0.000  0.000  0.000  0.000
   29  0.000  0.000  0.000  0.000
   30  0.000  0.000  0.000  0.000
   31  0.000  0.000  0.000  0.000
   32  0.000  0.000  0.000  0.000
   33  0.000  0.000  0.000  0.000
   34  0.000  0.000  0.000  0.000
   35  0.000  0.000  0.000  0.000
   36  0.089  0.071  0.166  0.326
   37  0.622  0.013  0.000  0.635
tot    0.715  0.086  0.167  0.969
 
band     2 # energy   -8.92052245 # occ.  2.00000000
 
ion      s      p      d    tot
    1  0.006  0.001  0.000  0.007
    2  0.006  0.001  0.000  0.007
    3  0.006  0.001  0.000  0.007
    4  0.006  0.001  0.000  0.007
    5  0.006  0.001  0.000  0.007
    6  0.006  0.001  0.000  0.007
    7  0.006  0.001  0.000  0.007
    8  0.006  0.001  0.000  0.007
    9  0.006  0.001  0.000  0.007
   10  0.024  0.000  0.000  0.024
   11  0.024  0.000  0.000  0.024
   12  0.024  0.000  0.000  0.024
   13  0.024  0.000  0.000  0.024
   14  0.024  0.000  0.000  0.024
   15  0.024  0.000  0.000  0.024
   16  0.024  0.000  0.000  0.024
   17  0.024  0.000  0.000  0.024
   18  0.024  0.000  0.000  0.024
   19  0.025  0.000  0.000  0.025
   20  0.025  0.000  0.000  0.025
   21  0.025  0.000  0.000  0.025
   22  0.024  0.000  0.000  0.024
   23  0.025  0.000  0.000  0.025
   24  0.024  0.000  0.000  0.024
   25  0.025  0.000  0.000  0.025
   26  0.025  0.000  0.000  0.025
   27  0.024  0.000  0.000  0.024
   28  0.007  0.001  0.000  0.008
   29  0.007  0.001  0.000  0.008
   30  0.007  0.001  0.000  0.008
   31  0.007  0.001  0.000  0.008
   32  0.007  0.001  0.000  0.008
   33  0.007  0.001  0.000  0.008
   34  0.007  0.001  0.000  0.008
   35  0.007  0.001  0.000  0.008
   36  0.009  0.005  0.001  0.015
   37  0.004  0.000  0.000  0.004
tot    0.565  0.020  0.002  0.587
 
band     3 # energy   -7.65465080 # occ.  2.00000000
 
ion      s      p      d    tot
    1  0.018  0.001  0.000  0.019
    2  0.017  0.001  0.000  0.019
    3  0.017  0.001  0.000  0.019
    4  0.017  0.001  0.000  0.019
    5  0.018  0.001  0.000  0.019
    6  0.017  0.001  0.000  0.019
    7  0.017  0.001  0.000  0.019
    8  0.017  0.001  0.000  0.019
    9  0.017  0.001  0.000  0.019
   10  0.011  0.002  0.001  0.013
   11  0.011  0.002  0.001  0.013
   12  0.011  0.002  0.001  0.013
   13  0.011  0.002  0.001  0.013
   14  0.011  0.002  0.001  0.013
   15  0.010  0.002  0.001  0.013
   16  0.011  0.002  0.001  0.013
   17  0.010  0.002  0.001  0.013
   18  0.010  0.002  0.001  0.013
   19  0.009  0.002  0.000  0.012
   20  0.008  0.002  0.000  0.011
   21  0.008  0.002  0.000  0.011
   22  0.009  0.002  0.000  0.012
   23  0.008  0.002  0.000  0.011
   24  0.009  0.002  0.000  0.012
   25  0.009  0.002  0.000  0.012
   26  0.009  0.002  0.000  0.012
   27  0.009  0.002  0.000  0.012
   28  0.019  0.001  0.001  0.021
   29  0.019  0.001  0.001  0.021
   30  0.019  0.001  0.001  0.021
   31  0.019  0.001  0.001  0.021
   32  0.019  0.001  0.001  0.021
   33  0.019  0.001  0.001  0.021
   34  0.019  0.001  0.001  0.021
   35  0.019  0.001  0.001  0.020
   36  0.024  0.004  0.007  0.035
   37  0.004  0.000  0.000  0.004
tot    0.514  0.057  0.026  0.597
 
band     4 # energy   -6.08761664 # occ.  2.00000000
 
ion      s      p      d    tot
    1  0.015  0.000  0.005  0.020
    2  0.015  0.000  0.005  0.020
    3  0.015  0.000  0.005  0.020
    4  0.015  0.000  0.005  0.020
    5  0.009  0.000  0.006  0.015
    6  0.015  0.000  0.005  0.020
    7  0.015  0.000  0.005  0.020
    8  0.015  0.000  0.005  0.020
    9  0.022  0.000  0.004  0.026
   10  0.003  0.004  0.002  0.008
   11  0.007  0.005  0.001  0.013
   12  0.003  0.004  0.002  0.008
   13  0.007  0.005  0.001  0.012
   14  0.007  0.005  0.001  0.013
   15  0.000  0.003  0.002  0.005
   16  0.003  0.004  0.002  0.008
   17  0.000  0.003  0.002  0.005
   18  0.000  0.003  0.002  0.005
   19  0.003  0.003  0.005  0.011
   20  0.017  0.004  0.005  0.025
   21  0.017  0.004  0.005  0.025
   22  0.001  0.003  0.004  0.009
   23  0.017  0.004  0.005  0.025
   24  0.001  0.003  0.004  0.009
   25  0.003  0.003  0.005  0.011
   26  0.003  0.003  0.005  0.011
   27  0.001  0.003  0.004  0.009
   28  0.019  0.000  0.006  0.025
   29  0.018  0.000  0.009  0.026
   30  0.018  0.000  0.009  0.026
   31  0.018  0.000  0.009  0.026
   32  0.018  0.000  0.009  0.026
   33  0.018  0.000  0.009  0.027
   34  0.018  0.000  0.009  0.026
   35  0.024  0.000  0.006  0.030
   36  0.009  0.001  0.027  0.037
   37  0.000  0.001  0.000  0.001
tot    0.388  0.065  0.191  0.645
 
band     5 # energy   -5.96654218 # occ.  2.00000000
 
ion      s      p      d    tot
    1  0.000  0.002  0.005  0.007
    2  0.008  0.002  0.002  0.012
    3  0.003  0.001  0.002  0.006
    4  0.008  0.002  0.002  0.013
    5  0.000  0.002  0.003  0.005
    6  0.004  0.001  0.002  0.007
    7  0.001  0.001  0.002  0.003
    8  0.001  0.001  0.002  0.004
    9  0.000  0.000  0.002  0.002
   10  0.054  0.004  0.004  0.062
   11  0.002  0.011  0.003  0.017
   12  0.024  0.003  0.009  0.037
   13  0.010  0.007  0.004  0.021
   14  0.021  0.001  0.006  0.028
   15  0.001  0.004  0.008  0.013
   16  0.006  0.002  0.013  0.021
   17  0.003  0.004  0.006  0.013
   18  0.007  0.003  0.003  0.013
   19  0.003  0.012  0.003  0.018
   20  0.064  0.004  0.006  0.073
   21  0.029  0.003  0.013  0.045
   22  0.002  0.005  0.006  0.013
   23  0.007  0.002  0.018  0.027
   24  0.004  0.003  0.004  0.011
   25  0.031  0.001  0.007  0.038
   26  0.014  0.008  0.005  0.026
   27  0.000  0.006  0.008  0.014
   28  0.000  0.003  0.004  0.007
   29  0.012  0.003  0.004  0.018
   30  0.008  0.002  0.003  0.013
   31  0.010  0.003  0.004  0.017
   32  0.003  0.002  0.004  0.008
   33  0.003  0.001  0.003  0.007
   34  0.000  0.001  0.003  0.004
   35  0.000  0.000  0.003  0.003
   36  0.000  0.006  0.016  0.022
   37  0.000  0.000  0.000  0.000
tot    0.343  0.115  0.192  0.650
 
band     6 # energy   -5.96645436 # occ.  2.00000000
 
ion      s      p      d    tot
    1  0.000  0.002  0.005  0.007
    2  0.000  0.001  0.002  0.003
    3  0.005  0.002  0.002  0.009
    4  0.000  0.001  0.002  0.003
    5  0.000  0.002  0.003  0.005
    6  0.004  0.001  0.002  0.008
    7  0.008  0.002  0.002  0.012
    8  0.007  0.002  0.002  0.011
    9  0.000  0.000  0.002  0.002
   10  0.002  0.002  0.013  0.017
   11  0.020  0.002  0.006  0.027
   12  0.032  0.003  0.008  0.043
   13  0.013  0.006  0.005  0.023
   14  0.001  0.012  0.003  0.016
   15  0.007  0.003  0.003  0.013
   16  0.050  0.004  0.005  0.059
   17  0.004  0.003  0.005  0.013
   18  0.000  0.004  0.009  0.013
   19  0.029  0.002  0.007  0.037
   20  0.002  0.001  0.019  0.023
   21  0.037  0.003  0.012  0.052
   22  0.002  0.004  0.006  0.012
   23  0.059  0.004  0.007  0.070
   24  0.000  0.006  0.008  0.015
   25  0.001  0.013  0.003  0.017
   26  0.018  0.006  0.005  0.029
   27  0.004  0.003  0.004  0.011
   28  0.000  0.003  0.004  0.007
   29  0.000  0.001  0.003  0.004
   30  0.004  0.002  0.004  0.010
   31  0.002  0.001  0.003  0.006
   32  0.009  0.002  0.003  0.015
   33  0.009  0.003  0.004  0.015
   34  0.012  0.003  0.003  0.018
   35  0.000  0.000  0.003  0.003
   36  0.000  0.006  0.016  0.022
   37  0.000  0.000  0.000  0.000
tot    0.343  0.115  0.192  0.650
 
band     7 # energy   -5.92184502 # occ.  2.00000000
 
ion      s      p      d    tot
    1  0.000  0.001  0.002  0.003
    2  0.009  0.002  0.002  0.013
    3  0.002  0.001  0.002  0.005
    4  0.009  0.002  0.002  0.013
    5  0.000  0.001  0.004  0.005
    6  0.002  0.001  0.002  0.005
    7  0.002  0.001  0.002  0.005
    8  0.003  0.001  0.002  0.006
    9  0.000  0.003  0.005  0.008
   10  0.000  0.010  0.003  0.014
   11  0.026  0.003  0.006  0.035
   12  0.001  0.003  0.005  0.008
   13  0.028  0.003  0.005  0.036
   14  0.000  0.000  0.015  0.015
   15  0.035  0.004  0.006  0.045
   16  0.001  0.003  0.004  0.009
   17  0.038  0.003  0.006  0.047
   18  0.000  0.008  0.008  0.016
   19  0.024  0.003  0.006  0.033
   20  0.000  0.014  0.001  0.015
   21  0.003  0.004  0.005  0.012
   22  0.046  0.004  0.006  0.056
   23  0.003  0.004  0.005  0.013
   24  0.000  0.007  0.010  0.017
   25  0.000  0.001  0.016  0.017
   26  0.025  0.004  0.005  0.034
   27  0.044  0.004  0.006  0.054
   28  0.000  0.001  0.005  0.006
   29  0.013  0.003  0.003  0.019
   30  0.004  0.002  0.004  0.009
   31  0.013  0.003  0.003  0.020
   32  0.003  0.001  0.003  0.007
   33  0.004  0.002  0.004  0.010
   34  0.003  0.001  0.003  0.007
   35  0.000  0.004  0.006  0.010
   36  0.000  0.002  0.008  0.011
   37  0.000  0.000  0.000  0.000
tot    0.342  0.116  0.181  0.639
 
band     8 # energy   -5.92177256 # occ.  2.00000000
 
ion      s      p      d    tot
    1  0.000  0.001  0.002  0.003
    2  0.000  0.001  0.002  0.003
    3  0.007  0.002  0.002  0.011
    4  0.000  0.001  0.002  0.003
    5  0.000  0.001  0.004  0.005
    6  0.007  0.002  0.002  0.011
    7  0.007  0.002  0.002  0.011
    8  0.006  0.002  0.002  0.010
    9  0.000  0.003  0.005  0.008
   10  0.001  0.001  0.005  0.007
   11  0.010  0.001  0.011  0.022
   12  0.000  0.008  0.004  0.012
   13  0.008  0.001  0.012  0.021
   14  0.036  0.004  0.002  0.042
   15  0.013  0.007  0.007  0.027
   16  0.000  0.008  0.004  0.012
   17  0.011  0.007  0.007  0.025
   18  0.049  0.002  0.005  0.056
   19  0.009  0.002  0.012  0.023
   20  0.004  0.001  0.007  0.012
   21  0.001  0.011  0.002  0.014
   22  0.014  0.006  0.009  0.029
   23  0.001  0.010  0.003  0.014
   24  0.060  0.003  0.005  0.067
   25  0.033  0.005  0.002  0.039
   26  0.008  0.002  0.013  0.022
   27  0.016  0.006  0.008  0.031
   28  0.000  0.001  0.005  0.007
   29  0.000  0.001  0.004  0.005
   30  0.010  0.002  0.003  0.015
   31  0.000  0.001  0.004  0.005
   32  0.011  0.003  0.004  0.017
   33  0.009  0.002  0.003  0.014
   34  0.010  0.003  0.004  0.017
   35  0.000  0.004  0.006  0.010
   36  0.000  0.002  0.008  0.010
   37  0.000  0.000  0.000  0.000
tot    0.342  0.116  0.181  0.639
 
band     9 # energy   -5.91458234 # occ.  2.00000000
 
ion      s      p      d    tot
    1  0.017  0.003  0.001  0.022
    2  0.000  0.002  0.004  0.006
    3  0.000  0.002  0.004  0.006
    4  0.000  0.002  0.004  0.006
    5  0.010  0.001  0.000  0.012
    6  0.000  0.002  0.004  0.006
    7  0.000  0.002  0.004  0.006
    8  0.000  0.002  0.004  0.006
    9  0.003  0.000  0.000  0.003
   10  0.030  0.009  0.002  0.041
   11  0.015  0.001  0.011  0.027
   12  0.030  0.009  0.002  0.041
   13  0.016  0.001  0.011  0.027
   14  0.016  0.001  0.011  0.027
   15  0.001  0.004  0.007  0.013
   16  0.030  0.009  0.002  0.041
   17  0.001  0.004  0.007  0.013
   18  0.001  0.004  0.007  0.013
   19  0.032  0.008  0.003  0.043
   20  0.004  0.006  0.007  0.018
   21  0.004  0.006  0.007  0.018
   22  0.011  0.000  0.012  0.022
   23  0.004  0.006  0.007  0.018
   24  0.011  0.000  0.012  0.023
   25  0.032  0.008  0.003  0.043
   26  0.032  0.008  0.003  0.043
   27  0.011  0.000  0.012  0.022
   28  0.019  0.003  0.001  0.023
   29  0.000  0.002  0.005  0.006
   30  0.000  0.002  0.005  0.006
   31  0.000  0.002  0.005  0.006
   32  0.000  0.002  0.005  0.007
   33  0.000  0.002  0.005  0.007
   34  0.000  0.002  0.005  0.007
   35  0.007  0.001  0.000  0.008
   36  0.007  0.002  0.000  0.010
   37  0.001  0.000  0.000  0.001
tot    0.346  0.116  0.183  0.645
 
band    10 # energy   -5.88922496 # occ.  2.00000000
 
ion      s      p      d    tot
    1  0.003  0.000  0.000  0.003
    2  0.001  0.002  0.004  0.007
    3  0.001  0.002  0.004  0.007
    4  0.001  0.002  0.004  0.007
    5  0.020  0.002  0.000  0.022
    6  0.001  0.002  0.004  0.007
    7  0.001  0.002  0.004  0.007
    8  0.001  0.002  0.004  0.007
    9  0.009  0.003  0.003  0.016
   10  0.001  0.001  0.012  0.013
   11  0.010  0.008  0.003  0.022
   12  0.001  0.001  0.012  0.013
   13  0.010  0.008  0.003  0.022
   14  0.010  0.008  0.003  0.022
   15  0.035  0.005  0.006  0.045
   16  0.001  0.001  0.012  0.013
   17  0.035  0.005  0.006  0.045
   18  0.035  0.005  0.006  0.045
   19  0.001  0.002  0.009  0.013
   20  0.019  0.002  0.010  0.032
   21  0.019  0.003  0.010  0.032
   22  0.024  0.009  0.001  0.034
   23  0.019  0.002  0.010  0.032
   24  0.024  0.009  0.001  0.034
   25  0.001  0.002  0.009  0.013
   26  0.001  0.002  0.009  0.013
   27  0.024  0.009  0.001  0.034
   28  0.002  0.000  0.001  0.003
   29  0.001  0.001  0.005  0.008
   30  0.001  0.001  0.005  0.008
   31  0.001  0.001  0.005  0.008
   32  0.001  0.001  0.005  0.008
   33  0.001  0.001  0.005  0.008
   34  0.001  0.001  0.005  0.008
   35  0.007  0.002  0.002  0.011
   36  0.027  0.007  0.000  0.034
   37  0.003  0.001  0.000  0.004
tot    0.355  0.117  0.187  0.659
 
band    11 # energy   -5.22965526 # occ.  2.00000000
 
ion      s      p      d    tot
    1  0.000  0.003  0.009  0.012
    2  0.019  0.004  0.005  0.027
    3  0.000  0.001  0.004  0.006
    4  0.016  0.003  0.005  0.024
    5  0.000  0.000  0.009  0.010
    6  0.006  0.002  0.005  0.013
    7  0.003  0.002  0.004  0.010
    8  0.012  0.003  0.005  0.020
    9  0.000  0.005  0.008  0.013
   10  0.000  0.005  0.013  0.018
   11  0.005  0.002  0.010  0.017
   12  0.005  0.001  0.007  0.014
   13  0.007  0.002  0.008  0.017
   14  0.000  0.002  0.015  0.017
   15  0.017  0.003  0.010  0.030
   16  0.004  0.002  0.009  0.015
   17  0.024  0.004  0.006  0.034
   18  0.001  0.001  0.020  0.021
   19  0.005  0.004  0.010  0.018
   20  0.000  0.003  0.024  0.026
   21  0.000  0.001  0.012  0.013
   22  0.009  0.004  0.006  0.019
   23  0.000  0.001  0.016  0.017
   24  0.000  0.001  0.028  0.029
   25  0.000  0.000  0.010  0.010
   26  0.007  0.005  0.009  0.022
   27  0.006  0.003  0.013  0.022
   28  0.000  0.003  0.009  0.012
   29  0.026  0.003  0.010  0.039
   30  0.000  0.002  0.010  0.012
   31  0.021  0.003  0.010  0.034
   32  0.011  0.002  0.010  0.023
   33  0.003  0.002  0.010  0.016
   34  0.020  0.002  0.010  0.032
   35  0.000  0.006  0.008  0.014
   36  0.000  0.001  0.031  0.032
   37  0.000  0.000  0.000  0.000
tot    0.230  0.091  0.388  0.710
 
band    12 # energy   -5.22961080 # occ.  2.00000000
 
ion      s      p      d    tot
    1  0.000  0.003  0.009  0.012
    2  0.000  0.001  0.004  0.006
    3  0.019  0.004  0.005  0.027
    4  0.003  0.002  0.005  0.009
    5  0.000  0.000  0.009  0.010
    6  0.013  0.003  0.005  0.020
    7  0.016  0.003  0.005  0.024
    8  0.007  0.002  0.004  0.013
    9  0.000  0.005  0.008  0.013
   10  0.006  0.000  0.007  0.013
   11  0.003  0.002  0.012  0.017
   12  0.001  0.004  0.013  0.018
   13  0.001  0.002  0.014  0.017
   14  0.008  0.002  0.007  0.017
   15  0.011  0.002  0.014  0.027
   16  0.002  0.003  0.011  0.016
   17  0.004  0.001  0.018  0.023
   18  0.027  0.004  0.004  0.035
   19  0.003  0.002  0.010  0.015
   20  0.000  0.000  0.011  0.011
   21  0.000  0.002  0.022  0.025
   22  0.001  0.002  0.025  0.028
   23  0.000  0.002  0.019  0.021
   24  0.010  0.004  0.003  0.018
   25  0.008  0.006  0.009  0.023
   26  0.001  0.001  0.010  0.012
   27  0.004  0.002  0.018  0.025
   28  0.000  0.003  0.009  0.012
   29  0.001  0.002  0.010  0.013
   30  0.027  0.003  0.010  0.040
   31  0.006  0.002  0.010  0.018
   32  0.016  0.003  0.010  0.029
   33  0.024  0.003  0.010  0.037
   34  0.008  0.003  0.010  0.020
   35  0.000  0.006  0.008  0.014
   36  0.000  0.001  0.031  0.032
   37  0.000  0.000  0.000  0.000
tot    0.230  0.091  0.388  0.710
 
band    13 # energy   -5.22333258 # occ.  2.00000000
 
ion      s      p      d    tot
    1  0.006  0.000  0.010  0.017
    2  0.006  0.001  0.010  0.017
    3  0.006  0.001  0.010  0.017
    4  0.006  0.001  0.010  0.017
    5  0.001  0.001  0.010  0.013
    6  0.006  0.001  0.010  0.017
    7  0.006  0.001  0.010  0.017
    8  0.006  0.001  0.010  0.017
    9  0.016  0.000  0.008  0.024
   10  0.008  0.000  0.025  0.034
   11  0.012  0.000  0.022  0.034
   12  0.009  0.000  0.025  0.034
   13  0.012  0.000  0.022  0.034
   14  0.012  0.000  0.022  0.034
   15  0.003  0.000  0.022  0.025
   16  0.009  0.000  0.025  0.034
   17  0.003  0.000  0.022  0.025
   18  0.003  0.000  0.022  0.025
   19  0.004  0.000  0.018  0.022
   20  0.009  0.001  0.029  0.038
   21  0.009  0.001  0.029  0.038
   22  0.003  0.000  0.017  0.020
   23  0.009  0.001  0.029  0.038
   24  0.003  0.000  0.017  0.020
   25  0.004  0.000  0.018  0.022
   26  0.004  0.000  0.018  0.022
   27  0.003  0.000  0.017  0.020
   28  0.002  0.000  0.005  0.008
   29  0.003  0.000  0.007  0.011
   30  0.003  0.000  0.007  0.010
   31  0.003  0.000  0.007  0.011
   32  0.003  0.000  0.007  0.011
   33  0.003  0.000  0.007  0.010
   34  0.003  0.000  0.007  0.011
   35  0.006  0.000  0.005  0.012
   36  0.000  0.002  0.015  0.018
   37  0.000  0.001  0.000  0.001
tot    0.205  0.017  0.558  0.780
 
band    14 # energy   -5.18007648 # occ.  2.00000000
 
ion      s      p      d    tot
    1  0.000  0.004  0.009  0.013
    2  0.021  0.004  0.005  0.030
    3  0.002  0.002  0.005  0.009
    4  0.021  0.004  0.005  0.030
    5  0.000  0.006  0.010  0.016
    6  0.010  0.003  0.005  0.018
    7  0.002  0.002  0.005  0.009
    8  0.010  0.003  0.005  0.018
    9  0.000  0.000  0.012  0.012
   10  0.022  0.005  0.007  0.034
   11  0.005  0.003  0.020  0.027
   12  0.005  0.001  0.018  0.024
   13  0.005  0.003  0.020  0.027
   14  0.018  0.003  0.005  0.026
   15  0.000  0.003  0.014  0.017
   16  0.006  0.001  0.018  0.024
   17  0.000  0.003  0.014  0.017
   18  0.000  0.000  0.009  0.009
   19  0.001  0.002  0.020  0.023
   20  0.018  0.006  0.006  0.030
   21  0.005  0.002  0.025  0.031
   22  0.001  0.002  0.011  0.014
   23  0.005  0.002  0.025  0.031
   24  0.004  0.002  0.010  0.017
   25  0.004  0.001  0.005  0.010
   26  0.001  0.002  0.020  0.023
   27  0.001  0.002  0.011  0.014
   28  0.000  0.003  0.011  0.014
   29  0.017  0.004  0.007  0.028
   30  0.001  0.001  0.006  0.008
   31  0.017  0.004  0.007  0.028
   32  0.009  0.003  0.007  0.019
   33  0.001  0.001  0.006  0.009
   34  0.009  0.003  0.007  0.019
   35  0.000  0.000  0.011  0.011
   36  0.000  0.011  0.014  0.025
   37  0.000  0.000  0.000  0.000
tot    0.221  0.098  0.396  0.715
 
band    15 # energy   -5.17999965 # occ.  2.00000000
 
ion      s      p      d    tot
    1  0.000  0.004  0.009  0.013
    2  0.001  0.002  0.005  0.008
    3  0.020  0.004  0.006  0.029
    4  0.001  0.002  0.005  0.008
    5  0.000  0.006  0.010  0.016
    6  0.012  0.003  0.005  0.020
    7  0.020  0.004  0.006  0.029
    8  0.012  0.003  0.005  0.020
    9  0.000  0.000  0.012  0.012
   10  0.000  0.000  0.021  0.021
   11  0.014  0.003  0.010  0.027
   12  0.016  0.004  0.011  0.031
   13  0.014  0.003  0.010  0.027
   14  0.000  0.003  0.025  0.028
   15  0.000  0.001  0.010  0.012
   16  0.016  0.004  0.011  0.031
   17  0.000  0.001  0.010  0.012
   18  0.000  0.004  0.015  0.019
   19  0.003  0.001  0.010  0.014
   20  0.000  0.000  0.031  0.032
   21  0.014  0.005  0.012  0.031
   22  0.003  0.002  0.011  0.016
   23  0.014  0.005  0.012  0.031
   24  0.000  0.001  0.011  0.012
   25  0.000  0.002  0.025  0.028
   26  0.003  0.001  0.010  0.014
   27  0.003  0.002  0.011  0.016
   28  0.000  0.003  0.011  0.014
   29  0.001  0.001  0.006  0.009
   30  0.017  0.004  0.008  0.028
   31  0.001  0.001  0.006  0.009
   32  0.009  0.002  0.006  0.018
   33  0.017  0.004  0.008  0.028
   34  0.009  0.002  0.006  0.018
   35  0.000  0.000  0.011  0.011
   36  0.000  0.011  0.014  0.025
   37  0.000  0.000  0.000  0.000
tot    0.221  0.098  0.396  0.715
 
band    16 # energy   -5.16330866 # occ.  2.00000000
 
ion      s      p      d    tot
    1  0.036  0.003  0.000  0.039
    2  0.000  0.003  0.010  0.013
    3  0.000  0.003  0.010  0.013
    4  0.000  0.003  0.010  0.013
    5  0.000  0.000  0.001  0.001
    6  0.000  0.003  0.010  0.013
    7  0.000  0.003  0.010  0.013
    8  0.000  0.003  0.010  0.013
    9  0.026  0.003  0.001  0.030
   10  0.009  0.004  0.010  0.023
   11  0.002  0.000  0.015  0.017
   12  0.009  0.004  0.010  0.023
   13  0.002  0.000  0.015  0.017
   14  0.002  0.000  0.015  0.017
   15  0.007  0.003  0.015  0.025
   16  0.009  0.004  0.010  0.023
   17  0.007  0.003  0.015  0.025
   18  0.007  0.003  0.015  0.025
   19  0.005  0.004  0.018  0.026
   20  0.000  0.000  0.017  0.017
   21  0.000  0.000  0.017  0.017
   22  0.010  0.003  0.009  0.022
   23  0.000  0.000  0.017  0.017
   24  0.010  0.003  0.009  0.022
   25  0.005  0.004  0.018  0.026
   26  0.005  0.004  0.018  0.026
   27  0.010  0.003  0.009  0.022
   28  0.040  0.003  0.000  0.044
   29  0.000  0.003  0.013  0.016
   30  0.000  0.003  0.013  0.016
   31  0.000  0.003  0.013  0.016
   32  0.000  0.003  0.013  0.016
   33  0.000  0.003  0.013  0.016
   34  0.000  0.003  0.013  0.016
   35  0.026  0.003  0.001  0.029
   36  0.001  0.000  0.000  0.001
   37  0.000  0.000  0.000  0.000
tot    0.225  0.091  0.390  0.706
 
band    17 # energy   -5.10565190 # occ.  2.00000000
 
ion      s      p      d    tot
    1  0.007  0.001  0.000  0.009
    2  0.000  0.003  0.010  0.013
    3  0.000  0.003  0.010  0.013
    4  0.000  0.003  0.010  0.013
    5  0.045  0.004  0.000  0.049
    6  0.000  0.003  0.010  0.013
    7  0.000  0.003  0.010  0.013
    8  0.000  0.003  0.010  0.013
    9  0.008  0.002  0.001  0.011
   10  0.001  0.001  0.019  0.021
   11  0.006  0.004  0.015  0.026
   12  0.001  0.001  0.019  0.021
   13  0.006  0.004  0.015  0.026
   14  0.006  0.004  0.015  0.026
   15  0.007  0.001  0.010  0.019
   16  0.001  0.001  0.019  0.021
   17  0.007  0.001  0.010  0.019
   18  0.007  0.001  0.010  0.019
   19  0.007  0.001  0.014  0.022
   20  0.008  0.004  0.014  0.026
   21  0.008  0.004  0.014  0.026
   22  0.003  0.002  0.018  0.022
   23  0.008  0.004  0.014  0.026
   24  0.003  0.002  0.018  0.022
   25  0.007  0.001  0.014  0.022
   26  0.007  0.001  0.014  0.022
   27  0.003  0.002  0.018  0.022
   28  0.004  0.001  0.002  0.007
   29  0.000  0.003  0.014  0.017
   30  0.000  0.003  0.014  0.017
   31  0.000  0.003  0.014  0.017
   32  0.000  0.003  0.014  0.017
   33  0.000  0.003  0.014  0.017
   34  0.000  0.003  0.014  0.017
   35  0.009  0.002  0.001  0.012
   36  0.060  0.013  0.001  0.073
   37  0.004  0.002  0.000  0.006
tot    0.238  0.097  0.425  0.760
 
band    18 # energy   -4.58829226 # occ.  2.00000000
 
ion      s      p      d    tot
    1  0.000  0.001  0.026  0.027
    2  0.015  0.002  0.007  0.024
    3  0.007  0.001  0.007  0.015
    4  0.015  0.002  0.007  0.024
    5  0.000  0.001  0.013  0.014
    6  0.002  0.001  0.007  0.011
    7  0.006  0.001  0.007  0.014
    8  0.002  0.001  0.007  0.010
    9  0.000  0.003  0.004  0.007
   10  0.000  0.000  0.058  0.058
   11  0.000  0.003  0.016  0.019
   12  0.000  0.000  0.020  0.020
   13  0.000  0.003  0.015  0.018
   14  0.000  0.000  0.005  0.005
   15  0.000  0.005  0.014  0.019
   16  0.000  0.000  0.017  0.017
   17  0.000  0.005  0.015  0.020
   18  0.000  0.000  0.027  0.028
   19  0.005  0.003  0.013  0.021
   20  0.000  0.000  0.067  0.067
   21  0.000  0.000  0.030  0.030
   22  0.003  0.002  0.015  0.020
   23  0.000  0.000  0.026  0.027
   24  0.000  0.000  0.015  0.015
   25  0.000  0.000  0.020  0.020
   26  0.004  0.003  0.014  0.021
   27  0.003  0.002  0.015  0.020
   28  0.000  0.001  0.005  0.007
   29  0.008  0.000  0.023  0.031
   30  0.000  0.001  0.017  0.018
   31  0.009  0.000  0.023  0.032
   32  0.012  0.000  0.020  0.032
   33  0.000  0.001  0.017  0.018
   34  0.011  0.000  0.020  0.031
   35  0.000  0.001  0.011  0.012
   36  0.000  0.000  0.043  0.043
   37  0.000  0.000  0.000  0.000
tot    0.102  0.044  0.670  0.816
 
band    19 # energy   -4.58823987 # occ.  2.00000000
 
ion      s      p      d    tot
    1  0.000  0.001  0.026  0.027
    2  0.000  0.001  0.007  0.008
    3  0.009  0.001  0.008  0.018
    4  0.001  0.001  0.007  0.009
    5  0.000  0.001  0.013  0.014
    6  0.013  0.001  0.007  0.022
    7  0.010  0.001  0.008  0.019
    8  0.014  0.001  0.007  0.023
    9  0.000  0.003  0.004  0.007
   10  0.000  0.000  0.005  0.005
   11  0.000  0.001  0.008  0.009
   12  0.000  0.000  0.043  0.043
   13  0.000  0.001  0.009  0.010
   14  0.000  0.004  0.019  0.023
   15  0.000  0.001  0.024  0.025
   16  0.000  0.000  0.047  0.047
   17  0.000  0.002  0.023  0.025
   18  0.000  0.007  0.011  0.017
   19  0.001  0.001  0.018  0.020
   20  0.000  0.000  0.015  0.016
   21  0.000  0.000  0.052  0.052
   22  0.001  0.001  0.015  0.017
   23  0.000  0.000  0.055  0.056
   24  0.004  0.002  0.015  0.022
   25  0.006  0.004  0.011  0.021
   26  0.002  0.001  0.018  0.020
   27  0.001  0.001  0.015  0.016
   28  0.000  0.001  0.005  0.007
   29  0.005  0.001  0.017  0.023
   30  0.013  0.000  0.023  0.036
   31  0.005  0.001  0.017  0.022
   32  0.002  0.001  0.020  0.022
   33  0.013  0.000  0.023  0.036
   34  0.002  0.001  0.020  0.023
   35  0.000  0.001  0.011  0.012
   36  0.000  0.000  0.043  0.043
   37  0.000  0.000  0.000  0.000
tot    0.102  0.044  0.670  0.816
 
band    20 # energy   -4.50164407 # occ.  2.00000000
 
ion      s      p      d    tot
    1  0.000  0.000  0.000  0.000
    2  0.000  0.001  0.014  0.015
    3  0.000  0.001  0.014  0.015
    4  0.000  0.001  0.014  0.015
    5  0.019  0.001  0.001  0.021
    6  0.000  0.001  0.014  0.015
    7  0.000  0.001  0.014  0.015
    8  0.000  0.001  0.014  0.015
    9  0.018  0.001  0.001  0.019
   10  0.000  0.000  0.003  0.003
   11  0.000  0.001  0.028  0.030
   12  0.000  0.000  0.003  0.003
   13  0.000  0.001  0.028  0.030
   14  0.000  0.001  0.028  0.029
   15  0.000  0.003  0.024  0.027
   16  0.000  0.000  0.003  0.003
   17  0.000  0.003  0.024  0.027
   18  0.000  0.003  0.024  0.027
   19  0.000  0.000  0.013  0.013
   20  0.001  0.001  0.025  0.026
   21  0.001  0.001  0.025  0.026
   22  0.001  0.003  0.036  0.040
   23  0.001  0.001  0.025  0.026
   24  0.001  0.003  0.036  0.040
   25  0.000  0.000  0.013  0.013
   26  0.000  0.000  0.013  0.013
   27  0.001  0.003  0.036  0.040
   28  0.011  0.000  0.001  0.012
   29  0.000  0.001  0.033  0.034
   30  0.000  0.001  0.033  0.034
   31  0.000  0.001  0.033  0.034
   32  0.000  0.001  0.033  0.034
   33  0.000  0.001  0.033  0.034
   34  0.000  0.001  0.033  0.034
   35  0.035  0.001  0.007  0.042
   36  0.005  0.000  0.004  0.009
   37  0.000  0.000  0.000  0.000
tot    0.094  0.045  0.674  0.813
 
band    21 # energy   -4.48111275 # occ.  2.00000000
 
ion      s      p      d    tot
    1  0.000  0.002  0.002  0.004
    2  0.014  0.001  0.009  0.024
    3  0.006  0.001  0.008  0.016
    4  0.014  0.001  0.009  0.024
    5  0.000  0.002  0.017  0.020
    6  0.002  0.001  0.008  0.011
    7  0.006  0.001  0.008  0.015
    8  0.002  0.001  0.008  0.011
    9  0.000  0.000  0.029  0.029
   10  0.001  0.007  0.021  0.028
   11  0.000  0.001  0.039  0.040
   12  0.000  0.002  0.008  0.011
   13  0.000  0.001  0.038  0.039
   14  0.001  0.003  0.004  0.008
   15  0.000  0.000  0.030  0.030
   16  0.000  0.002  0.008  0.010
   17  0.000  0.000  0.029  0.030
   18  0.000  0.001  0.010  0.011
   19  0.000  0.000  0.043  0.043
   20  0.002  0.006  0.023  0.032
   21  0.001  0.002  0.018  0.021
   22  0.000  0.001  0.023  0.024
   23  0.001  0.001  0.018  0.020
   24  0.000  0.003  0.015  0.018
   25  0.001  0.001  0.004  0.005
   26  0.000  0.000  0.042  0.043
   27  0.000  0.001  0.023  0.024
   28  0.000  0.001  0.036  0.038
   29  0.012  0.001  0.015  0.028
   30  0.000  0.001  0.014  0.014
   31  0.012  0.001  0.015  0.028
   32  0.011  0.001  0.014  0.026
   33  0.000  0.001  0.014  0.014
   34  0.011  0.001  0.014  0.026
   35  0.000  0.000  0.033  0.033
   36  0.000  0.005  0.000  0.006