 vasp.6.2.0 18Jan21 (build Jun 12 2021 23:27:24) complex                        
  
 executed on             LinuxIFC date 2022.05.27  05:34:29
 running on   28 total cores
 distrk:  each k-point on   28 cores,    1 groups
 distr:  one band on NCORE=   1 cores,   28 groups


--------------------------------------------------------------------------------------------------------


 INCAR:
   ISMEAR = -5
   SIGMA = 0.1
   ISPIN = 1
   EDIFF = 1.d-5
   EDIFFG = -0.01
   NSW = 0
   NELM = 150
   ENCUT = 500
   ISIF = 2
   IBRION = 2
   LREAL = Auto
   ALGO = Fast
   ICHARG = 11
   LORBIT = 10
   LCHARG = .F.
   LWAVE = .F.

 POTCAR:    PAW_PBE Ag 02Apr2005                  
 POTCAR:    PAW_PBE Ni 02Aug2007                  
 POTCAR:    PAW_PBE H 15Jun2001                   
 -----------------------------------------------------------------------------
|                                                                             |
|           W    W    AA    RRRRR   N    N  II  N    N   GGGG   !!!           |
|           W    W   A  A   R    R  NN   N  II  NN   N  G    G  !!!           |
|           W    W  A    A  R    R  N N  N  II  N N  N  G       !!!           |
|           W WW W  AAAAAA  RRRRR   N  N N  II  N  N N  G  GGG   !            |
|           WW  WW  A    A  R   R   N   NN  II  N   NN  G    G                |
|           W    W  A    A  R    R  N    N  II  N    N   GGGG   !!!           |
|                                                                             |
|     For optimal performance we recommend to set                             |
|       NCORE = 2 up to number-of-cores-per-socket                            |
|     NCORE specifies how many cores store one orbital (NPAR=cpu/NCORE).      |
|     This setting can greatly improve the performance of VASP for DFT.       |
|     The default, NCORE=1 might be grossly inefficient on modern             |
|     multi-core architectures or massively parallel machines. Do your        |
|     own testing! More info at https://www.vasp.at/wiki/index.php/NCORE      |
|     Unfortunately you need to use the default for GW and RPA                |
|     calculations (for HF NCORE is supported but not extensively tested      |
|     yet).                                                                   |
|                                                                             |
 -----------------------------------------------------------------------------

 POTCAR:    PAW_PBE Ag 02Apr2005                  
   VRHFIN =Ag : s1 d10                                                                              
   LEXCH  = PE                                                                                      
   EATOM  =  1037.2675 eV,   76.2370 Ry                                                             
                                                                                                    
   TITEL  = PAW_PBE Ag 02Apr2005                                                                    
   LULTRA =        F    use ultrasoft PP ?                                                          
   IUNSCR =        1    unscreen: 0-lin 1-nonlin 2-no                                               
   RPACOR =    2.000    partial core radius                                                         
   POMASS =  107.868; ZVAL   =   11.000    mass and valenz                                          
   RCORE  =    2.500    outmost cutoff radius                                                       
   RWIGS  =    2.840; RWIGS  =    1.503    wigner-seitz radius (au A)                               
   ENMAX  =  249.844; ENMIN  =  187.383 eV                                                          
   ICORE  =        3    local potential                                                             
   LCOR   =        T    correct aug charges                                                         
   LPAW   =        T    paw PP                                                                      
   EAUG   =  412.496                                                                                
   DEXC   =    0.000                                                                                
   RMAX   =    2.560    core radius for proj-oper                                                   
   RAUG   =    1.300    factor for augmentation sphere                                              
   RDEP   =    2.576    radius for radial grids                                                     
   RDEPT  =    2.072    core radius for aug-charge                                                  
                                                                                                    
   Atomic configuration                                                                             
   12 entries                                                                                       
     n  l   j            E        occ.                                                              
     1  0  0.50    -25324.9161   2.0000                                                             
     2  0  0.50     -3728.5341   2.0000                                                             
     2  1  1.50     -3344.0404   6.0000                                                             
     3  0  0.50      -683.5581   2.0000                                                             
     3  1  1.50      -557.3225   6.0000                                                             
     3  2  2.50      -358.3853  10.0000                                                             
     4  0  0.50       -95.0341   2.0000                                                             
     4  1  1.50       -58.5511   6.0000                                                             
     4  2  2.50        -7.4440  10.0000                                                             
     5  0  0.50        -4.4045   1.0000                                                             
     5  1  0.50        -1.3606   0.0000                                                             
     4  3  2.50        -1.3606   0.0000                                                             
   Description                                                                                      
     l       E           TYP  RCUT    TYP  RCUT                                                     
     2     -7.4439781     23  2.400                                                                 
     2     -8.8045607     23  2.400                                                                 
     0     -4.4044681     23  2.400                                                                 
     0      1.9520038     23  2.400                                                                 
     1     -1.3605826     23  2.500                                                                 
     1     27.2116520     23  2.500                                                                 
     3     -4.0817478     23  2.400                                                                 
  local pseudopotential read in
  partial core-charges read in
  partial kinetic energy density read in
  atomic valenz-charges read in
  non local Contribution for L=           2  read in
    real space projection operators read in
  non local Contribution for L=           2  read in
    real space projection operators read in
  non local Contribution for L=           0  read in
    real space projection operators read in
  non local Contribution for L=           0  read in
    real space projection operators read in
  non local Contribution for L=           1  read in
    real space projection operators read in
  non local Contribution for L=           1  read in
    real space projection operators read in
    PAW grid and wavefunctions read in
 
   number of l-projection  operators is LMAX  =           6
   number of lm-projection operators is LMMAX =          18
 
 POTCAR:    PAW_PBE Ni 02Aug2007                  
   VRHFIN =Ni:                                                                                      
   LEXCH  = PE                                                                                      
   EATOM  =  1077.6739 eV,   79.2068 Ry                                                             
                                                                                                    
   TITEL  = PAW_PBE Ni 02Aug2007                                                                    
   LULTRA =        F    use ultrasoft PP ?                                                          
   IUNSCR =        1    unscreen: 0-lin 1-nonlin 2-no                                               
   RPACOR =    2.000    partial core radius                                                         
   POMASS =   58.690; ZVAL   =   10.000    mass and valenz                                          
   RCORE  =    2.300    outmost cutoff radius                                                       
   RWIGS  =    2.430; RWIGS  =    1.286    wigner-seitz radius (au A)                               
   ENMAX  =  269.532; ENMIN  =  202.149 eV                                                          
   RCLOC  =    1.201    cutoff for local pot                                                        
   LCOR   =        T    correct aug charges                                                         
   LPAW   =        T    paw PP                                                                      
   EAUG   =  544.565                                                                                
   DEXC   =    0.000                                                                                
   RMAX   =    2.357    core radius for proj-oper                                                   
   RAUG   =    1.300    factor for augmentation sphere                                              
   RDEP   =    2.390    radius for radial grids                                                     
   RDEPT  =    1.838    core radius for aug-charge                                                  
                                                                                                    
   Atomic configuration                                                                             
    9 entries                                                                                       
     n  l   j            E        occ.                                                              
     1  0  0.50     -8206.4253   2.0000                                                             
     2  0  0.50      -976.1748   2.0000                                                             
     2  1  1.50      -839.0571   6.0000                                                             
     3  0  0.50      -105.9991   2.0000                                                             
     3  1  1.50       -66.4603   6.0000                                                             
     3  2  2.50        -4.6458   9.0000                                                             
     4  0  0.50        -4.4926   1.0000                                                             
     4  1  1.50        -4.0817   0.0000                                                             
     4  3  2.50        -1.3606   0.0000                                                             
   Description                                                                                      
     l       E           TYP  RCUT    TYP  RCUT                                                     
     2     -4.6457903     23  2.300                                                                 
     2     -6.0063729     23  2.300                                                                 
     0     -4.4925590     23  2.300                                                                 
     0      5.0102601     23  2.300                                                                 
     1     -2.7211652     23  2.300                                                                 
     1     16.5183231     23  2.300                                                                 
  local pseudopotential read in
  partial core-charges read in
  partial kinetic energy density read in
  atomic valenz-charges read in
  non local Contribution for L=           2  read in
    real space projection operators read in
  non local Contribution for L=           2  read in
    real space projection operators read in
  non local Contribution for L=           0  read in
    real space projection operators read in
  non local Contribution for L=           0  read in
    real space projection operators read in
  non local Contribution for L=           1  read in
    real space projection operators read in
  non local Contribution for L=           1  read in
    real space projection operators read in
    PAW grid and wavefunctions read in
 
   number of l-projection  operators is LMAX  =           6
   number of lm-projection operators is LMMAX =          18
 
 POTCAR:    PAW_PBE H 15Jun2001                   
   VRHFIN =H: ultrasoft test                                                                        
   LEXCH  = PE                                                                                      
   EATOM  =    12.4884 eV,    0.9179 Ry                                                             
                                                                                                    
   TITEL  = PAW_PBE H 15Jun2001                                                                     
   LULTRA =        F    use ultrasoft PP ?                                                          
   IUNSCR =        0    unscreen: 0-lin 1-nonlin 2-no                                               
   RPACOR =    0.000    partial core radius                                                         
   POMASS =    1.000; ZVAL   =    1.000    mass and valenz                                          
   RCORE  =    1.100    outmost cutoff radius                                                       
   RWIGS  =    0.700; RWIGS  =    0.370    wigner-seitz radius (au A)                               
   ENMAX  =  250.000; ENMIN  =  200.000 eV                                                          
   RCLOC  =    0.701    cutoff for local pot                                                        
   LCOR   =        T    correct aug charges                                                         
   LPAW   =        T    paw PP                                                                      
   EAUG   =  400.000                                                                                
   RMAX   =    1.123    core radius for proj-oper                                                   
   RAUG   =    1.200    factor for augmentation sphere                                              
   RDEP   =    1.112    radius for radial grids                                                     
   RDEPT  =    0.926    core radius for aug-charge                                                  
                                                                                                    
   Atomic configuration                                                                             
    2 entries                                                                                       
     n  l   j            E        occ.                                                              
     1  0  0.50        -6.4927   1.0000                                                             
     2  1  0.50        -3.4015   0.0000                                                             
   Description                                                                                      
     l       E           TYP  RCUT    TYP  RCUT                                                     
     0     -6.4927494     23  1.100                                                                 
     0      6.8029130     23  1.100                                                                 
     1     -4.0817478     23  1.100                                                                 
  local pseudopotential read in
  atomic valenz-charges read in
  non local Contribution for L=           0  read in
    real space projection operators read in
  non local Contribution for L=           0  read in
    real space projection operators read in
  non local Contribution for L=           1  read in
    real space projection operators read in
    PAW grid and wavefunctions read in
 
   number of l-projection  operators is LMAX  =           3
   number of lm-projection operators is LMMAX =           5
 
 Optimization of the real space projectors (new method)

 maximal supplied QI-value         = 15.12
 optimisation between [QCUT,QGAM] = [ 11.34, 22.83] = [ 36.00,145.93] Ry 
 Optimized for a Real-space Cutoff    1.43 Angstroem

   l    n(q)    QCUT    max X(q) W(low)/X(q) W(high)/X(q)  e(spline) 
   2      9    11.338    53.897    0.16E-03    0.20E-03    0.28E-06
   2      9    11.338    52.416    0.16E-03    0.20E-03    0.29E-06
   0     10    11.338   122.045    0.31E-04    0.76E-04    0.15E-06
   0     10    11.338    73.629    0.30E-04    0.72E-04    0.15E-06
   1      9    11.338    15.255    0.20E-03    0.19E-04    0.17E-06
   1      9    11.338     9.562    0.16E-03    0.15E-04    0.14E-06
 Optimization of the real space projectors (new method)

 maximal supplied QI-value         = 16.25
 optimisation between [QCUT,QGAM] = [ 11.38, 22.75] = [ 36.24,144.96] Ry 
 Optimized for a Real-space Cutoff    1.39 Angstroem

   l    n(q)    QCUT    max X(q) W(low)/X(q) W(high)/X(q)  e(spline) 
   2      8    11.376    60.317    0.19E-03    0.33E-04    0.13E-06
   2      8    11.376    55.921    0.20E-03    0.34E-04    0.14E-06
   0      9    11.376    51.690    0.82E-04    0.12E-03    0.20E-06
   0      9    11.376    30.015    0.74E-04    0.11E-03    0.18E-06
   1      9    11.376    18.849    0.39E-03    0.12E-03    0.13E-06
   1      9    11.376    14.624    0.33E-03    0.10E-03    0.11E-06
 Optimization of the real space projectors (new method)

 maximal supplied QI-value         = 34.20
 optimisation between [QCUT,QGAM] = [ 11.29, 22.57] = [ 35.68,142.71] Ry 
 Optimized for a Real-space Cutoff    1.16 Angstroem

   l    n(q)    QCUT    max X(q) W(low)/X(q) W(high)/X(q)  e(spline) 
   0      8    11.287    19.460    0.40E-03    0.73E-03    0.16E-06
   0      8    11.287    12.209    0.38E-03    0.70E-03    0.15E-06
   1      7    11.287     4.655    0.22E-03    0.25E-04    0.22E-06
  PAW_PBE Ag 02Apr2005                  :
 energy of atom  1       EATOM=-1037.2675
 kinetic energy error for atom=    0.0052 (will be added to EATOM!!)
  PAW_PBE Ni 02Aug2007                  :
 energy of atom  2       EATOM=-1077.6739
 kinetic energy error for atom=    0.0030 (will be added to EATOM!!)
  PAW_PBE H 15Jun2001                   :
 energy of atom  3       EATOM=  -12.4884
 kinetic energy error for atom=    0.0020 (will be added to EATOM!!)
 
 
 POSCAR: Ag-Ni-H2
  positions in direct lattice
  velocities in cartesian coordinates
 exchange correlation table for  LEXCH =        8
   RHO(1)=    0.500       N(1)  =     2000
   RHO(2)=  100.500       N(2)  =     4000

 VTST: version 3.2, (02/03/18)

 CHAIN: initializing optimizer
 
 OPT: Using VASP Conjugate-Gradient optimizer
 CHAIN: Read ICHAIN            0
 
 POSCAR: Ag-Ni-H2
  positions in direct lattice
  velocities in cartesian coordinates
 


--------------------------------------------------------------------------------------------------------


 ion  position               nearest neighbor table
   1  0.000  0.000  0.238-   2 2.93   8 2.93   7 2.93   6 2.93   4 2.93  12 2.93  16 2.93  10 2.93
                             3 2.93
   2  0.333  0.000  0.238-   1 2.93   8 2.93   9 2.93   3 2.93   4 2.93   5 2.93  10 2.93  17 2.93
                            11 2.93
   3  0.667  0.000  0.238-   9 2.93   2 2.93   5 2.93  11 2.93   7 2.93  18 2.93   1 2.93   6 2.93
                            12 2.93
   4  0.000  0.333  0.238-   5 2.93   6 2.93   2 2.93   1 2.93   7 2.93  13 2.93  15 2.93   9 2.93
                            10 2.93
   5  0.333  0.333  0.238-   4 2.93   3 2.93   7 2.93   2 2.93   8 2.93  14 2.93  13 2.93  11 2.93
                             6 2.93
   6  0.667  0.333  0.238-   4 2.93   9 2.93   1 2.93  15 2.93   8 2.93  12 2.93   3 2.93   5 2.93
                            14 2.93
   7  0.000  0.667  0.238-   8 2.93   1 2.93   5 2.93   3 2.93   4 2.93  16 2.93  18 2.93  13 2.93
                             9 2.93
   8  0.333  0.667  0.238-   7 2.93   1 2.93   2 2.93   9 2.93   5 2.93  16 2.93   6 2.93  17 2.93
                            14 2.93
   9  0.667  0.667  0.238-   3 2.93   2 2.93   8 2.93   6 2.93  17 2.93   4 2.93  15 2.93   7 2.93
                            18 2.93
  10  0.111  0.111  0.346-  20 2.91  19 2.92  26 2.92  12 2.93  16 2.93  15 2.93  17 2.93  13 2.93
                            11 2.93   2 2.93   1 2.93   4 2.93
  11  0.444  0.111  0.346-  21 2.91  20 2.91  27 2.91  14 2.93  17 2.93  18 2.93   3 2.93  12 2.93
                            13 2.93  10 2.93   5 2.93   2 2.93
  12  0.778  0.111  0.346-  21 2.91  25 2.92  19 2.92  10 2.93  16 2.93  18 2.93  15 2.93  11 2.93
                             1 2.93  14 2.93   6 2.93   3 2.93
  13  0.111  0.444  0.346-  20 2.91  23 2.91  22 2.91  15 2.93  14 2.93  18 2.93  10 2.93  11 2.93
                            16 2.93   4 2.93   5 2.93   7 2.93
  14  0.444  0.444  0.346-  23 2.91  21 2.91  24 2.91  13 2.93  11 2.93  16 2.93   5 2.93  12 2.93
                            17 2.93   8 2.93  15 2.93   6 2.93
  15  0.778  0.444  0.346-  24 2.91  22 2.91  19 2.92  13 2.93  10 2.93  12 2.93  17 2.93  18 2.93
                             4 2.93   6 2.93   9 2.93  14 2.93
  16  0.111  0.778  0.346-  23 2.91  26 2.92  25 2.92  18 2.93  12 2.93  10 2.93  14 2.93  17 2.93
                            13 2.93   7 2.93   8 2.93   1 2.93
  17  0.444  0.778  0.346-  27 2.91  24 2.91  26 2.92  11 2.93  10 2.93   9 2.93  18 2.93  15 2.93
                            16 2.93   2 2.93  14 2.93   8 2.93
  18  0.778  0.778  0.346-  22 2.91  27 2.91  25 2.92  16 2.93  12 2.93  13 2.93  11 2.93  17 2.93
                            15 2.93   7 2.93   3 2.93   9 2.93
  19  0.889  0.223  0.454-  28 2.91  15 2.92  10 2.92  12 2.92  24 2.93  22 2.93  32 2.94  31 2.94
                            26 2.94  25 2.94  20 2.94  21 2.94
  20  0.223  0.223  0.453-  36 2.69  31 2.89  29 2.89  13 2.91  11 2.91  10 2.91  21 2.92  23 2.92
                            27 2.93  22 2.93  19 2.94  26 2.94
  21  0.554  0.223  0.453-  36 2.69  30 2.89  32 2.89  11 2.91  14 2.91  12 2.91  20 2.92  23 2.92
                            27 2.93  24 2.93  25 2.94  19 2.94
  22  0.889  0.556  0.453-  18 2.91  15 2.91  35 2.91  13 2.91  33 2.91  31 2.91  24 2.93  27 2.93
                            25 2.93  19 2.93  23 2.93  20 2.93
  23  0.223  0.554  0.453-  36 2.69  34 2.89  33 2.89  14 2.91  13 2.91  16 2.91  21 2.92  20 2.92
                            22 2.93  24 2.93  26 2.94  25 2.94
  24  0.556  0.556  0.453-  15 2.91  17 2.91  35 2.91  14 2.91  32 2.91  34 2.91  27 2.93  22 2.93
                            19 2.93  26 2.93  23 2.93  21 2.93
  25  0.889  0.889  0.454-  28 2.91  18 2.92  16 2.92  12 2.92  22 2.93  27 2.93  33 2.94  30 2.94
                            26 2.94  19 2.94  23 2.94  21 2.94
  26  0.223  0.889  0.454-  28 2.91  17 2.92  16 2.92  10 2.92  27 2.93  24 2.93  34 2.94  29 2.94
                            25 2.94  19 2.94  23 2.94  20 2.94
  27  0.556  0.889  0.453-  17 2.91  18 2.91  35 2.91  11 2.91  29 2.91  30 2.91  24 2.93  22 2.93
                            26 2.93  25 2.93  20 2.93  21 2.93
  28  0.000  0.000  0.560-  26 2.91  25 2.91  19 2.91  29 2.96  34 2.96  33 2.96  32 2.96  31 2.96
                            30 2.96
  29  0.333  0.007  0.560-  30 2.87  31 2.87  36 2.88  20 2.89  27 2.91  26 2.94  35 2.96  28 2.96
                            34 3.06
  30  0.659  0.007  0.560-  29 2.87  32 2.87  36 2.88  21 2.89  27 2.91  25 2.94  35 2.96  28 2.96
                            33 3.06
  31  0.007  0.333  0.560-  33 2.87  29 2.87  36 2.88  20 2.89  22 2.91  19 2.94  35 2.96  28 2.96
                            32 3.06
  32  0.659  0.333  0.560-  34 2.87  30 2.87  36 2.88  21 2.89  24 2.91  19 2.94  35 2.96  28 2.96
                            31 3.06
  33  0.007  0.659  0.560-  31 2.87  34 2.87  36 2.88  23 2.89  22 2.91  25 2.94  35 2.96  28 2.96
                            30 3.06
  34  0.333  0.659  0.560-  32 2.87  33 2.87  36 2.88  23 2.89  24 2.91  26 2.94  35 2.96  28 2.96
                            29 3.06
  35  0.667  0.667  0.560-  24 2.91  27 2.91  22 2.91  30 2.96  32 2.96  29 2.96  34 2.96  31 2.96
                            33 2.96
  36  0.333  0.333  0.547-  38 1.60  37 1.60  21 2.69  20 2.69  23 2.69  31 2.88  33 2.88  30 2.88
                            29 2.88  34 2.88  32 2.88
  37  0.283  0.333  0.617-  38 0.88  36 1.60
  38  0.384  0.333  0.617-  37 0.88  36 1.60
 
  LATTYP: Found a hexagonal cell.
 ALAT       =     8.7913665772
 C/A-ratio  =     2.5227160501
  
  Lattice vectors:
  
 A1 = (  -4.3956832886,  -7.6135467898,   0.0000000000)
 A2 = (   8.7913665771,   0.0000000000,   0.0000000000)
 A3 = (   0.0000000000,   0.0000000000,  22.1781215668)


Analysis of symmetry for initial positions (statically):
=====================================================================
 Subroutine PRICEL returns:
 Original cell was already a primitive cell.
 

 Routine SETGRP: Setting up the symmetry group for a 
 hexagonal supercell.


 Subroutine GETGRP returns: Found  2 space group operations
 (whereof  2 operations were pure point group operations)
 out of a pool of 24 trial point group operations.


The static configuration has the point symmetry C_1h.


Analysis of symmetry for dynamics (positions and initial velocities):
=====================================================================
 Subroutine PRICEL returns:
 Original cell was already a primitive cell.
 

 Routine SETGRP: Setting up the symmetry group for a 
 hexagonal supercell.


 Subroutine GETGRP returns: Found  2 space group operations
 (whereof  2 operations were pure point group operations)
 out of a pool of 24 trial point group operations.


The dynamic configuration has the point symmetry C_1h.


Analysis of constrained symmetry for selective dynamics:
=====================================================================
 Subroutine PRICEL returns:
 Original cell was already a primitive cell.
 

 Routine SETGRP: Setting up the symmetry group for a 
 hexagonal supercell.


 Subroutine GETGRP returns: Found  2 space group operations
 (whereof  2 operations were pure point group operations)
 out of a pool of 24 trial point group operations.


The constrained configuration has the point symmetry C_1h.


 Subroutine INISYM returns: Found  2 space group operations
 (whereof  2 operations are pure point group operations),
 and found     1 'primitive' translations


----------------------------------------------------------------------------------------

                                     Primitive cell                                     

  volume of cell :    1484.4589

  direct lattice vectors                    reciprocal lattice vectors
     8.791366577  0.000000000  0.000000000     0.113747958 -0.065672414  0.000000000
     4.395683289  7.613546790  0.000000000     0.000000000  0.131344829  0.000000000
     0.000000000  0.000000000 22.178121567     0.000000000  0.000000000  0.045089481

  length of vectors
     8.791366577  8.791366577 22.178121567     0.131344829  0.131344829  0.045089481

  position of ions in fractional coordinates (direct lattice)
     0.000000000  0.000000000  0.238171124
     0.333333313  0.000000000  0.238171124
     0.666666627  0.000000000  0.238171124
     0.000000000  0.333333343  0.238171124
     0.333333313  0.333333343  0.238171124
     0.666666687  0.333333343  0.238171124
     0.000000000  0.666666687  0.238171124
     0.333333313  0.666666687  0.238171124
     0.666666627  0.666666687  0.238171124
     0.111111104  0.111111112  0.346057051
     0.444444448  0.111111112  0.346057051
     0.777777791  0.111111112  0.346057051
     0.111111097  0.444444448  0.346057051
     0.444444418  0.444444448  0.346057051
     0.777777791  0.444444448  0.346057051
     0.111111104  0.777777791  0.346057051
     0.444444448  0.777777791  0.346057051
     0.777777791  0.777777791  0.346057051
     0.888663894  0.222672229  0.453518215
     0.222798372  0.222798387  0.452802886
     0.554403197  0.222798387  0.452802886
     0.888532437  0.555733812  0.452984190
     0.222798387  0.554403257  0.452802886
     0.555733812  0.555733812  0.452984190
     0.888663894  0.888663894  0.453518215
     0.222672199  0.888663894  0.453518215
     0.555733752  0.888532437  0.452984190
     0.000000000  0.000000000  0.560168321
     0.333353478  0.007230338  0.559929561
     0.659416125  0.007230338  0.559929561
     0.007230338  0.333353508  0.559929561
     0.659416185  0.333353508  0.559929561
     0.007230338  0.659416185  0.559929561
     0.333353478  0.659416185  0.559929561
     0.666666627  0.666666687  0.560024744
     0.333333313  0.333333343  0.547339070
     0.283126517  0.333207104  0.616564841
     0.383666348  0.333207104  0.616564841

  ion indices of the primitive-cell ions
   primitive index   ion index
                 1           1
                 2           2
                 3           3
                 4           4
                 5           5
                 6           6
                 7           7
                 8           8
                 9           9
                10          10
                11          11
                12          12
                13          13
                14          14
                15          15
                16          16
                17          17
                18          18
                19          19
                20          20
                21          21
                22          22
                23          23
                24          24
                25          25
                26          26
                27          27
                28          28
                29          29
                30          30
                31          31
                32          32
                33          33
                34          34
                35          35
                36          36
                37          37
                38          38

----------------------------------------------------------------------------------------

 
 
 KPOINTS: Automatic mesh                          

Automatic generation of k-mesh.
 Grid dimensions read from file:
 generate k-points for:    8    8    1

 Generating k-lattice:

  Cartesian coordinates                     Fractional coordinates (reciprocal lattice)
     0.014218495 -0.008209052  0.000000000     0.125000000  0.000000000  0.000000000
     0.000000000  0.016418104  0.000000000     0.000000000  0.125000000  0.000000000
     0.000000000  0.000000000  0.045089481     0.000000000  0.000000000  1.000000000

  Length of vectors
     0.016418104  0.016418104  0.045089481

  Shift w.r.t. Gamma in fractional coordinates (k-lattice)
     0.000000000  0.000000000  0.000000000

 TETIRR: Found    100 inequivalent tetrahedra from      384
 
 Subroutine IBZKPT returns following result:
 ===========================================
 
 Found     21 irreducible k-points:
 
 Following reciprocal coordinates:
            Coordinates               Weight
  0.000000  0.000000  0.000000      1.000000
  0.125000 -0.000000  0.000000      4.000000
  0.000000  0.125000  0.000000      2.000000
  0.250000 -0.000000  0.000000      4.000000
  0.000000  0.250000  0.000000      2.000000
  0.375000 -0.000000  0.000000      4.000000
  0.000000  0.375000  0.000000      2.000000
  0.500000 -0.000000  0.000000      2.000000
  0.000000  0.500000  0.000000      1.000000
  0.250000  0.125000  0.000000      2.000000
  0.125000  0.250000  0.000000      4.000000
  0.375000  0.125000  0.000000      4.000000
  0.250000  0.375000  0.000000      4.000000
 -0.125000  0.250000  0.000000      4.000000
  0.500000  0.125000  0.000000      4.000000
  0.375000  0.500000  0.000000      4.000000
 -0.125000  0.375000  0.000000      4.000000
  0.500000  0.250000  0.000000      2.000000
  0.250000  0.500000  0.000000      4.000000
 -0.375000  0.250000  0.000000      4.000000
 -0.250000  0.375000  0.000000      2.000000
 
 Following cartesian coordinates:
            Coordinates               Weight
  0.000000  0.000000  0.000000      1.000000
  0.014218 -0.008209  0.000000      4.000000
  0.000000  0.016418  0.000000      2.000000
  0.028437 -0.016418  0.000000      4.000000
  0.000000  0.032836  0.000000      2.000000
  0.042655 -0.024627  0.000000      4.000000
  0.000000  0.049254  0.000000      2.000000
  0.056874 -0.032836  0.000000      2.000000
  0.000000  0.065672  0.000000      1.000000
  0.028437 -0.000000  0.000000      2.000000
  0.014218  0.024627  0.000000      4.000000
  0.042655 -0.008209  0.000000      4.000000
  0.028437  0.032836  0.000000      4.000000
 -0.014218  0.041045  0.000000      4.000000
  0.056874 -0.016418  0.000000      4.000000
  0.042655  0.041045  0.000000      4.000000
 -0.014218  0.057463  0.000000      4.000000
  0.056874 -0.000000  0.000000      2.000000
  0.028437  0.049254  0.000000      4.000000
 -0.042655  0.057463  0.000000      4.000000
 -0.028437  0.065672  0.000000      2.000000
 


--------------------------------------------------------------------------------------------------------




 Dimension of arrays:
   k-points           NKPTS =     21   k-points in BZ     NKDIM =     21   number of bands    NBANDS=    252
   number of dos      NEDOS =    301   number of ions     NIONS =     38
   non local maximal  LDIM  =      6   non local SUM 2l+1 LMDIM =     18
   total plane-waves  NPLWV = 290304
   max r-space proj   IRMAX =   2452   max aug-charges    IRDMAX=   9814
   dimension x,y,z NGX =    48 NGY =   48 NGZ =  126
   dimension x,y,z NGXF=    96 NGYF=   96 NGZF=  252
   support grid    NGXF=    96 NGYF=   96 NGZF=  252
   ions per type =              35   1   2
   NGX,Y,Z   is equivalent  to a cutoff of   9.08,  9.08,  9.44 a.u.
   NGXF,Y,Z  is equivalent  to a cutoff of  18.15, 18.15, 18.89 a.u.

 SYSTEM =  unknown system                          
 POSCAR =  Ag-Ni-H2                                

 Startparameter for this run:
   NWRITE =      2    write-flag & timer
   PREC   = normal    normal or accurate (medium, high low for compatibility)
   ISTART =      0    job   : 0-new  1-cont  2-samecut
   ICHARG =     11    charge: 1-file 2-atom 10-const
   ISPIN  =      1    spin polarized calculation?
   LNONCOLLINEAR =      F non collinear calculations
   LSORBIT =      F    spin-orbit coupling
   INIWAV =      1    electr: 0-lowe 1-rand  2-diag
   LASPH  =      F    aspherical Exc in radial PAW
   METAGGA=      F    non-selfconsistent MetaGGA calc.

 Electronic Relaxation 1
   ENCUT  =  500.0 eV  36.75 Ry    6.06 a.u.  16.03 16.03 40.44*2*pi/ulx,y,z
   ENINI  =  500.0     initial cutoff
   ENAUG  =  544.6 eV  augmentation charge cutoff
   NELM   =    150;   NELMIN=  2; NELMDL= -5     # of ELM steps 
   EDIFF  = 0.1E-04   stopping-criterion for ELM
   LREAL  =      T    real-space projection
   NLSPLINE    = F    spline interpolate recip. space projectors
   LCOMPAT=      F    compatible to vasp.4.4
   GGA_COMPAT  = T    GGA compatible to vasp.4.4-vasp.4.6
   LMAXPAW     = -100 max onsite density
   LMAXMIX     =    2 max onsite mixed and CHGCAR
   VOSKOWN=      0    Vosko Wilk Nusair interpolation
   ROPT   =   -0.00050  -0.00050  -0.00050
 Ionic relaxation
   EDIFFG = -.1E-01   stopping-criterion for IOM
   NSW    =      0    number of steps for IOM
   NBLOCK =      1;   KBLOCK =      1    inner block; outer block 
   IBRION =     -1    ionic relax: 0-MD 1-quasi-New 2-CG
   NFREE  =      1    steps in history (QN), initial steepest desc. (CG)
   ISIF   =      2    stress and relaxation
   IWAVPR =     10    prediction:  0-non 1-charg 2-wave 3-comb
   ISYM   =      2    0-nonsym 1-usesym 2-fastsym
   LCORR  =      T    Harris-Foulkes like correction to forces

   POTIM  = 0.5000    time-step for ionic-motion
   TEIN   =    0.0    initial temperature
   TEBEG  =    0.0;   TEEND  =   0.0 temperature during run
   SMASS  =  -3.00    Nose mass-parameter (am)
   estimated Nose-frequenzy (Omega)   =  0.10E-29 period in steps = 0.13E+47 mass=  -0.177E-26a.u.
   SCALEE = 1.0000    scale energy and forces
   NPACO  =    256;   APACO  = 16.0  distance and # of slots for P.C.
   PSTRESS=    0.0 pullay stress

  Mass of Ions in am
   POMASS = 107.87 58.69  1.00
  Ionic Valenz
   ZVAL   =  11.00 10.00  1.00
  Atomic Wigner-Seitz radii
   RWIGS  =  -1.00 -1.00 -1.00
  virtual crystal weights 
   VCA    =   1.00  1.00  1.00
   NELECT =     397.0000    total number of electrons
   NUPDOWN=      -1.0000    fix difference up-down

 DOS related values:
   EMIN   =  10.00;   EMAX   =-10.00  energy-range for DOS
   EFERMI =   0.00
   ISMEAR =    -5;   SIGMA  =   0.10  broadening in eV -4-tet -1-fermi 0-gaus

 Electronic relaxation 2 (details)
   IALGO  =     68    algorithm
   LDIAG  =      T    sub-space diagonalisation (order eigenvalues)
   LSUBROT=      F    optimize rotation matrix (better conditioning)
   TURBO    =      0    0=normal 1=particle mesh
   IRESTART =      0    0=no restart 2=restart with 2 vectors
   NREBOOT  =      0    no. of reboots
   NMIN     =      0    reboot dimension
   EREF     =   0.00    reference energy to select bands
   IMIX   =      4    mixing-type and parameters
     AMIX     =   0.40;   BMIX     =  1.00
     AMIX_MAG =   1.60;   BMIX_MAG =  1.00
     AMIN     =   0.10
     WC   =   100.;   INIMIX=   1;  MIXPRE=   1;  MAXMIX= -45

 Intra band minimization:
   WEIMIN = 0.0000     energy-eigenvalue tresh-hold
   EBREAK =  0.99E-08  absolut break condition
   DEPER  =   0.30     relativ break condition  

   TIME   =   0.40     timestep for ELM

  volume/ion in A,a.u.               =      39.06       263.62
  Fermi-wavevector in a.u.,A,eV,Ry     =   1.054749  1.993186 15.136407  1.112495
  Thomas-Fermi vector in A             =   2.189921
 
 Write flags
   LWAVE        =      F    write WAVECAR
   LDOWNSAMPLE  =      F    k-point downsampling of WAVECAR
   LCHARG       =      F    write CHGCAR
   LVTOT        =      F    write LOCPOT, total local potential
   LVHAR        =      F    write LOCPOT, Hartree potential only
   LELF         =      F    write electronic localiz. function (ELF)
   LORBIT       =     10    0 simple, 1 ext, 2 COOP (PROOUT), +10 PAW based schemes


 Dipole corrections
   LMONO  =      F    monopole corrections only (constant potential shift)
   LDIPOL =      F    correct potential (dipole corrections)
   IDIPOL =      0    1-x, 2-y, 3-z, 4-all directions 
   EPSILON=  1.0000000 bulk dielectric constant

 Exchange correlation treatment:
   GGA     =    --    GGA type
   LEXCH   =     8    internal setting for exchange type
   VOSKOWN=      0    Vosko Wilk Nusair interpolation
   LHFCALC =     F    Hartree Fock is set to
   LHFONE  =     F    Hartree Fock one center treatment
   AEXX    =    0.0000 exact exchange contribution

 Linear response parameters
   LEPSILON=     F    determine dielectric tensor
   LRPA    =     F    only Hartree local field effects (RPA)
   LNABLA  =     F    use nabla operator in PAW spheres
   LVEL    =     F    velocity operator in full k-point grid
   LINTERFAST=   F  fast interpolation
   KINTER  =     0    interpolate to denser k-point grid
   CSHIFT  =0.1000    complex shift for real part using Kramers Kronig
   OMEGAMAX=  -1.0    maximum frequency
   DEG_THRESHOLD= 0.2000000E-02 threshold for treating states as degnerate
   RTIME   =   -0.100 relaxation time in fs
  (WPLASMAI=    0.000 imaginary part of plasma frequency in eV, 0.658/RTIME)
   DFIELD  = 0.0000000 0.0000000 0.0000000 field for delta impulse in time
 
 Orbital magnetization related:
   ORBITALMAG=     F  switch on orbital magnetization
   LCHIMAG   =     F  perturbation theory with respect to B field
   DQ        =  0.001000  dq finite difference perturbation B field
   LLRAUG    =     F  two centre corrections for induced B field



--------------------------------------------------------------------------------------------------------


 Static calculation
 charge density and potential remain constant during run
 non-spin polarized calculation
 RMM-DIIS sequential band-by-band and
  variant of blocked Davidson during initial phase
 perform sub-space diagonalisation
    before iterative eigenvector-optimisation
 no mixing
 using additional bands           53
 real space projection scheme for non local part
 use partial core corrections
 calculate Harris-corrections to forces 
   (improved forces if not selfconsistent)
 use gradient corrections 
 WARNING: stress and forces are not correct
  (second derivative of E(xc) not defined)
 use of overlap-Matrix (Vanderbilt PP)
 Fermi weights with tetrahedron method with Bloechl corrections


--------------------------------------------------------------------------------------------------------


  energy-cutoff  :      500.00
  volume of cell :     1484.46
      direct lattice vectors                 reciprocal lattice vectors
     8.791366577  0.000000000  0.000000000     0.113747958 -0.065672414  0.000000000
     4.395683289  7.613546790  0.000000000     0.000000000  0.131344829  0.000000000
     0.000000000  0.000000000 22.178121567     0.000000000  0.000000000  0.045089481

  length of vectors
     8.791366577  8.791366577 22.178121567     0.131344829  0.131344829  0.045089481


 
 k-points in units of 2pi/SCALE and weight: Automatic mesh                          
   0.00000000  0.00000000  0.00000000       0.016
   0.01421849 -0.00820905  0.00000000       0.062
   0.00000000  0.01641810  0.00000000       0.031
   0.02843699 -0.01641810  0.00000000       0.062
   0.00000000  0.03283621  0.00000000       0.031
   0.04265548 -0.02462716  0.00000000       0.062
   0.00000000  0.04925431  0.00000000       0.031
   0.05687398 -0.03283621  0.00000000       0.031
   0.00000000  0.06567241  0.00000000       0.016
   0.02843699 -0.00000000  0.00000000       0.031
   0.01421849  0.02462716  0.00000000       0.062
   0.04265548 -0.00820905  0.00000000       0.062
   0.02843699  0.03283621  0.00000000       0.062
  -0.01421849  0.04104526  0.00000000       0.062
   0.05687398 -0.01641810  0.00000000       0.062
   0.04265548  0.04104526  0.00000000       0.062
  -0.01421849  0.05746336  0.00000000       0.062
   0.05687398 -0.00000000  0.00000000       0.031
   0.02843699  0.04925431  0.00000000       0.062
  -0.04265548  0.05746336  0.00000000       0.062
  -0.02843699  0.06567241  0.00000000       0.031
 
 k-points in reciprocal lattice and weights: Automatic mesh                          
   0.00000000  0.00000000  0.00000000       0.016
   0.12500000 -0.00000000  0.00000000       0.062
   0.00000000  0.12500000  0.00000000       0.031
   0.25000000 -0.00000000  0.00000000       0.062
   0.00000000  0.25000000  0.00000000       0.031
   0.37500000 -0.00000000  0.00000000       0.062
   0.00000000  0.37500000  0.00000000       0.031
   0.50000000 -0.00000000  0.00000000       0.031
   0.00000000  0.50000000  0.00000000       0.016
   0.25000000  0.12500000  0.00000000       0.031
   0.12500000  0.25000000  0.00000000       0.062
   0.37500000  0.12500000  0.00000000       0.062
   0.25000000  0.37500000  0.00000000       0.062
  -0.12500000  0.25000000  0.00000000       0.062
   0.50000000  0.12500000  0.00000000       0.062
   0.37500000  0.50000000  0.00000000       0.062
  -0.12500000  0.37500000  0.00000000       0.062
   0.50000000  0.25000000  0.00000000       0.031
   0.25000000  0.50000000  0.00000000       0.062
  -0.37500000  0.25000000  0.00000000       0.062
  -0.25000000  0.37500000  0.00000000       0.031
 
 position of ions in fractional coordinates (direct lattice) 
   0.00000000  0.00000000  0.23817112
   0.33333331  0.00000000  0.23817112
   0.66666663  0.00000000  0.23817112
   0.00000000  0.33333334  0.23817112
   0.33333331  0.33333334  0.23817112
   0.66666669  0.33333334  0.23817112
   0.00000000  0.66666669  0.23817112
   0.33333331  0.66666669  0.23817112
   0.66666663  0.66666669  0.23817112
   0.11111110  0.11111111  0.34605705
   0.44444445  0.11111111  0.34605705
   0.77777779  0.11111111  0.34605705
   0.11111110  0.44444445  0.34605705
   0.44444442  0.44444445  0.34605705
   0.77777779  0.44444445  0.34605705
   0.11111110  0.77777779  0.34605705
   0.44444445  0.77777779  0.34605705
   0.77777779  0.77777779  0.34605705
   0.88866389  0.22267223  0.45351822
   0.22279837  0.22279839  0.45280289
   0.55440320  0.22279839  0.45280289
   0.88853244  0.55573381  0.45298419
   0.22279839  0.55440326  0.45280289
   0.55573381  0.55573381  0.45298419
   0.88866389  0.88866389  0.45351822
   0.22267220  0.88866389  0.45351822
   0.55573375  0.88853244  0.45298419
   0.00000000  0.00000000  0.56016832
   0.33335348  0.00723034  0.55992956
   0.65941612  0.00723034  0.55992956
   0.00723034  0.33335351  0.55992956
   0.65941618  0.33335351  0.55992956
   0.00723034  0.65941618  0.55992956
   0.33335348  0.65941618  0.55992956
   0.66666663  0.66666669  0.56002474
   0.33333331  0.33333334  0.54733907
   0.28312652  0.33320710  0.61656484
   0.38366635  0.33320710  0.61656484
 
 position of ions in cartesian coordinates  (Angst):
   0.00000000  0.00000000  5.28218814
   2.93045535  0.00000000  5.28218814
   5.86091070  0.00000000  5.28218814
   1.46522781  2.53784900  5.28218814
   4.39568315  2.53784900  5.28218814
   7.32613904  2.53784900  5.28218814
   2.93045562  5.07569801  5.28218814
   5.86091096  5.07569801  5.28218814
   8.79136632  5.07569801  5.28218814
   1.46522770  0.84594965  7.67489535
   4.39568332  0.84594965  7.67489535
   7.32613893  0.84594965  7.67489535
   2.93045542  3.38379860  7.67489535
   5.86091083  3.38379860  7.67489535
   8.79136671  3.38379860  7.67489535
   4.39568328  5.92164760  7.67489535
   7.32613890  5.92164760  7.67489535
  10.25659451  5.92164760  7.67489535
   8.79136665  1.69532543 10.05818211
   2.93805330  1.69628594 10.04231745
   5.85331288  1.69628594 10.04231745
  10.25424420  4.23110538 10.04633842
   4.39568342  4.22097513 10.04231745
   7.32848949  4.23110538 10.04633842
  11.71885508  6.76588413 10.05818211
   5.86387795  6.76588413 10.05818211
   8.79136631  6.76488328 10.04633842
   0.00000000  0.00000000 12.42348112
   2.96241490  0.05504851 12.41818588
   5.82895115  0.05504851 12.41818588
   1.52888099  2.53800253 12.41818588
   7.26248585  2.53800253 12.41818588
   2.96214925  5.02049598 12.41818588
   5.82921732  5.02049598 12.41818588
   8.79136632  5.07569801 12.42029685
   4.39568315  2.53784900 12.13895243
   3.95374190  2.53688788 13.67424999
   4.83762441  2.53688788 13.67424999
 


--------------------------------------------------------------------------------------------------------


 k-point   1 :   0.0000 0.0000 0.0000  plane waves:   37683
 k-point   2 :   0.1250-0.0000 0.0000  plane waves:   37658
 k-point   3 :   0.0000 0.1250 0.0000  plane waves:   37658
 k-point   4 :   0.2500-0.0000 0.0000  plane waves:   37682
 k-point   5 :   0.0000 0.2500 0.0000  plane waves:   37682
 k-point   6 :   0.3750-0.0000 0.0000  plane waves:   37686
 k-point   7 :   0.0000 0.3750 0.0000  plane waves:   37686
 k-point   8 :   0.5000-0.0000 0.0000  plane waves:   37668
 k-point   9 :   0.0000 0.5000 0.0000  plane waves:   37668
 k-point  10 :   0.2500 0.1250 0.0000  plane waves:   37666
 k-point  11 :   0.1250 0.2500 0.0000  plane waves:   37666
 k-point  12 :   0.3750 0.1250 0.0000  plane waves:   37708
 k-point  13 :   0.2500 0.3750 0.0000  plane waves:   37708
 k-point  14 :  -0.1250 0.2500 0.0000  plane waves:   37708
 k-point  15 :   0.5000 0.1250 0.0000  plane waves:   37726
 k-point  16 :   0.3750 0.5000 0.0000  plane waves:   37726
 k-point  17 :  -0.1250 0.3750 0.0000  plane waves:   37726
 k-point  18 :   0.5000 0.2500 0.0000  plane waves:   37706
 k-point  19 :   0.2500 0.5000 0.0000  plane waves:   37706
 k-point  20 :  -0.3750 0.2500 0.0000  plane waves:   37686
 k-point  21 :  -0.2500 0.3750 0.0000  plane waves:   37686

 maximum and minimum number of plane-waves per node :     37726    37658

 maximum number of plane-waves:     37726
 maximum index in each direction: 
   IXMAX=   16   IYMAX=   16   IZMAX=   40
   IXMIN=  -16   IYMIN=  -16   IZMIN=  -40


 serial   3D FFT for wavefunctions
 parallel 3D FFT for charge:
    minimum data exchange during FFTs selected (reduces bandwidth)


 total amount of memory used by VASP MPI-rank0   183880. kBytes
=======================================================================

   base      :      30000. kBytes
   nonlr-proj:      14912. kBytes
   fftplans  :       4330. kBytes
   grid      :      17879. kBytes
   one-center:        590. kBytes
   wavefun   :     116169. kBytes
 
     INWAV:  cpu time    0.0000: real time    0.0000
 initial charge density was supplied:
 number of electron     396.9999896 magnetization 
 keeping initial charge density in first step


--------------------------------------------------------------------------------------------------------


 Maximum index for non-local projection operator         2356
 Maximum index for augmentation-charges          702 (set IRDMAX)


--------------------------------------------------------------------------------------------------------


 First call to EWALD:  gamma=   0.155
 Maximum number of real-space cells 4x 4x 2
 Maximum number of reciprocal cells 2x 2x 5

    FEWALD:  cpu time    0.0013: real time    0.0013


--------------------------------------- Iteration      1(   1)  ---------------------------------------


    POTLOK:  cpu time    0.0443: real time    0.0447
    SETDIJ:  cpu time    0.0047: real time    0.0048
     EDDAV:  cpu time   14.9873: real time   14.9889
 BZINTS: Fermi energy:    9.406174;  397.000000 electrons
         Band energy: 0.128590E+04;  BLOECHL correction:   -0.019279
       DOS:  cpu time    0.0307: real time    0.0307
    --------------------------------------------
      LOOP:  cpu time   15.0670: real time   15.0691

 eigenvalue-minimisations  : 10584
 total energy-change (2. order) : 0.2426258E+04  (-0.1825606E+05)
 number of electron     396.9999896 magnetization 
 augmentation part      396.9999896 magnetization 

 Free energy of the ion-electron system (eV)
  ---------------------------------------------------
  alpha Z        PSCENC =       738.73102877
  Ewald energy   TEWEN  =     99578.47470919
  -Hartree energ DENC   =   -137700.19338960
  -exchange      EXHF   =         0.00000000
  -V(xc)+E(xc)   XCENC  =      -353.10807245
  PAW double counting   =     39420.48189285   -37950.85640978
  entropy T*S    EENTRO =         0.00000000
  eigenvalues    EBANDS =      1285.90358658
  atomic energy  EATOM  =     37406.82459552
  Solvation  Ediel_sol  =         0.00000000
  ---------------------------------------------------
  free energy    TOTEN  =      2426.25794107 eV

  energy without entropy =     2426.25794107  energy(sigma->0) =     2426.25794107


--------------------------------------------------------------------------------------------------------




--------------------------------------- Iteration      1(   2)  ---------------------------------------


     EDDAV:  cpu time   15.6446: real time   15.6449
 BZINTS: Fermi energy:    1.348276;  397.000000 electrons
         Band energy:-0.115747E+04;  BLOECHL correction:   -0.048915
       DOS:  cpu time    0.0290: real time    0.0290
    --------------------------------------------
      LOOP:  cpu time   15.6737: real time   15.6740

 eigenvalue-minimisations  : 11172
 total energy-change (2. order) :-0.2443375E+04  (-0.2314443E+04)
 number of electron     396.9999896 magnetization 
 augmentation part      396.9999896 magnetization 

 Free energy of the ion-electron system (eV)
  ---------------------------------------------------
  alpha Z        PSCENC =       738.73102877
  Ewald energy   TEWEN  =     99578.47470919
  -Hartree energ DENC   =   -137700.19338960
  -exchange      EXHF   =         0.00000000
  -V(xc)+E(xc)   XCENC  =      -353.10807245
  PAW double counting   =     39420.48189285   -37950.85640978
  entropy T*S    EENTRO =         0.00000000
  eigenvalues    EBANDS =     -1157.47094284
  atomic energy  EATOM  =     37406.82459552
  Solvation  Ediel_sol  =         0.00000000
  ---------------------------------------------------
  free energy    TOTEN  =       -17.11658834 eV

  energy without entropy =      -17.11658834  energy(sigma->0) =      -17.11658834


--------------------------------------------------------------------------------------------------------




--------------------------------------- Iteration      1(   3)  ---------------------------------------


     EDDAV:  cpu time   16.4993: real time   16.4997
 BZINTS: Fermi energy:    0.935340;  397.000000 electrons
         Band energy:-0.124000E+04;  BLOECHL correction:   -0.054960
       DOS:  cpu time    0.0272: real time    0.0272
    --------------------------------------------
      LOOP:  cpu time   16.5265: real time   16.5269

 eigenvalue-minimisations  : 11900
 total energy-change (2. order) :-0.8253193E+02  (-0.8113845E+02)
 number of electron     396.9999896 magnetization 
 augmentation part      396.9999896 magnetization 

 Free energy of the ion-electron system (eV)
  ---------------------------------------------------
  alpha Z        PSCENC =       738.73102877
  Ewald energy   TEWEN  =     99578.47470919
  -Hartree energ DENC   =   -137700.19338960
  -exchange      EXHF   =         0.00000000
  -V(xc)+E(xc)   XCENC  =      -353.10807245
  PAW double counting   =     39420.48189285   -37950.85640978
  entropy T*S    EENTRO =         0.00000000
  eigenvalues    EBANDS =     -1240.00286886
  atomic energy  EATOM  =     37406.82459552
  Solvation  Ediel_sol  =         0.00000000
  ---------------------------------------------------
  free energy    TOTEN  =       -99.64851436 eV

  energy without entropy =      -99.64851436  energy(sigma->0) =      -99.64851436


--------------------------------------------------------------------------------------------------------




--------------------------------------- Iteration      1(   4)  ---------------------------------------


     EDDAV:  cpu time   16.3673: real time   16.3676
 BZINTS: Fermi energy:    0.928789;  397.000000 electrons
         Band energy:-0.124101E+04;  BLOECHL correction:   -0.055076
       DOS:  cpu time    0.0290: real time    0.0290
    --------------------------------------------
      LOOP:  cpu time   16.3964: real time   16.3966

 eigenvalue-minimisations  : 11816
 total energy-change (2. order) :-0.1008844E+01  (-0.1008031E+01)
 number of electron     396.9999896 magnetization 
 augmentation part      396.9999896 magnetization 

 Free energy of the ion-electron system (eV)
  ---------------------------------------------------
  alpha Z        PSCENC =       738.73102877
  Ewald energy   TEWEN  =     99578.47470919
  -Hartree energ DENC   =   -137700.19338960
  -exchange      EXHF   =         0.00000000
  -V(xc)+E(xc)   XCENC  =      -353.10807245
  PAW double counting   =     39420.48189285   -37950.85640978
  entropy T*S    EENTRO =         0.00000000
  eigenvalues    EBANDS =     -1241.01171255
  atomic energy  EATOM  =     37406.82459552
  Solvation  Ediel_sol  =         0.00000000
  ---------------------------------------------------
  free energy    TOTEN  =      -100.65735805 eV

  energy without entropy =     -100.65735805  energy(sigma->0) =     -100.65735805


--------------------------------------------------------------------------------------------------------




--------------------------------------- Iteration      1(   5)  ---------------------------------------


     EDDAV:  cpu time   18.1953: real time   18.1956
 BZINTS: Fermi energy:    0.928592;  397.000000 electrons
         Band energy:-0.124104E+04;  BLOECHL correction:   -0.055097
       DOS:  cpu time    0.0290: real time    0.0290
    --------------------------------------------
      LOOP:  cpu time   18.2243: real time   18.2246

 eigenvalue-minimisations  : 13412
 total energy-change (2. order) :-0.3057367E-01  (-0.3055039E-01)
 number of electron     396.9999896 magnetization 
 augmentation part      396.9999896 magnetization 

 Free energy of the ion-electron system (eV)
  ---------------------------------------------------
  alpha Z        PSCENC =       738.73102877
  Ewald energy   TEWEN  =     99578.47470919
  -Hartree energ DENC   =   -137700.19338960
  -exchange      EXHF   =         0.00000000
  -V(xc)+E(xc)   XCENC  =      -353.10807245
  PAW double counting   =     39420.48189285   -37950.85640978
  entropy T*S    EENTRO =         0.00000000
  eigenvalues    EBANDS =     -1241.04228622
  atomic energy  EATOM  =     37406.82459552
  Solvation  Ediel_sol  =         0.00000000
  ---------------------------------------------------
  free energy    TOTEN  =      -100.68793172 eV

  energy without entropy =     -100.68793172  energy(sigma->0) =     -100.68793172


--------------------------------------------------------------------------------------------------------




--------------------------------------- Iteration      1(   6)  ---------------------------------------


    EDDIAG:  cpu time    2.9276: real time    2.9280
  RMM-DIIS:  cpu time    8.2029: real time    8.2030
    ORTHCH:  cpu time    0.5470: real time    0.5470
 BZINTS: Fermi energy:    0.928588;  397.000000 electrons
         Band energy:-0.124104E+04;  BLOECHL correction:   -0.055096
       DOS:  cpu time    0.0283: real time    0.0283
    --------------------------------------------
      LOOP:  cpu time   11.7058: real time   11.7063

 eigenvalue-minimisations  : 10623
 total energy-change (2. order) :-0.6176718E-03  (-0.6183230E-03)
 number of electron     396.9999896 magnetization 
 augmentation part      396.9999896 magnetization 

 Free energy of the ion-electron system (eV)
  ---------------------------------------------------
  alpha Z        PSCENC =       738.73102877
  Ewald energy   TEWEN  =     99578.47470919
  -Hartree energ DENC   =   -137700.19338960
  -exchange      EXHF   =         0.00000000
  -V(xc)+E(xc)   XCENC  =      -353.10807245
  PAW double counting   =     39420.48189285   -37950.85640978
  entropy T*S    EENTRO =         0.00000000
  eigenvalues    EBANDS =     -1241.04290389
  atomic energy  EATOM  =     37406.82459552
  Solvation  Ediel_sol  =         0.00000000
  ---------------------------------------------------
  free energy    TOTEN  =      -100.68854939 eV

  energy without entropy =     -100.68854939  energy(sigma->0) =     -100.68854939


--------------------------------------------------------------------------------------------------------




--------------------------------------- Iteration      1(   7)  ---------------------------------------


    EDDIAG:  cpu time    2.9303: real time    2.9304
  RMM-DIIS:  cpu time   11.5673: real time   11.5674
    ORTHCH:  cpu time    0.5477: real time    0.5477
 BZINTS: Fermi energy:    0.928587;  397.000000 electrons
         Band energy:-0.124104E+04;  BLOECHL correction:   -0.055096
       DOS:  cpu time    0.0284: real time    0.0284
    --------------------------------------------
      LOOP:  cpu time   15.0737: real time   15.0739

 eigenvalue-minimisations  : 14838
 total energy-change (2. order) :-0.2196909E-03  (-0.2170628E-03)
 number of electron     396.9999896 magnetization 
 augmentation part      396.9999896 magnetization 

 Free energy of the ion-electron system (eV)
  ---------------------------------------------------
  alpha Z        PSCENC =       738.73102877
  Ewald energy   TEWEN  =     99578.47470919
  -Hartree energ DENC   =   -137700.19338960
  -exchange      EXHF   =         0.00000000
  -V(xc)+E(xc)   XCENC  =      -353.10807245
  PAW double counting   =     39420.48189285   -37950.85640978
  entropy T*S    EENTRO =         0.00000000
  eigenvalues    EBANDS =     -1241.04312358
  atomic energy  EATOM  =     37406.82459552
  Solvation  Ediel_sol  =         0.00000000
  ---------------------------------------------------
  free energy    TOTEN  =      -100.68876908 eV

  energy without entropy =     -100.68876908  energy(sigma->0) =     -100.68876908


--------------------------------------------------------------------------------------------------------




--------------------------------------- Iteration      1(   8)  ---------------------------------------


    EDDIAG:  cpu time    2.9396: real time    2.9397
  RMM-DIIS:  cpu time    8.4697: real time    8.4698
    ORTHCH:  cpu time    0.5473: real time    0.5473
 BZINTS: Fermi energy:    0.928587;  397.000000 electrons
         Band energy:-0.124104E+04;  BLOECHL correction:   -0.055095
       DOS:  cpu time    0.0284: real time    0.0284
    --------------------------------------------
      LOOP:  cpu time   11.9850: real time   11.9852

 eigenvalue-minimisations  :  9995
 total energy-change (2. order) :-0.1475686E-04  (-0.1467031E-04)
 number of electron     396.9999896 magnetization 
 augmentation part      396.9999896 magnetization 

 Free energy of the ion-electron system (eV)
  ---------------------------------------------------
  alpha Z        PSCENC =       738.73102877
  Ewald energy   TEWEN  =     99578.47470919
  -Hartree energ DENC   =   -137700.19338960
  -exchange      EXHF   =         0.00000000
  -V(xc)+E(xc)   XCENC  =      -353.10807245
  PAW double counting   =     39420.48189285   -37950.85640978
  entropy T*S    EENTRO =         0.00000000
  eigenvalues    EBANDS =     -1241.04313834
  atomic energy  EATOM  =     37406.82459552
  Solvation  Ediel_sol  =         0.00000000
  ---------------------------------------------------
  free energy    TOTEN  =      -100.68878384 eV

  energy without entropy =     -100.68878384  energy(sigma->0) =     -100.68878384


--------------------------------------------------------------------------------------------------------




--------------------------------------- Iteration      1(   9)  ---------------------------------------


    EDDIAG:  cpu time    2.9278: real time    2.9280
  RMM-DIIS:  cpu time    6.5346: real time    6.5347
    ORTHCH:  cpu time    0.5472: real time    0.5472
 BZINTS: Fermi energy:    0.928587;  397.000000 electrons
         Band energy:-0.124104E+04;  BLOECHL correction:   -0.055095
       DOS:  cpu time    0.0290: real time    0.0290
    --------------------------------------------
      LOOP:  cpu time   10.0386: real time   10.0389

 eigenvalue-minimisations  :  7005
 total energy-change (2. order) :-0.3094814E-05  (-0.3042411E-05)
 number of electron     396.9999896 magnetization 
 augmentation part      396.9999896 magnetization 

 Free energy of the ion-electron system (eV)
  ---------------------------------------------------
  alpha Z        PSCENC =       738.73102877
  Ewald energy   TEWEN  =     99578.47470919
  -Hartree energ DENC   =   -137700.19338960
  -exchange      EXHF   =         0.00000000
  -V(xc)+E(xc)   XCENC  =      -353.10807245
  PAW double counting   =     39420.48189285   -37950.85640978
  entropy T*S    EENTRO =         0.00000000
  eigenvalues    EBANDS =     -1241.04314143
  atomic energy  EATOM  =     37406.82459552
  Solvation  Ediel_sol  =         0.00000000
  ---------------------------------------------------
  free energy    TOTEN  =      -100.68878694 eV

  energy without entropy =     -100.68878694  energy(sigma->0) =     -100.68878694


--------------------------------------------------------------------------------------------------------




 average (electrostatic) potential at core
  the test charge radii are     1.1249  0.9791  0.5201
  (the norm of the test charge is              1.0000)
       1 -78.0163       2 -77.9600       3 -77.9600       4 -77.9581       5 -77.9442
       6 -77.9578       7 -77.9595       8 -77.9592       9 -77.9886      10 -78.2032
      11 -78.1765      12 -78.2029      13 -78.1764      14 -78.1760      15 -78.2004
      16 -78.2008      17 -78.2012      18 -78.2013      19 -78.1702      20 -78.2024
      21 -78.2020      22 -78.1964      23 -78.1976      24 -78.1959      25 -78.1707
      26 -78.1707      27 -78.1979      28 -77.9536      29 -77.9171      30 -77.9170
      31 -77.9374      32 -77.9370      33 -77.9180      34 -77.9177      35 -77.9285
      36 -89.9869      37 -37.4790      38 -37.4789
 
 
 
 E-fermi :   0.9286     XC(G=0):  -5.8972     alpha+bet : -5.5697

 Fermi energy:         0.9285869728

 k-point     1 :       0.0000    0.0000    0.0000
  band No.  band energies     occupation 
      1      -7.5532      2.00000
      2      -6.1684      2.00000
      3      -5.3037      2.00000
      4      -5.0261      2.00000
      5      -4.9228      2.00000
      6      -4.9167      2.00000
      7      -4.9161      2.00000
      8      -4.9156      2.00000
      9      -4.9103      2.00000
     10      -4.9102      2.00000
     11      -4.8932      2.00000
     12      -4.8750      2.00000
     13      -4.8746      2.00000
     14      -4.8705      2.00000
     15      -4.8619      2.00000
     16      -4.8615      2.00000
     17      -4.7975      2.00000
     18      -4.7156      2.00000
     19      -4.7047      2.00000
     20      -4.7041      2.00000
     21      -4.7037      2.00000
     22      -4.6989      2.00000
     23      -4.6987      2.00000
     24      -4.5226      2.00000
     25      -4.5219      2.00000
     26      -4.5188      2.00000
     27      -4.4976      2.00000
     28      -4.4871      2.00000
     29      -4.4744      2.00000
     30      -4.4741      2.00000
     31      -4.4723      2.00000
     32      -4.4632      2.00000
     33      -4.4627      2.00000
     34      -4.4495      2.00000
     35      -4.4488      2.00000
     36      -4.3573      2.00000
     37      -4.3553      2.00000
     38      -4.3530      2.00000
     39      -4.2702      2.00000
     40      -4.2003      2.00000
     41      -4.1999      2.00000
     42      -4.1394      2.00000
     43      -4.1382      2.00000
     44      -4.1249      2.00000
     45      -4.1245      2.00000
     46      -4.1235      2.00000
     47      -4.0935      2.00000
     48      -4.0933      2.00000
     49      -4.0892      2.00000
     50      -4.0459      2.00000
     51      -4.0443      2.00000
     52      -3.9665      2.00000
     53      -3.9663      2.00000
     54      -3.9483      2.00000
     55      -3.9418      2.00000
     56      -3.7315      2.00000
     57      -3.7294      2.00000
     58      -3.7279      2.00000
     59      -3.7258      2.00000
     60      -3.7148      2.00000
     61      -3.7142      2.00000
     62      -3.6902      2.00000
     63      -3.6897      2.00000
     64      -3.6761      2.00000
     65      -3.6641      2.00000
     66      -3.6640      2.00000
     67      -3.5707      2.00000
     68      -3.5689      2.00000
     69      -3.5582      2.00000
     70      -3.5564      2.00000
     71      -3.5515      2.00000
     72      -3.5492      2.00000
     73      -3.5425      2.00000
     74      -3.5417      2.00000
     75      -3.5223      2.00000
     76      -3.5209      2.00000
     77      -3.5047      2.00000
     78      -3.4896      2.00000
     79      -3.4893      2.00000
     80      -3.4846      2.00000
     81      -3.4672      2.00000
     82      -3.4589      2.00000
     83      -3.4560      2.00000
     84      -3.4146      2.00000
     85      -3.4144      2.00000
     86      -3.3520      2.00000
     87      -3.3502      2.00000
     88      -3.3449      2.00000
     89      -3.3204      2.00000
     90      -3.3199      2.00000
     91      -3.2840      2.00000
     92      -3.2829      2.00000
     93      -3.2713      2.00000
     94      -3.2713      2.00000
     95      -3.2443      2.00000
     96      -3.2430      2.00000
     97      -3.2326      2.00000
     98      -3.2212      2.00000
     99      -3.1800      2.00000
    100      -3.0244      2.00000
    101      -3.0221      2.00000
    102      -3.0217      2.00000
    103      -3.0056      2.00000
    104      -3.0000      2.00000
    105      -2.9984      2.00000
    106      -2.9611      2.00000
    107      -2.9581      2.00000
    108      -2.9546      2.00000
    109      -2.9457      2.00000
    110      -2.9455      2.00000
    111      -2.8863      2.00000
    112      -2.8824      2.00000
    113      -2.8243      2.00000
    114      -2.8160      2.00000
    115      -2.7988      2.00000
    116      -2.7510      2.00000
    117      -2.7505      2.00000
    118      -2.7270      2.00000
    119      -2.7266      2.00000
    120      -2.6851      2.00000
    121      -2.6782      2.00000
    122      -2.6704      2.00000
    123      -2.6606      2.00000
    124      -2.6589      2.00000
    125      -2.6451      2.00000
    126      -2.6448      2.00000
    127      -2.6281      2.00000
    128      -2.6271      2.00000
    129      -2.6205      2.00000
    130      -2.6135      2.00000
    131      -2.6096      2.00000
    132      -2.6094      2.00000
    133      -2.6076      2.00000
    134      -2.4954      2.00000
    135      -2.4854      2.00000
    136      -2.4349      2.00000
    137      -2.4286      2.00000
    138      -2.4256      2.00000
    139      -2.4162      2.00000
    140      -2.4154      2.00000
    141      -2.4099      2.00000
    142      -2.4087      2.00000
    143      -2.4066      2.00000
    144      -2.3983      2.00000
    145      -2.3972      2.00000
    146      -2.3792      2.00000
    147      -2.3780      2.00000
    148      -2.3377      2.00000
    149      -2.3222      2.00000
    150      -2.3220      2.00000
    151      -2.3212      2.00000
    152      -2.3139      2.00000
    153      -2.3115      2.00000
    154      -2.3106      2.00000
    155      -2.2802      2.00000
    156      -2.2621      2.00000
    157      -2.2619      2.00000
    158      -2.2486      2.00000
    159      -2.2467      2.00000
    160      -2.2405      2.00000
    161      -2.2195      2.00000
    162      -2.2171      2.00000
    163      -2.2170      2.00000
    164      -2.2167      2.00000
    165      -2.1897      2.00000
    166      -2.1773      2.00000
    167      -2.1757      2.00000
    168      -2.1703      2.00000
    169      -2.1504      2.00000
    170      -2.1494      2.00000
    171      -2.1493      2.00000
    172      -2.1072      2.00000
    173      -2.1060      2.00000
    174      -2.0573      2.00000
    175      -2.0571      2.00000
    176      -2.0219      2.00000
    177      -2.0213      2.00000
    178      -2.0041      2.00000
    179      -1.9974      2.00000
    180      -1.9511      2.00000
    181      -1.9492      2.00000
    182      -1.9278      2.00000
    183      -1.9199      2.00000
    184      -1.9163      2.00000
    185      -1.8788      2.00000
    186      -1.2785      2.00000
    187      -1.1996      2.00000
    188      -1.1728      2.00000
    189      -1.1640      2.00000
    190      -1.1575      2.00000
    191      -1.0195      2.00000
    192      -0.7434      2.00000
    193      -0.3841      2.00000
    194      -0.3334      2.00000
    195       0.0328      2.00000
    196       0.0362      2.00000
    197       0.1705      2.00000
    198       0.5519      2.00000
    199       0.5718      2.00000
    200       0.5827      2.00000
    201       0.6009      2.74961
    202       0.6084      2.10988
    203       1.0957      0.00000
    204       1.7330      0.00000
    205       2.7117      0.00000
    206       2.7891      0.00000
    207       2.8062      0.00000
    208       2.8206      0.00000
    209       2.8220      0.00000
    210       3.7124      0.00000
    211       4.1668      0.00000
    212       4.1875      0.00000
    213       4.2174      0.00000
    214       4.3129      0.00000
    215       4.3396      0.00000
    216       4.3400      0.00000
    217       4.7932      0.00000
    218       4.8202      0.00000
    219       5.0113      0.00000
    220       5.0292      0.00000
    221       5.0446      0.00000
    222       5.0746      0.00000
    223       5.1211      0.00000
    224       5.1215      0.00000
    225       5.1224      0.00000
    226       5.1718      0.00000
    227       5.1729      0.00000
    228       5.2855      0.00000
    229       5.4708      0.00000
    230       5.9332      0.00000
    231       6.2904      0.00000
    232       6.3209      0.00000
    233       6.6323      0.00000
    234       6.6728      0.00000
    235       6.7264      0.00000
    236       6.7301      0.00000
    237       6.7721      0.00000
    238       6.9298      0.00000
    239       6.9609      0.00000
    240       7.0023      0.00000
    241       7.0535      0.00000
    242       7.0552      0.00000
    243       7.0556      0.00000
    244       7.3107      0.00000
    245       7.3460      0.00000
    246       7.3477      0.00000
    247       7.3720      0.00000
    248       7.3978      0.00000
    249       7.4165      0.00000
    250       7.4211      0.00000
    251       7.6756      0.00000
    252       7.6940      0.00000

 k-point     2 :       0.1250   -0.0000    0.0000
  band No.  band energies     occupation 
      1      -7.5505      2.00000
      2      -6.1240      2.00000
      3      -5.2651      2.00000
      4      -4.9944      2.00000
      5      -4.9731      2.00000
      6      -4.9436      2.00000
      7      -4.9172      2.00000
      8      -4.9121      2.00000
      9      -4.9112      2.00000
     10      -4.8930      2.00000
     11      -4.8880      2.00000
     12      -4.8797      2.00000
     13      -4.8737      2.00000
     14      -4.8148      2.00000
     15      -4.8102      2.00000
     16      -4.7982      2.00000
     17      -4.7843      2.00000
     18      -4.7674      2.00000
     19      -4.7492      2.00000
     20      -4.7489      2.00000
     21      -4.6451      2.00000
     22      -4.6385      2.00000
     23      -4.5953      2.00000
     24      -4.5827      2.00000
     25      -4.5732      2.00000
     26      -4.5673      2.00000
     27      -4.5183      2.00000
     28      -4.5173      2.00000
     29      -4.4807      2.00000
     30      -4.4700      2.00000
     31      -4.4374      2.00000
     32      -4.4326      2.00000
     33      -4.4304      2.00000
     34      -4.3813      2.00000
     35      -4.3663      2.00000
     36      -4.3608      2.00000
     37      -4.3331      2.00000
     38      -4.3303      2.00000
     39      -4.2374      2.00000
     40      -4.2058      2.00000
     41      -4.2034      2.00000
     42      -4.1876      2.00000
     43      -4.1852      2.00000
     44      -4.1726      2.00000
     45      -4.1417      2.00000
     46      -4.1330      2.00000
     47      -4.1183      2.00000
     48      -4.1127      2.00000
     49      -4.0700      2.00000
     50      -4.0407      2.00000
     51      -4.0197      2.00000
     52      -3.9583      2.00000
     53      -3.9519      2.00000
     54      -3.9263      2.00000
     55      -3.9164      2.00000
     56      -3.7590      2.00000
     57      -3.7488      2.00000
     58      -3.7467      2.00000
     59      -3.7289      2.00000
     60      -3.7225      2.00000
     61      -3.7131      2.00000
     62      -3.7103      2.00000
     63      -3.6948      2.00000
     64      -3.6809      2.00000
     65      -3.6783      2.00000
     66      -3.6469      2.00000
     67      -3.6075      2.00000
     68      -3.5858      2.00000
     69      -3.5829      2.00000
     70      -3.5772      2.00000
     71      -3.5748      2.00000
     72      -3.5465      2.00000
     73      -3.5399      2.00000
     74      -3.5374      2.00000
     75      -3.5296      2.00000
     76      -3.5229      2.00000
     77      -3.5151      2.00000
     78      -3.4946      2.00000
     79      -3.4928      2.00000
     80      -3.4791      2.00000
     81      -3.4767      2.00000
     82      -3.4542      2.00000
     83      -3.4527      2.00000
     84      -3.4336      2.00000
     85      -3.4166      2.00000
     86      -3.4060      2.00000
     87      -3.4025      2.00000
     88      -3.3919      2.00000
     89      -3.3525      2.00000
     90      -3.3497      2.00000
     91      -3.3032      2.00000
     92      -3.2950      2.00000
     93      -3.2654      2.00000
     94      -3.2479      2.00000
     95      -3.1972      2.00000
     96      -3.1680      2.00000
     97      -3.1593      2.00000
     98      -3.1361      2.00000
     99      -3.1286      2.00000
    100      -3.0900      2.00000
    101      -3.0727      2.00000
    102      -3.0546      2.00000
    103      -3.0521      2.00000
    104      -3.0221      2.00000
    105      -3.0044      2.00000
    106      -3.0013      2.00000
    107      -2.9772      2.00000
    108      -2.9566      2.00000
    109      -2.9286      2.00000
    110      -2.9193      2.00000
    111      -2.9038      2.00000
    112      -2.8882      2.00000
    113      -2.8413      2.00000
    114      -2.8379      2.00000
    115      -2.8197      2.00000
    116      -2.8038      2.00000
    117      -2.7923      2.00000
    118      -2.7663      2.00000
    119      -2.7603      2.00000
    120      -2.7448      2.00000
    121      -2.7401      2.00000
[...]
  0.000   0.000   0.000   0.000   0.000   0.000   0.000   0.000   0.000   0.000   0.000   0.000   0.000   0.000   0.000   0.000
  0.000   0.000   0.000   0.000   0.000   0.000   0.000   0.000   0.000   0.000   0.000   0.000   0.000   0.000   0.000   0.000
  0.000   0.000   0.000   0.000   0.000   0.000   0.000   0.000   0.000   0.000   1.000   0.000   0.000   0.000   0.000   0.000
  0.000   0.000   0.000   0.000   0.000   0.000   0.000   0.000   0.000   0.000   0.000   0.000   0.000   0.000   0.000   0.000
  0.000   0.000   0.000   0.000   0.000   0.000   0.000   0.000   0.000   0.000   0.000   0.000   0.000   0.000   0.000   0.000
  0.000   0.000   0.000   0.000   0.000   0.000   0.000   0.000   0.000   0.000   0.000   0.000   0.000   0.000   0.000   0.000
  0.000   0.000   0.000   0.000   0.000   0.000   0.000   0.000   0.000   0.000   0.000   0.000   0.000   0.000   0.000   0.000
  0.000   0.000   0.000   0.000   0.000   0.000   0.000   0.000   0.000   0.000   0.000   0.000   0.000   0.000   0.000   0.000
  0.000   0.000   0.000   0.000   0.000   0.000   0.000   0.000   0.000   0.000   0.000   0.000   0.000   0.000   0.000   0.000
  0.000   0.000   0.000   0.000   0.000   0.000   0.000   0.000   0.000   0.000   0.000   0.000   0.000   0.000   0.000   0.000


------------------------ aborting loop because EDIFF is reached ----------------------------------------





 total charge

# of ion       s       p       d       tot
------------------------------------------
    1        0.414   0.204   9.177   9.795
    2        0.418   0.203   9.177   9.798
    3        0.418   0.203   9.177   9.798
    4        0.418   0.203   9.177   9.799
    5        0.416   0.204   9.176   9.796
    6        0.418   0.203   9.177   9.799
    7        0.418   0.203   9.177   9.798
    8        0.418   0.203   9.177   9.798
    9        0.415   0.204   9.177   9.797
   10        0.406   0.269   9.164   9.838
   11        0.409   0.267   9.166   9.843
   12        0.406   0.269   9.164   9.838
   13        0.409   0.268   9.166   9.843
   14        0.409   0.268   9.166   9.843
   15        0.401   0.272   9.165   9.837
   16        0.406   0.269   9.164   9.838
   17        0.401   0.271   9.165   9.837
   18        0.401   0.271   9.165   9.837
   19        0.405   0.266   9.168   9.838
   20        0.418   0.290   9.152   9.860
   21        0.418   0.290   9.152   9.860
   22        0.401   0.275   9.165   9.840
   23        0.417   0.291   9.152   9.860
   24        0.401   0.275   9.165   9.840
   25        0.404   0.266   9.168   9.838
   26        0.404   0.266   9.168   9.838
   27        0.401   0.275   9.165   9.840
   28        0.414   0.197   9.179   9.790
   29        0.415   0.202   9.181   9.798
   30        0.415   0.202   9.181   9.798
   31        0.413   0.207   9.178   9.798
   32        0.413   0.207   9.178   9.798
   33        0.415   0.202   9.182   9.799
   34        0.415   0.202   9.182   9.799
   35        0.413   0.196   9.181   9.790
   36        0.390   0.392   8.439   9.221
   37        0.543   0.032   0.000   0.576
   38        0.543   0.032   0.000   0.576
--------------------------------------------------
tot         15.860   8.818 329.412 354.090
 
    CHARGE:  cpu time    0.6701: real time    0.6702
    FORLOC:  cpu time    0.0103: real time    0.0103
    FORNL :  cpu time    3.0410: real time    3.0412
    STRESS:  cpu time    9.1141: real time    9.1142
    FORCOR:  cpu time    0.0410: real time    0.0412
    FORHAR:  cpu time    0.0167: real time    0.0167
    OFIELD:  cpu time    0.0002: real time    0.0002

  FORCE on cell =-STRESS in cart. coord.  units (eV):
  Direction    XX          YY          ZZ          XY          YZ          ZX
  --------------------------------------------------------------------------------------
  Alpha Z   738.73103   738.73103   738.73103
  Ewald  122462.73725122436.49221************     0.00003     0.02962     0.00000
  Hartree132800.01612132793.47300************     0.00001     0.01388     0.00000
  E(xc)   -2090.31741 -2090.60342 -2095.67402    -0.00002     0.00052    -0.00000
  Local  ************************266629.47785     0.00050    -0.06872    -0.00005
  n-local  -336.94421  -336.33646  -342.35000     2.39246    -0.00812     0.08921
  augment  3398.59080  3400.37945  3400.40160    -0.00034     0.02656    -0.00001
  Kinetic  4862.17686  4867.89459  4883.93481     1.14818     0.01631     0.04485
  Fock        0.00000     0.00000     0.00000     0.00000     0.00000     0.00000
  -------------------------------------------------------------------------------------
  Total      -8.71756    -8.52542    -0.92635    -0.00000     0.01005     0.00000
  in kB      -9.40887    -9.20149    -0.99981    -0.00000     0.01085     0.00000
  external pressure =       -6.54 kB  Pullay stress =        0.00 kB


 VOLUME and BASIS-vectors are now :
 -----------------------------------------------------------------------------
  energy-cutoff  :      500.00
  volume of cell :     1484.46
      direct lattice vectors                 reciprocal lattice vectors
     8.791366577  0.000000000  0.000000000     0.113747958 -0.065672414  0.000000000
     4.395683289  7.613546790  0.000000000     0.000000000  0.131344829  0.000000000
     0.000000000  0.000000000 22.178121567     0.000000000  0.000000000  0.045089481

  length of vectors
     8.791366577  8.791366577 22.178121567     0.131344829  0.131344829  0.045089481


 FORCES acting on ions
    electron-ion (+dipol)            ewald-force                    non-local-force                 convergence-correction
 -----------------------------------------------------------------------------------------------
   0.458E-04 -.177E-01 0.251E+04   -.954E-04 -.250E-02 -.251E+04   0.492E-13 0.750E-02 -.226E+01   -.132E-03 0.135E-01 0.294E-01
   0.487E+00 0.486E+00 0.251E+04   -.574E+00 -.542E+00 -.251E+04   0.144E-01 -.282E-01 -.162E+01   0.750E-01 0.940E-01 0.141E-01
   -.487E+00 0.486E+00 0.251E+04   0.574E+00 -.542E+00 -.251E+04   -.144E-01 -.282E-01 -.162E+01   -.755E-01 0.960E-01 0.148E-01
   0.711E+00 0.219E+00 0.251E+04   -.754E+00 -.227E+00 -.251E+04   -.291E-01 0.213E-01 -.162E+01   0.842E-01 -.153E-01 0.418E-02
   -.780E-05 0.426E-01 0.252E+04   0.981E-04 0.680E-04 -.251E+04   -.112E-12 -.171E-01 -.160E+01   0.631E-02 -.240E-01 -.211E-01
   -.711E+00 0.219E+00 0.251E+04   0.754E+00 -.227E+00 -.251E+04   0.291E-01 0.213E-01 -.162E+01   -.857E-01 -.143E-01 0.515E-02
   0.159E+00 -.708E+00 0.251E+04   -.180E+00 0.769E+00 -.251E+04   -.276E-01 0.782E-02 -.162E+01   0.573E-01 -.787E-01 0.341E-02
   -.159E+00 -.708E+00 0.251E+04   0.180E+00 0.769E+00 -.251E+04   0.276E-01 0.782E-02 -.162E+01   -.556E-01 -.798E-01 0.366E-02
   0.363E-04 -.989E-02 0.251E+04   0.792E-04 0.242E-02 -.251E+04   -.124E-13 -.189E-02 -.193E+01   -.670E-02 0.888E-02 0.778E-01
   0.518E+01 0.303E+01 0.850E+03   -.486E+01 -.283E+01 -.849E+03   -.313E+00 -.192E+00 -.727E+00   0.211E-01 0.295E-02 0.750E-01
   -.294E-04 0.570E+01 0.860E+03   0.419E-04 -.587E+01 -.859E+03   0.401E-12 0.610E-01 -.580E+00   0.643E-02 0.801E-01 0.739E-01
   -.518E+01 0.303E+01 0.850E+03   0.486E+01 -.283E+01 -.849E+03   0.313E+00 -.192E+00 -.727E+00   -.230E-01 0.446E-02 0.756E-01
   0.489E+01 -.281E+01 0.860E+03   -.507E+01 0.294E+01 -.859E+03   0.607E-01 -.441E-01 -.583E+00   0.876E-01 -.686E-01 0.739E-01
   -.489E+01 -.281E+01 0.860E+03   0.507E+01 0.294E+01 -.859E+03   -.607E-01 -.441E-01 -.583E+00   -.766E-01 -.693E-01 0.741E-01
   0.166E-04 0.129E+01 0.851E+03   -.109E-03 -.129E+01 -.851E+03   -.162E-13 -.246E-02 -.600E+00   -.206E-02 -.680E-02 0.399E-01
   -.815E-05 -.603E+01 0.850E+03   0.208E-04 0.562E+01 -.849E+03   0.238E-11 0.363E+00 -.724E+00   0.333E-03 0.795E-02 0.762E-01
   0.109E+01 -.706E+00 0.851E+03   -.113E+01 0.659E+00 -.851E+03   -.385E-02 0.218E-01 -.609E+00   0.240E-01 0.302E-01 0.372E-01
   -.109E+01 -.706E+00 0.851E+03   0.113E+01 0.659E+00 -.851E+03   0.385E-02 0.218E-01 -.609E+00   -.242E-01 0.325E-01 0.376E-01
   0.434E-04 0.345E+01 -.849E+03   -.129E-03 -.350E+01 0.848E+03   0.270E-12 0.411E-01 0.654E+00   -.210E-02 -.135E-02 -.667E-01
   0.353E+02 0.206E+02 -.799E+03   -.345E+02 -.201E+02 0.800E+03   -.891E+00 -.535E+00 -.998E+00   0.100E+00 0.423E-01 -.181E-01
   -.353E+02 0.206E+02 -.799E+03   0.345E+02 -.201E+02 0.800E+03   0.891E+00 -.535E+00 -.998E+00   -.892E-01 0.435E-01 -.181E-01
   0.131E+02 -.771E+01 -.835E+03   -.134E+02 0.786E+01 0.835E+03   0.245E+00 -.132E+00 0.609E+00   0.330E-01 -.304E-01 -.493E-01
   -.623E-04 -.409E+02 -.799E+03   0.472E-04 0.400E+02 0.800E+03   0.667E-11 0.102E+01 -.977E+00   0.682E-02 -.109E+00 -.691E-02
   -.131E+02 -.771E+01 -.835E+03   0.134E+02 0.786E+01 0.835E+03   -.245E+00 -.132E+00 0.609E+00   -.347E-01 -.313E-01 -.484E-01
   -.293E+01 -.164E+01 -.849E+03   0.297E+01 0.166E+01 0.849E+03   -.309E-01 -.266E-01 0.709E+00   -.673E-03 0.146E-01 -.737E-01
   0.293E+01 -.164E+01 -.849E+03   -.297E+01 0.166E+01 0.849E+03   0.309E-01 -.266E-01 0.709E+00   0.482E-03 0.120E-01 -.737E-01
   0.205E-04 0.152E+02 -.836E+03   0.110E-03 -.155E+02 0.835E+03   0.171E-11 0.260E+00 0.592E+00   -.596E-03 0.649E-01 -.722E-01
   0.548E-04 0.405E+00 -.252E+04   -.115E-03 -.409E+00 0.252E+04   -.173E-12 -.263E-01 0.179E+01   -.128E-02 0.240E-01 0.134E-01
   0.246E+02 0.435E+02 -.252E+04   -.244E+02 -.433E+02 0.252E+04   -.292E+00 -.398E+00 0.220E+01   0.264E-01 0.124E+00 -.506E-01
   -.246E+02 0.435E+02 -.252E+04   0.244E+02 -.433E+02 0.252E+04   0.292E+00 -.398E+00 0.220E+01   -.163E-01 0.127E+00 -.510E-01
   0.515E+02 0.277E+00 -.252E+04   -.511E+02 -.191E+00 0.252E+04   -.562E+00 -.166E-01 0.212E+01   0.978E-01 -.545E-01 -.374E-01
   -.515E+02 0.277E+00 -.252E+04   0.511E+02 -.191E+00 0.252E+04   0.562E+00 -.166E-01 0.212E+01   -.995E-01 -.537E-01 -.385E-01
   0.242E+02 -.437E+02 -.252E+04   -.241E+02 0.435E+02 0.252E+04   -.257E+00 0.416E+00 0.221E+01   0.802E-01 -.713E-01 -.464E-01
   -.242E+02 -.437E+02 -.252E+04   0.241E+02 0.435E+02 0.252E+04   0.257E+00 0.416E+00 0.221E+01   -.682E-01 -.730E-01 -.472E-01
   0.235E-04 -.421E+00 -.252E+04   0.106E-03 0.400E+00 0.251E+04   0.258E-12 0.393E-01 0.183E+01   -.794E-02 -.150E-01 -.479E-01
   -.466E-04 -.605E-01 -.210E+04   0.957E-04 0.658E-01 0.210E+04   0.413E-13 0.628E-02 0.316E+01   0.990E-02 -.858E-02 -.576E-01
   0.211E+02 0.668E-03 -.300E+03   -.243E+02 -.166E-02 0.302E+03   0.317E+01 0.598E-03 -.125E+01   0.113E-01 -.958E-03 -.172E-01
   -.211E+02 0.672E-03 -.300E+03   0.243E+02 -.167E-02 0.302E+03   -.317E+01 0.598E-03 -.125E+01   -.111E-01 -.947E-03 -.173E-01
 -----------------------------------------------------------------------------------------------
   0.322E-03 0.477E-01 0.315E+01   0.178E-13 -.103E-12 -.591E-11   -.419E-12 -.638E-01 -.296E+01   0.474E-01 0.170E-01 -.130E+00
 
 
 POSITION                                       TOTAL-FORCE (eV/Angst)
 -----------------------------------------------------------------------------------
      0.00000      0.00000      5.28219         0.000000      0.000783      0.053732
      2.93046      0.00000      5.28219         0.002411      0.011005      0.036135
      5.86091      0.00000      5.28219        -0.002411      0.011005      0.036135
      1.46523      2.53785      5.28219         0.012540     -0.002217      0.038139
      4.39568      2.53785      5.28219         0.000000      0.001586      0.012009
      7.32614      2.53785      5.28219        -0.012540     -0.002217      0.038139
      2.93046      5.07570      5.28219         0.007671     -0.010229      0.038309
      5.86091      5.07570      5.28219        -0.007671     -0.010229      0.038309
      8.79137      5.07570      5.28219        -0.000000     -0.000503      0.039980
      1.46523      0.84595      7.67490         0.029824      0.017996     -0.007732
      4.39568      0.84595      7.67490        -0.000000     -0.034243     -0.091590
      7.32614      0.84595      7.67490        -0.029824      0.017996     -0.007732
      2.93046      3.38380      7.67490        -0.031966      0.018451     -0.090980
      5.86091      3.38380      7.67490         0.031966      0.018451     -0.090980
      8.79137      3.38380      7.67490        -0.000000     -0.014249     -0.003422
      4.39568      5.92165      7.67490        -0.000000     -0.036711     -0.007625
      7.32614      5.92165      7.67490        -0.014555      0.005978     -0.002382
     10.25659      5.92165      7.67490         0.014555      0.005978     -0.002382
      8.79137      1.69533     10.05818        -0.000000     -0.008182      0.000158
      2.93805      1.69629     10.04232         0.019216      0.010686     -0.063593
      5.85331      1.69629     10.04232        -0.019216      0.010686     -0.063593
     10.25424      4.23111     10.04634         0.024114     -0.016716      0.007023
      4.39568      4.22098     10.04232        -0.000000     -0.019792     -0.066778
      7.32849      4.23111     10.04634        -0.024114     -0.016716      0.007023
     11.71886      6.76588     10.05818         0.010365      0.003359     -0.001832
      5.86388      6.76588     10.05818        -0.010365      0.003359     -0.001832
      8.79137      6.76488     10.04634         0.000000      0.031950      0.012721
      0.00000      0.00000     12.42348        -0.000000     -0.006605     -0.002380
      2.96241      0.05505     12.41819        -0.069292     -0.136223     -0.060674
      5.82895      0.05505     12.41819         0.069292     -0.136223     -0.060674
      1.52888      2.53800     12.41819        -0.109838      0.015154     -0.034658
      7.26249      2.53800     12.41819         0.109838      0.015154     -0.034658
      2.96215      5.02050     12.41819        -0.093682      0.123575     -0.058690
      5.82922      5.02050     12.41819         0.093682      0.123575     -0.058690
      8.79137      5.07570     12.42030         0.000000      0.004079      0.008045
      4.39568      2.53785     12.13895         0.000000      0.002993      0.483529
      3.95374      2.53689     13.67425        -0.011739     -0.001372     -0.018256
      4.83762      2.53689     13.67425         0.011739     -0.001372     -0.018256
 -----------------------------------------------------------------------------------
    total drift:                                0.047729      0.000887      0.064401


--------------------------------------------------------------------------------------------------------



  FREE ENERGIE OF THE ION-ELECTRON SYSTEM (eV)
  ---------------------------------------------------
  free  energy   TOTEN  =      -100.68878694 eV

  energy  without entropy=     -100.68878694  energy(sigma->0) =     -100.68878694
 


--------------------------------------------------------------------------------------------------------


    POTLOK:  cpu time    0.0441: real time    0.0441


--------------------------------------------------------------------------------------------------------


 stress matrix after NEB project (eV)
     -8.71756     -0.00000      0.00000
     -0.00000     -8.52542      0.01005
      0.00000      0.01005     -0.92635
  FORCES: max atom, RMS     0.021748    0.004989
  FORCE total and by dimension    0.030756    0.018256
  Stress total and by dimension   12.228531    8.717564
     LOOP+:  cpu time  143.7113: real time  143.7233
 -----------------------------------------------------------------------------
|                                                                             |
|           W    W    AA    RRRRR   N    N  II  N    N   GGGG   !!!           |
|           W    W   A  A   R    R  NN   N  II  NN   N  G    G  !!!           |
|           W    W  A    A  R    R  N N  N  II  N N  N  G       !!!           |
|           W WW W  AAAAAA  RRRRR   N  N N  II  N  N N  G  GGG   !            |
|           WW  WW  A    A  R   R   N   NN  II  N   NN  G    G                |
|           W    W  A    A  R    R  N    N  II  N    N   GGGG   !!!           |
|                                                                             |
|     Tetrahedron method does not include variations of the Fermi             |
|     occupations, so forces and stress will be inaccurate. We suggest        |
|     using a different smearing scheme ISMEAR = 1 or 2 for metals in         |
|     relaxations.                                                            |
|                                                                             |
 -----------------------------------------------------------------------------

    4ORBIT:  cpu time    0.0000: real time    0.0000



 total charge

# of ion       s       p       d       tot
------------------------------------------
    1        0.414   0.204   9.177   9.795
    2        0.418   0.203   9.177   9.798
    3        0.418   0.203   9.177   9.798
    4        0.418   0.203   9.177   9.799
    5        0.416   0.204   9.176   9.796
    6        0.418   0.203   9.177   9.799
    7        0.418   0.203   9.177   9.798
    8        0.418   0.203   9.177   9.798
    9        0.415   0.204   9.177   9.797
   10        0.406   0.269   9.164   9.838
   11        0.409   0.267   9.166   9.843
   12        0.406   0.269   9.164   9.838
   13        0.409   0.268   9.166   9.843
   14        0.409   0.268   9.166   9.843
   15        0.401   0.272   9.165   9.837
   16        0.406   0.269   9.164   9.838
   17        0.401   0.271   9.165   9.837
   18        0.401   0.271   9.165   9.837
   19        0.405   0.266   9.168   9.838
   20        0.418   0.290   9.152   9.860
   21        0.418   0.290   9.152   9.860
   22        0.401   0.275   9.165   9.840
   23        0.417   0.291   9.152   9.860
   24        0.401   0.275   9.165   9.840
   25        0.404   0.266   9.168   9.838
   26        0.404   0.266   9.168   9.838
   27        0.401   0.275   9.165   9.840
   28        0.414   0.197   9.179   9.790
   29        0.415   0.202   9.181   9.798
   30        0.415   0.202   9.181   9.798
   31        0.413   0.207   9.178   9.798
   32        0.413   0.207   9.178   9.798
   33        0.415   0.202   9.182   9.799
   34        0.415   0.202   9.182   9.799
   35        0.413   0.196   9.181   9.790
   36        0.390   0.392   8.439   9.221
   37        0.543   0.032   0.000   0.576
   38        0.543   0.032   0.000   0.576
--------------------------------------------------
tot         15.860   8.818 329.412 354.090
 
 BZINTS: Fermi energy:    0.928587;  397.000000 electrons
         Band energy:-0.124104E+04;  BLOECHL correction:   -0.055095

 total amount of memory used by VASP MPI-rank0   183880. kBytes
=======================================================================

   base      :      30000. kBytes
   nonlr-proj:      14912. kBytes
   fftplans  :       4330. kBytes
   grid      :      17879. kBytes
   one-center:        590. kBytes
   wavefun   :     116169. kBytes
 
  
  
 General timing and accounting informations for this job:
 ========================================================
  
                  Total CPU time used (sec):      157.397
                            User time (sec):      151.790
                          System time (sec):        5.607
                         Elapsed time (sec):      157.799
  
                   Maximum memory used (kb):      459160.
                   Average memory used (kb):          N/A
  
                          Minor page faults:        97806
                          Major page faults:            0
                 Voluntary context switches:         5362
