PROCAR new format
# of k-points:   10         # of bands:  252         # of ions:   38

 k-point     1 :    0.00000000 0.00000000 0.00000000     weight = 0.01562500

band     1 # energy  -16.95643871 # occ.  2.00000000
 
ion      s      p      d    tot
    1  0.000  0.000  0.000  0.000
    2  0.000  0.000  0.000  0.000
    3  0.000  0.000  0.000  0.000
    4  0.000  0.000  0.000  0.000
    5  0.000  0.000  0.000  0.000
    6  0.000  0.000  0.000  0.000
    7  0.000  0.000  0.000  0.000
    8  0.000  0.000  0.000  0.000
    9  0.000  0.000  0.000  0.000
   10  0.000  0.000  0.000  0.000
   11  0.000  0.000  0.000  0.000
   12  0.000  0.000  0.000  0.000
   13  0.000  0.000  0.000  0.000
   14  0.000  0.000  0.000  0.000
   15  0.000  0.000  0.000  0.000
   16  0.000  0.000  0.000  0.000
   17  0.000  0.000  0.000  0.000
   18  0.000  0.000  0.000  0.000
   19  0.000  0.000  0.000  0.000
   20  0.000  0.000  0.000  0.000
   21  0.000  0.000  0.000  0.000
   22  0.000  0.000  0.000  0.000
   23  0.000  0.000  0.000  0.000
   24  0.000  0.000  0.000  0.000
   25  0.000  0.000  0.000  0.000
   26  0.000  0.000  0.000  0.000
   27  0.000  0.000  0.000  0.000
   28  0.000  0.000  0.000  0.000
   29  0.000  0.000  0.000  0.000
   30  0.000  0.000  0.000  0.000
   31  0.000  0.000  0.000  0.000
   32  0.000  0.000  0.000  0.000
   33  0.000  0.000  0.000  0.000
   34  0.000  0.000  0.000  0.000
   35  0.000  0.000  0.000  0.000
   36  0.051  0.059  0.100  0.211
   37  0.000  0.000  0.000  0.000
   38  0.785  0.007  0.000  0.792
tot    0.837  0.065  0.101  1.003
 
band     2 # energy  -10.04512562 # occ.  2.00000000
 
ion      s      p      d    tot
    1  0.001  0.000  0.000  0.001
    2  0.003  0.000  0.000  0.004
    3  0.003  0.000  0.000  0.004
    4  0.003  0.000  0.000  0.004
    5  0.096  0.041  0.088  0.225
    6  0.003  0.000  0.000  0.004
    7  0.003  0.000  0.000  0.004
    8  0.003  0.000  0.000  0.004
    9  0.001  0.000  0.000  0.001
   10  0.001  0.000  0.000  0.001
   11  0.002  0.000  0.000  0.003
   12  0.001  0.000  0.000  0.001
   13  0.002  0.000  0.000  0.003
   14  0.002  0.000  0.000  0.003
   15  0.001  0.000  0.000  0.001
   16  0.001  0.000  0.000  0.001
   17  0.001  0.000  0.000  0.001
   18  0.001  0.000  0.000  0.001
   19  0.000  0.000  0.000  0.000
   20  0.000  0.000  0.000  0.000
   21  0.000  0.000  0.000  0.000
   22  0.000  0.000  0.000  0.000
   23  0.000  0.000  0.000  0.000
   24  0.000  0.000  0.000  0.000
   25  0.000  0.000  0.000  0.000
   26  0.000  0.000  0.000  0.000
   27  0.000  0.000  0.000  0.000
   28  0.000  0.000  0.000  0.000
   29  0.000  0.000  0.000  0.000
   30  0.000  0.000  0.000  0.000
   31  0.000  0.000  0.000  0.000
   32  0.000  0.000  0.000  0.000
   33  0.000  0.000  0.000  0.000
   34  0.000  0.000  0.000  0.000
   35  0.000  0.000  0.000  0.000
   36  0.000  0.000  0.000  0.000
   37  0.383  0.025  0.000  0.408
   38  0.000  0.000  0.000  0.000
tot    0.514  0.070  0.091  0.675
 
band     3 # energy   -8.97542381 # occ.  2.00000000
 
ion      s      p      d    tot
    1  0.005  0.001  0.000  0.006
    2  0.004  0.001  0.000  0.005
    3  0.004  0.001  0.000  0.005
    4  0.004  0.001  0.000  0.005
    5  0.000  0.005  0.005  0.011
    6  0.004  0.001  0.000  0.005
    7  0.004  0.001  0.000  0.005
    8  0.004  0.001  0.000  0.005
    9  0.005  0.001  0.000  0.006
   10  0.024  0.000  0.000  0.024
   11  0.022  0.000  0.000  0.022
   12  0.024  0.000  0.000  0.024
   13  0.022  0.000  0.000  0.022
   14  0.022  0.000  0.000  0.022
   15  0.023  0.000  0.000  0.024
   16  0.024  0.000  0.000  0.024
   17  0.023  0.000  0.000  0.024
   18  0.023  0.000  0.000  0.024
   19  0.027  0.000  0.000  0.027
   20  0.025  0.000  0.000  0.025
   21  0.025  0.000  0.000  0.025
   22  0.026  0.000  0.000  0.026
   23  0.025  0.000  0.000  0.025
   24  0.026  0.000  0.000  0.026
   25  0.027  0.000  0.000  0.027
   26  0.027  0.000  0.000  0.027
   27  0.026  0.000  0.000  0.026
   28  0.008  0.001  0.000  0.009
   29  0.007  0.001  0.000  0.008
   30  0.007  0.001  0.000  0.008
   31  0.007  0.001  0.000  0.008
   32  0.007  0.001  0.000  0.008
   33  0.007  0.001  0.000  0.008
   34  0.007  0.001  0.000  0.008
   35  0.007  0.001  0.000  0.008
   36  0.007  0.002  0.000  0.009
   37  0.018  0.001  0.000  0.019
   38  0.000  0.000  0.000  0.000
tot    0.558  0.025  0.007  0.589
 
band     4 # energy   -7.64695827 # occ.  2.00000000
 
ion      s      p      d    tot
    1  0.018  0.001  0.000  0.020
    2  0.016  0.001  0.000  0.018
    3  0.016  0.001  0.000  0.018
    4  0.016  0.001  0.000  0.018
    5  0.006  0.005  0.012  0.023
    6  0.016  0.001  0.000  0.018
    7  0.016  0.001  0.000  0.018
    8  0.016  0.001  0.000  0.018
    9  0.018  0.001  0.000  0.019
   10  0.012  0.002  0.001  0.015
   11  0.011  0.002  0.001  0.013
   12  0.012  0.002  0.001  0.015
   13  0.011  0.002  0.001  0.013
   14  0.011  0.002  0.001  0.013
   15  0.012  0.002  0.001  0.014
   16  0.012  0.002  0.001  0.015
   17  0.012  0.002  0.001  0.014
   18  0.012  0.002  0.001  0.014
   19  0.010  0.003  0.001  0.013
   20  0.008  0.002  0.001  0.011
   21  0.008  0.002  0.001  0.011
   22  0.010  0.002  0.001  0.013
   23  0.008  0.002  0.001  0.011
   24  0.010  0.002  0.001  0.013
   25  0.010  0.003  0.001  0.013
   26  0.010  0.003  0.001  0.013
   27  0.010  0.002  0.001  0.013
   28  0.020  0.001  0.001  0.022
   29  0.018  0.001  0.001  0.020
   30  0.018  0.001  0.001  0.020
   31  0.018  0.001  0.001  0.020
   32  0.018  0.001  0.001  0.020
   33  0.018  0.001  0.001  0.020
   34  0.018  0.001  0.001  0.020
   35  0.020  0.001  0.001  0.021
   36  0.015  0.002  0.001  0.018
   37  0.012  0.000  0.000  0.013
   38  0.001  0.000  0.000  0.001
tot    0.501  0.062  0.033  0.596
 
band     5 # energy   -6.11884866 # occ.  2.00000000
 
ion      s      p      d    tot
    1  0.022  0.000  0.004  0.026
    2  0.013  0.000  0.005  0.019
    3  0.013  0.000  0.005  0.019
    4  0.013  0.000  0.005  0.019
    5  0.001  0.001  0.039  0.040
    6  0.013  0.000  0.005  0.019
    7  0.013  0.000  0.005  0.019
    8  0.013  0.000  0.005  0.019
    9  0.021  0.000  0.003  0.024
   10  0.000  0.004  0.003  0.007
   11  0.020  0.005  0.001  0.026
   12  0.000  0.004  0.003  0.007
   13  0.020  0.005  0.001  0.027
   14  0.020  0.005  0.001  0.026
   15  0.000  0.002  0.005  0.007
   16  0.000  0.004  0.003  0.007
   17  0.000  0.002  0.005  0.007
   18  0.000  0.002  0.005  0.007
   19  0.000  0.002  0.006  0.008
   20  0.021  0.005  0.001  0.028
   21  0.021  0.005  0.001  0.028
   22  0.001  0.004  0.004  0.009
   23  0.021  0.005  0.001  0.028
   24  0.001  0.004  0.004  0.009
   25  0.000  0.002  0.006  0.008
   26  0.000  0.002  0.006  0.008
   27  0.001  0.004  0.004  0.009
   28  0.025  0.000  0.003  0.029
   29  0.012  0.001  0.007  0.019
   30  0.012  0.001  0.007  0.019
   31  0.012  0.001  0.007  0.019
   32  0.012  0.001  0.007  0.019
   33  0.012  0.001  0.007  0.019
   34  0.012  0.001  0.007  0.019
   35  0.020  0.000  0.005  0.024
   36  0.001  0.001  0.010  0.012
   37  0.000  0.001  0.000  0.001
   38  0.000  0.001  0.000  0.001
tot    0.367  0.075  0.201  0.643
 
band     6 # energy   -6.04949797 # occ.  2.00000000
 
ion      s      p      d    tot
    1  0.000  0.003  0.005  0.008
    2  0.010  0.003  0.002  0.015
    3  0.002  0.001  0.002  0.005
    4  0.010  0.003  0.002  0.015
    5  0.000  0.003  0.010  0.013
    6  0.003  0.001  0.002  0.007
    7  0.002  0.001  0.002  0.005
    8  0.003  0.001  0.002  0.007
    9  0.000  0.000  0.002  0.002
   10  0.059  0.004  0.003  0.066
   11  0.007  0.010  0.004  0.020
   12  0.014  0.002  0.013  0.029
   13  0.006  0.010  0.003  0.020
   14  0.027  0.000  0.007  0.034
   15  0.002  0.005  0.007  0.014
   16  0.016  0.002  0.012  0.030
   17  0.001  0.005  0.008  0.014
   18  0.006  0.003  0.003  0.012
   19  0.008  0.010  0.004  0.021
   20  0.060  0.004  0.004  0.068
   21  0.014  0.002  0.014  0.030
   22  0.001  0.005  0.007  0.014
   23  0.016  0.002  0.014  0.032
   24  0.005  0.003  0.003  0.012
   25  0.030  0.000  0.007  0.037
   26  0.007  0.010  0.004  0.021
   27  0.001  0.005  0.007  0.014
   28  0.000  0.003  0.004  0.007
   29  0.011  0.003  0.003  0.016
   30  0.004  0.002  0.003  0.008
   31  0.011  0.003  0.003  0.016
   32  0.001  0.001  0.003  0.005
   33  0.004  0.002  0.003  0.009
   34  0.002  0.001  0.003  0.005
   35  0.000  0.000  0.003  0.003
   36  0.000  0.004  0.006  0.010
   37  0.000  0.000  0.000  0.000
   38  0.000  0.000  0.000  0.000
tot    0.343  0.116  0.184  0.643
 
band     7 # energy   -6.04945563 # occ.  2.00000000
 
ion      s      p      d    tot
    1  0.000  0.003  0.005  0.008
    2  0.000  0.001  0.002  0.003
    3  0.008  0.002  0.003  0.013
    4  0.000  0.001  0.002  0.003
    5  0.000  0.003  0.010  0.013
    6  0.007  0.002  0.002  0.011
    7  0.008  0.002  0.002  0.013
    8  0.006  0.002  0.002  0.010
    9  0.000  0.000  0.002  0.002
   10  0.000  0.002  0.016  0.017
   11  0.020  0.004  0.006  0.029
   12  0.045  0.004  0.006  0.055
   13  0.021  0.003  0.006  0.030
   14  0.000  0.013  0.003  0.016
   15  0.004  0.003  0.005  0.013
   16  0.043  0.004  0.007  0.053
   17  0.005  0.003  0.005  0.012
   18  0.000  0.005  0.009  0.014
   19  0.021  0.004  0.006  0.031
   20  0.000  0.002  0.017  0.019
   21  0.046  0.004  0.007  0.057
   22  0.004  0.003  0.005  0.012
   23  0.044  0.004  0.007  0.055
   24  0.000  0.006  0.009  0.015
   25  0.000  0.013  0.003  0.016
   26  0.022  0.003  0.006  0.031
   27  0.004  0.003  0.005  0.012
   28  0.000  0.003  0.004  0.007
   29  0.000  0.001  0.003  0.004
   30  0.007  0.002  0.003  0.012
   31  0.000  0.001  0.003  0.004
   32  0.010  0.002  0.003  0.015
   33  0.007  0.002  0.003  0.011
   34  0.009  0.002  0.003  0.014
   35  0.000  0.000  0.003  0.003
   36  0.000  0.004  0.006  0.010
   37  0.000  0.000  0.000  0.000
   38  0.000  0.000  0.000  0.000
tot    0.343  0.116  0.184  0.643
 
band     8 # energy   -6.03929897 # occ.  2.00000000
 
ion      s      p      d    tot
    1  0.000  0.001  0.002  0.003
    2  0.009  0.002  0.002  0.014
    3  0.001  0.001  0.002  0.004
    4  0.009  0.002  0.002  0.014
    5  0.000  0.001  0.011  0.012
    6  0.002  0.001  0.002  0.005
    7  0.003  0.001  0.002  0.007
    8  0.004  0.001  0.002  0.008
    9  0.000  0.003  0.005  0.008
   10  0.000  0.011  0.003  0.014
   11  0.022  0.003  0.007  0.032
   12  0.002  0.002  0.005  0.009
   13  0.030  0.004  0.004  0.038
   14  0.001  0.000  0.015  0.016
   15  0.032  0.004  0.007  0.043
   16  0.001  0.005  0.004  0.010
   17  0.045  0.003  0.006  0.054
   18  0.001  0.008  0.008  0.017
   19  0.022  0.003  0.008  0.033
   20  0.000  0.012  0.003  0.015
   21  0.002  0.002  0.005  0.010
   22  0.049  0.003  0.006  0.059
   23  0.001  0.005  0.005  0.011
   24  0.001  0.008  0.009  0.018
   25  0.001  0.000  0.016  0.017
   26  0.032  0.004  0.004  0.040
   27  0.035  0.005  0.007  0.046
   28  0.000  0.001  0.005  0.006
   29  0.012  0.003  0.003  0.017
   30  0.002  0.001  0.003  0.006
   31  0.012  0.003  0.003  0.018
   32  0.001  0.001  0.003  0.005
   33  0.005  0.002  0.003  0.010
   34  0.004  0.001  0.003  0.008
   35  0.000  0.004  0.006  0.010
   36  0.000  0.001  0.003  0.004
   37  0.000  0.000  0.000  0.000
   38  0.000  0.000  0.000  0.000
tot    0.343  0.115  0.183  0.642
 
band     9 # energy   -6.03923123 # occ.  2.00000000
 
ion      s      p      d    tot
    1  0.000  0.001  0.002  0.003
    2  0.000  0.001  0.002  0.003
    3  0.009  0.002  0.002  0.013
    4  0.000  0.001  0.002  0.003
    5  0.000  0.001  0.011  0.012
    6  0.008  0.002  0.002  0.012
    7  0.006  0.002  0.002  0.010
    8  0.005  0.002  0.002  0.009
    9  0.000  0.003  0.005  0.008
   10  0.002  0.001  0.005  0.008
   11  0.014  0.002  0.010  0.026
   12  0.000  0.010  0.003  0.013
   13  0.005  0.001  0.014  0.019
   14  0.035  0.004  0.003  0.042
   15  0.020  0.006  0.007  0.033
   16  0.001  0.007  0.004  0.012
   17  0.007  0.007  0.008  0.022
   18  0.052  0.002  0.006  0.059
   19  0.014  0.002  0.011  0.027
   20  0.003  0.001  0.006  0.009
   21  0.000  0.011  0.003  0.014
   22  0.008  0.007  0.008  0.024
   23  0.001  0.008  0.004  0.013
   24  0.055  0.002  0.006  0.064
   25  0.035  0.005  0.002  0.042
   26  0.005  0.001  0.014  0.021
   27  0.022  0.006  0.008  0.036
   28  0.000  0.001  0.005  0.006
   29  0.000  0.001  0.003  0.004
   30  0.010  0.002  0.003  0.015
   31  0.000  0.001  0.003  0.004
   32  0.011  0.003  0.003  0.016
   33  0.007  0.002  0.003  0.012
   34  0.008  0.002  0.003  0.013
   35  0.000  0.004  0.006  0.010
   36  0.000  0.001  0.003  0.004
   37  0.000  0.000  0.000  0.000
   38  0.000  0.000  0.000  0.000
tot    0.343  0.115  0.184  0.642
 
band    10 # energy   -6.03359231 # occ.  2.00000000
 
ion      s      p      d    tot
    1  0.013  0.003  0.002  0.017
    2  0.000  0.002  0.004  0.005
    3  0.000  0.002  0.004  0.005
    4  0.000  0.002  0.004  0.005
    5  0.001  0.000  0.000  0.001
    6  0.000  0.002  0.004  0.005
    7  0.000  0.002  0.004  0.005
    8  0.000  0.002  0.004  0.005
    9  0.014  0.002  0.000  0.016
   10  0.030  0.005  0.006  0.041
   11  0.002  0.001  0.011  0.014
   12  0.030  0.005  0.006  0.041
   13  0.002  0.001  0.011  0.013
   14  0.003  0.001  0.011  0.014
   15  0.013  0.008  0.003  0.024
   16  0.030  0.005  0.006  0.041
   17  0.013  0.008  0.003  0.024
   18  0.012  0.008  0.003  0.023
   19  0.023  0.010  0.002  0.035
   20  0.001  0.002  0.011  0.014
   21  0.001  0.002  0.012  0.014
   22  0.024  0.003  0.009  0.036
   23  0.001  0.002  0.012  0.014
   24  0.025  0.003  0.009  0.037
   25  0.024  0.010  0.002  0.035
   26  0.023  0.010  0.002  0.035
   27  0.024  0.003  0.009  0.036
   28  0.014  0.003  0.001  0.017
   29  0.000  0.002  0.005  0.007
   30  0.000  0.002  0.005  0.007
   31  0.000  0.002  0.005  0.007
   32  0.000  0.002  0.005  0.007
   33  0.000  0.002  0.005  0.007
   34  0.000  0.002  0.005  0.007
   35  0.021  0.003  0.000  0.024
   36  0.000  0.000  0.000  0.001
   37  0.000  0.000  0.000  0.000
   38  0.000  0.000  0.000  0.000
tot    0.345  0.115  0.181  0.641
 
band    11 # energy   -5.91248975 # occ.  2.00000000
 
ion      s      p      d    tot
    1  0.001  0.000  0.002  0.003
    2  0.004  0.001  0.006  0.012
    3  0.004  0.001  0.006  0.012
    4  0.004  0.001  0.006  0.012
    5  0.026  0.007  0.017  0.050
    6  0.004  0.001  0.006  0.012
    7  0.004  0.001  0.006  0.012
    8  0.004  0.001  0.006  0.012
    9  0.001  0.002  0.005  0.007
   10  0.003  0.004  0.008  0.015
   11  0.015  0.007  0.005  0.027
   12  0.003  0.004  0.008  0.015
   13  0.015  0.007  0.005  0.027
   14  0.015  0.007  0.005  0.027
   15  0.024  0.002  0.009  0.036
   16  0.003  0.004  0.008  0.015
   17  0.024  0.002  0.009  0.036
   18  0.024  0.002  0.009  0.036
   19  0.011  0.002  0.009  0.021
   20  0.014  0.004  0.007  0.025
   21  0.014  0.004  0.007  0.025
   22  0.009  0.006  0.004  0.020
   23  0.014  0.004  0.007  0.025
   24  0.009  0.006  0.004  0.020
   25  0.011  0.002  0.009  0.021
   26  0.011  0.002  0.009  0.021
   27  0.009  0.006  0.004  0.020
   28  0.001  0.000  0.005  0.006
   29  0.005  0.001  0.004  0.010
   30  0.005  0.001  0.004  0.010
   31  0.005  0.001  0.004  0.010
   32  0.005  0.001  0.004  0.010
   33  0.005  0.001  0.004  0.010
   34  0.005  0.001  0.004  0.010
   35  0.000  0.001  0.003  0.004
   36  0.022  0.003  0.000  0.026
   37  0.007  0.000  0.000  0.007
   38  0.001  0.001  0.000  0.002
tot    0.342  0.105  0.219  0.666
 
band    12 # energy   -5.34297783 # occ.  2.00000000
 
ion      s      p      d    tot
    1  0.006  0.000  0.006  0.012
    2  0.004  0.000  0.007  0.012
    3  0.004  0.000  0.007  0.012
    4  0.004  0.000  0.007  0.012
    5  0.000  0.002  0.071  0.073
    6  0.004  0.000  0.007  0.012
    7  0.004  0.000  0.007  0.012
    8  0.004  0.000  0.007  0.012
    9  0.006  0.000  0.005  0.011
   10  0.004  0.000  0.019  0.023
   11  0.012  0.001  0.022  0.035
   12  0.004  0.000  0.019  0.023
   13  0.012  0.001  0.022  0.035
   14  0.012  0.001  0.022  0.035
   15  0.003  0.000  0.017  0.020
   16  0.004  0.000  0.019  0.023
   17  0.003  0.000  0.017  0.020
   18  0.003  0.000  0.017  0.020
   19  0.002  0.000  0.019  0.022
   20  0.012  0.001  0.022  0.035
   21  0.012  0.001  0.022  0.035
   22  0.005  0.000  0.021  0.027
   23  0.012  0.001  0.022  0.035
   24  0.005  0.000  0.021  0.027
   25  0.002  0.000  0.019  0.022
   26  0.002  0.000  0.019  0.022
   27  0.005  0.000  0.021  0.027
   28  0.010  0.000  0.007  0.017
   29  0.004  0.001  0.009  0.014
   30  0.004  0.001  0.009  0.014
   31  0.004  0.001  0.009  0.014
   32  0.004  0.001  0.009  0.014
   33  0.004  0.001  0.009  0.014
   34  0.004  0.001  0.009  0.014
   35  0.008  0.000  0.007  0.016
   36  0.000  0.001  0.010  0.012
   37  0.001  0.002  0.000  0.003
   38  0.000  0.001  0.000  0.001
tot    0.193  0.020  0.570  0.782
 
band    13 # energy   -5.30150093 # occ.  2.00000000
 
ion      s      p      d    tot
    1  0.000  0.005  0.007  0.012
    2  0.018  0.004  0.006  0.028
    3  0.010  0.002  0.005  0.017
    4  0.020  0.004  0.006  0.030
    5  0.000  0.003  0.045  0.048
    6  0.000  0.002  0.005  0.008
    7  0.013  0.003  0.005  0.020
    8  0.002  0.002  0.006  0.009
    9  0.000  0.000  0.009  0.010
   10  0.022  0.005  0.006  0.033
   11  0.001  0.003  0.019  0.024
   12  0.004  0.001  0.018  0.024
   13  0.001  0.003  0.021  0.026
   14  0.005  0.001  0.006  0.012
   15  0.002  0.001  0.012  0.015
   16  0.007  0.002  0.016  0.025
   17  0.001  0.001  0.013  0.015
   18  0.006  0.002  0.008  0.017
   19  0.004  0.003  0.019  0.025
   20  0.017  0.005  0.009  0.031
   21  0.003  0.001  0.015  0.020
   22  0.000  0.002  0.015  0.017
   23  0.005  0.002  0.015  0.021
   24  0.000  0.000  0.008  0.008
   25  0.013  0.003  0.004  0.020
   26  0.003  0.002  0.021  0.026
   27  0.000  0.002  0.014  0.016
   28  0.000  0.005  0.009  0.015
   29  0.020  0.004  0.006  0.029
   30  0.008  0.002  0.006  0.017
   31  0.021  0.004  0.006  0.030
   32  0.001  0.002  0.006  0.009
   33  0.011  0.003  0.006  0.020
   34  0.003  0.002  0.006  0.011
   35  0.000  0.000  0.013  0.014
   36  0.000  0.005  0.006  0.012
   37  0.000  0.000  0.000  0.000
   38  0.000  0.000  0.000  0.000
tot    0.221  0.093  0.399  0.713
 
band    14 # energy   -5.30142570 # occ.  2.00000000
 
ion      s      p      d    tot
    1  0.000  0.005  0.007  0.012
    2  0.003  0.001  0.005  0.009
    3  0.011  0.003  0.006  0.020
    4  0.001  0.001  0.005  0.008
    5  0.000  0.003  0.045  0.048
    6  0.021  0.004  0.006  0.030
    7  0.009  0.003  0.006  0.017
    8  0.019  0.003  0.005  0.028
    9  0.000  0.000  0.009  0.010
   10  0.000  0.001  0.021  0.021
   11  0.003  0.002  0.012  0.017
   12  0.017  0.004  0.009  0.031
   13  0.004  0.002  0.010  0.015
   14  0.000  0.004  0.025  0.029
   15  0.004  0.002  0.010  0.016
   16  0.015  0.004  0.010  0.029
   17  0.005  0.002  0.009  0.016
   18  0.000  0.001  0.013  0.015
   19  0.009  0.003  0.011  0.022
   20  0.000  0.000  0.017  0.017
   21  0.014  0.004  0.010  0.028
   22  0.000  0.001  0.010  0.011
   23  0.012  0.003  0.011  0.027
   24  0.000  0.003  0.016  0.019
   25  0.000  0.002  0.025  0.028
   26  0.010  0.003  0.009  0.021
   27  0.000  0.001  0.010  0.012
   28  0.000  0.005  0.009  0.015
   29  0.001  0.002  0.006  0.009
   30  0.013  0.003  0.006  0.022
   31  0.000  0.002  0.006  0.008
   32  0.020  0.004  0.006  0.029
   33  0.011  0.003  0.006  0.019
   34  0.018  0.003  0.006  0.027
   35  0.000  0.000  0.013  0.013
   36  0.000  0.006  0.006  0.012
   37  0.000  0.000  0.000  0.000
   38  0.000  0.000  0.000  0.000
tot    0.221  0.093  0.400  0.713
 
band    15 # energy   -5.29860463 # occ.  2.00000000
 
ion      s      p      d    tot
    1  0.000  0.001  0.010  0.011
    2  0.018  0.003  0.005  0.027
    3  0.007  0.002  0.005  0.014
    4  0.020  0.004  0.005  0.029
    5  0.000  0.003  0.034  0.037
    6  0.001  0.001  0.005  0.007
    7  0.011  0.003  0.005  0.019
    8  0.004  0.002  0.005  0.010
    9  0.000  0.005  0.008  0.013
   10  0.000  0.003  0.014  0.017
   11  0.011  0.003  0.010  0.024
   12  0.000  0.001  0.009  0.010
   13  0.014  0.004  0.008  0.026
   14  0.000  0.000  0.018  0.018
   15  0.011  0.003  0.011  0.025
   16  0.000  0.001  0.010  0.012
   17  0.014  0.003  0.007  0.024
   18  0.000  0.002  0.024  0.026
   19  0.003  0.002  0.011  0.017
   20  0.000  0.003  0.026  0.029
   21  0.004  0.001  0.009  0.014
   22  0.017  0.005  0.009  0.030
   23  0.003  0.002  0.013  0.018
   24  0.000  0.001  0.025  0.026
   25  0.000  0.002  0.011  0.013
   26  0.004  0.003  0.011  0.018
   27  0.013  0.004  0.013  0.029
   28  0.000  0.001  0.013  0.013
   29  0.021  0.004  0.006  0.031
   30  0.007  0.002  0.007  0.016
   31  0.023  0.004  0.006  0.033
   32  0.001  0.002  0.007  0.010
   33  0.012  0.003  0.007  0.021
   34  0.005  0.002  0.007  0.014
   35  0.000  0.006  0.008  0.014
   36  0.000  0.005  0.010  0.014
   37  0.000  0.000  0.000  0.000
   38  0.000  0.000  0.000  0.000
tot    0.224  0.094  0.392  0.711
 
band    16 # energy   -5.29853457 # occ.  2.00000000
 
ion      s      p      d    tot
    1  0.000  0.001  0.010  0.011
    2  0.002  0.002  0.005  0.009
    3  0.013  0.003  0.005  0.021
    4  0.000  0.001  0.005  0.007
    5  0.000  0.003  0.034  0.037
    6  0.019  0.004  0.005  0.028
    7  0.008  0.002  0.005  0.016
    8  0.017  0.003  0.005  0.026
    9  0.000  0.005  0.008  0.013
   10  0.000  0.000  0.008  0.009
   11  0.006  0.002  0.014  0.022
   12  0.000  0.003  0.013  0.016
   13  0.003  0.001  0.016  0.020
   14  0.017  0.005  0.006  0.028
   15  0.006  0.002  0.017  0.025
   16  0.000  0.002  0.012  0.014
   17  0.003  0.002  0.021  0.026
   18  0.017  0.003  0.004  0.024
   19  0.002  0.002  0.011  0.015
   20  0.005  0.001  0.006  0.012
   21  0.001  0.003  0.023  0.027
   22  0.003  0.001  0.022  0.027
   23  0.002  0.002  0.019  0.023
   24  0.020  0.006  0.006  0.031
   25  0.005  0.003  0.011  0.018
   26  0.001  0.002  0.011  0.014
   27  0.007  0.002  0.018  0.028
   28  0.000  0.001  0.013  0.013
   29  0.002  0.002  0.007  0.011
   30  0.016  0.003  0.007  0.026
   31  0.000  0.002  0.007  0.009
   32  0.022  0.004  0.006  0.032
   33  0.011  0.002  0.007  0.020
   34  0.018  0.004  0.007  0.029
   35  0.000  0.006  0.008  0.014
   36  0.000  0.005  0.010  0.014
   37  0.000  0.000  0.000  0.000
   38  0.000  0.000  0.000  0.000
tot    0.224  0.094  0.393  0.711
 
band    17 # energy   -5.26717359 # occ.  2.00000000
 
ion      s      p      d    tot
    1  0.027  0.003  0.001  0.031
    2  0.000  0.003  0.010  0.012
    3  0.000  0.003  0.010  0.012
    4  0.000  0.003  0.010  0.012
    5  0.000  0.000  0.000  0.001
    6  0.000  0.003  0.010  0.013
    7  0.000  0.003  0.010  0.012
    8  0.000  0.003  0.010  0.013
    9  0.034  0.004  0.000  0.038
   10  0.011  0.003  0.010  0.025
   11  0.000  0.000  0.015  0.016
   12  0.011  0.003  0.010  0.025
   13  0.000  0.000  0.015  0.016
   14  0.000  0.000  0.015  0.016
   15  0.007  0.004  0.015  0.026
   16  0.011  0.003  0.010  0.025
   17  0.007  0.004  0.015  0.026
   18  0.007  0.004  0.015  0.026
   19  0.005  0.003  0.020  0.028
   20  0.001  0.000  0.014  0.015
   21  0.001  0.000  0.015  0.015
   22  0.008  0.004  0.009  0.021
   23  0.001  0.000  0.014  0.015
   24  0.008  0.004  0.009  0.021
   25  0.005  0.003  0.020  0.028
   26  0.005  0.003  0.020  0.028
   27  0.008  0.004  0.009  0.021
   28  0.034  0.003  0.000  0.037
   29  0.000  0.003  0.013  0.016
   30  0.000  0.003  0.013  0.016
   31  0.000  0.003  0.013  0.016
   32  0.000  0.003  0.013  0.016
   33  0.000  0.003  0.013  0.016
   34  0.000  0.003  0.013  0.016
   35  0.033  0.003  0.000  0.036
   36  0.000  0.000  0.000  0.000
   37  0.000  0.000  0.000  0.000
   38  0.000  0.000  0.000  0.000
tot    0.225  0.092  0.388  0.705
 
band    18 # energy   -5.10319487 # occ.  2.00000000
 
ion      s      p      d    tot
    1  0.014  0.002  0.001  0.016
    2  0.000  0.003  0.013  0.016
    3  0.000  0.003  0.013  0.016
    4  0.000  0.003  0.013  0.016
    5  0.036  0.007  0.017  0.060
    6  0.000  0.003  0.013  0.016
    7  0.000  0.003  0.013  0.016
    8  0.000  0.003  0.013  0.016
    9  0.003  0.001  0.001  0.005
   10  0.002  0.001  0.026  0.029
   11  0.004  0.004  0.017  0.025
   12  0.002  0.001  0.026  0.029
   13  0.004  0.004  0.017  0.025
   14  0.004  0.004  0.017  0.025
   15  0.004  0.001  0.011  0.016
   16  0.002  0.001  0.026  0.029
   17  0.004  0.001  0.011  0.016
   18  0.004  0.001  0.011  0.016
   19  0.010  0.001  0.022  0.033
   20  0.009  0.004  0.009  0.022
   21  0.009  0.004  0.009  0.022
   22  0.002  0.001  0.018  0.022
   23  0.009  0.004  0.009  0.022
   24  0.002  0.001  0.018  0.022
   25  0.010  0.001  0.022  0.033
   26  0.010  0.001  0.022  0.033
   27  0.002  0.001  0.018  0.022
   28  0.002  0.002  0.006  0.010
   29  0.001  0.002  0.010  0.013
   30  0.001  0.002  0.010  0.013
   31  0.001  0.002  0.010  0.013
   32  0.001  0.002  0.010  0.013
   33  0.001  0.002  0.010  0.013
   34  0.001  0.002  0.010  0.013
   35  0.002  0.001  0.002  0.006
   36  0.035  0.006  0.000  0.042
   37  0.004  0.000  0.000  0.004
   38  0.001  0.004  0.000  0.005
tot    0.200  0.085  0.473  0.759
 
band    19 # energy   -4.70656406 # occ.  2.00000000
 
ion      s      p      d    tot
    1  0.000  0.000  0.014  0.014
    2  0.008  0.001  0.012  0.020
    3  0.012  0.001  0.009  0.021
    4  0.004  0.000  0.007  0.012
    5  0.000  0.001  0.353  0.355
    6  0.010  0.001  0.007  0.017
    7  0.000  0.000  0.010  0.011
    8  0.002  0.001  0.013  0.015
    9  0.000  0.002  0.001  0.003
   10  0.002  0.001  0.012  0.015
   11  0.000  0.001  0.016  0.017
   12  0.000  0.000  0.016  0.017
   13  0.000  0.000  0.033  0.033
   14  0.000  0.000  0.024  0.025
   15  0.000  0.003  0.005  0.008
   16  0.003  0.001  0.008  0.013
   17  0.000  0.001  0.008  0.010
   18  0.000  0.002  0.007  0.009
   19  0.000  0.003  0.006  0.009
   20  0.000  0.001  0.008  0.010
   21  0.000  0.000  0.005  0.006
   22  0.000  0.000  0.023  0.023
   23  0.000  0.002  0.011  0.014
   24  0.000  0.000  0.013  0.013
   25  0.000  0.002  0.010  0.012
   26  0.000  0.000  0.015  0.015
   27  0.000  0.000  0.003  0.003
   28  0.000  0.002  0.002  0.003
   29  0.001  0.000  0.005  0.007
   30  0.000  0.000  0.006  0.006
   31  0.007  0.001  0.006  0.014
   32  0.003  0.001  0.006  0.010
   33  0.009  0.001  0.006  0.015
   34  0.006  0.001  0.005  0.011
   35  0.000  0.000  0.017  0.018
   36  0.000  0.001  0.004  0.005
   37  0.000  0.017  0.000  0.017
   38  0.000  0.001  0.000  0.001
tot    0.069  0.048  0.709  0.826
 
band    20 # energy   -4.70655600 # occ.  2.00000000
 
ion      s      p      d    tot
    1  0.000  0.000  0.014  0.014
    2  0.004  0.000  0.007  0.012
    3  0.000  0.000  0.010  0.011
    4  0.008  0.001  0.012  0.021
    5  0.000  0.001  0.353  0.355
    6  0.002  0.001  0.013  0.015
    7  0.012  0.001  0.009  0.022
    8  0.010  0.001  0.007  0.017
    9  0.000  0.002  0.001  0.003
   10  0.002  0.001  0.012  0.015
   11  0.000  0.000  0.033  0.033
   12  0.003  0.001  0.008  0.013
   13  0.000  0.001  0.016  0.017
   14  0.000  0.000  0.025  0.025
   15  0.000  0.001  0.008  0.010
   16  0.000  0.000  0.016  0.017
   17  0.000  0.003  0.005  0.008
   18  0.000  0.002  0.007  0.009
   19  0.000  0.000  0.015  0.015
   20  0.000  0.001  0.008  0.010
   21  0.000  0.002  0.011  0.014
   22  0.000  0.000  0.003  0.003
   23  0.000  0.000  0.005  0.006
   24  0.000  0.000  0.013  0.013
   25  0.000  0.002  0.010  0.012
   26  0.000  0.003  0.005  0.009
   27  0.000  0.000  0.023  0.023
   28  0.000  0.002  0.002  0.003
   29  0.007  0.001  0.006  0.014
   30  0.009  0.001  0.006  0.015
   31  0.001  0.000  0.005  0.007
   32  0.006  0.001  0.005  0.012
   33  0.000  0.000  0.006  0.006
   34  0.003  0.001  0.006  0.010
   35  0.000  0.000  0.017  0.018
   36  0.000  0.001  0.004  0.005
   37  0.000  0.017  0.000  0.017
   38  0.000  0.001  0.000  0.001
tot    0.069  0.048  0.709  0.826
 
band    21 # energy   -4.62597178 # occ.  2.00000000
 
ion      s      p      d    tot
    1  0.000  0.002  0.002  0.005
    2  0.013  0.001  0.014  0.028
    3  0.005  0.001  0.010  0.016
    4  0.014  0.001  0.013  0.028
    5  0.000  0.003  0.373  0.376
    6  0.001  0.000  0.014  0.015
    7  0.006  0.001  0.010  0.017
    8  0.002  0.000  0.014  0.017
    9  0.000  0.000  0.022  0.022
   10  0.000  0.003  0.007  0.010
   11  0.000  0.000  0.016  0.017
   12  0.000  0.001  0.005  0.005
   13  0.000  0.000  0.016  0.016
   14  0.000  0.001  0.019  0.020
   15  0.001  0.001  0.015  0.016
   16  0.000  0.001  0.005  0.006