PROCAR new format
# of k-points:   10         # of bands:  252         # of ions:   36

 k-point     1 :    0.00000000 0.00000000 0.00000000     weight = 0.01562500

band     1 # energy   -8.10372027 # occ.  2.00000000
 
ion      s      p      d    tot
    1  0.007  0.001  0.000  0.008
    2  0.007  0.001  0.000  0.008
    3  0.007  0.001  0.000  0.008
    4  0.007  0.001  0.000  0.008
    5  0.007  0.001  0.000  0.008
    6  0.007  0.001  0.000  0.008
    7  0.007  0.001  0.000  0.008
    8  0.007  0.001  0.000  0.008
    9  0.007  0.001  0.000  0.008
   10  0.028  0.000  0.000  0.028
   11  0.028  0.000  0.000  0.028
   12  0.028  0.000  0.000  0.028
   13  0.028  0.000  0.000  0.028
   14  0.028  0.000  0.000  0.028
   15  0.028  0.000  0.000  0.028
   16  0.028  0.000  0.000  0.028
   17  0.028  0.000  0.000  0.028
   18  0.028  0.000  0.000  0.028
   19  0.024  0.000  0.000  0.024
   20  0.023  0.000  0.000  0.024
   21  0.023  0.000  0.000  0.024
   22  0.024  0.000  0.000  0.024
   23  0.023  0.000  0.000  0.024
   24  0.024  0.000  0.000  0.024
   25  0.024  0.000  0.000  0.024
   26  0.024  0.000  0.000  0.024
   27  0.024  0.000  0.000  0.024
   28  0.005  0.000  0.000  0.005
   29  0.004  0.000  0.000  0.005
   30  0.004  0.000  0.000  0.005
   31  0.004  0.000  0.000  0.005
   32  0.004  0.000  0.000  0.005
   33  0.004  0.000  0.000  0.005
   34  0.004  0.000  0.000  0.005
   35  0.005  0.000  0.000  0.005
   36  0.003  0.001  0.000  0.004
tot    0.565  0.012  0.003  0.581
 
band     2 # energy   -6.91185848 # occ.  2.00000000
 
ion      s      p      d    tot
    1  0.017  0.000  0.001  0.019
    2  0.017  0.000  0.001  0.018
    3  0.017  0.000  0.001  0.018
    4  0.017  0.000  0.001  0.018
    5  0.017  0.000  0.001  0.018
    6  0.017  0.000  0.001  0.018
    7  0.017  0.000  0.001  0.018
    8  0.017  0.000  0.001  0.018
    9  0.016  0.000  0.001  0.018
   10  0.010  0.002  0.002  0.014
   11  0.009  0.002  0.002  0.013
   12  0.010  0.002  0.002  0.014
   13  0.009  0.002  0.002  0.013
   14  0.009  0.002  0.002  0.013
   15  0.009  0.002  0.003  0.013
   16  0.010  0.002  0.002  0.014
   17  0.009  0.002  0.003  0.013
   18  0.009  0.002  0.003  0.013
   19  0.017  0.001  0.004  0.022
   20  0.014  0.001  0.004  0.019
   21  0.014  0.001  0.004  0.019
   22  0.017  0.001  0.004  0.022
   23  0.014  0.001  0.004  0.019
   24  0.017  0.001  0.004  0.022
   25  0.017  0.001  0.004  0.022
   26  0.017  0.001  0.004  0.022
   27  0.017  0.001  0.004  0.022
   28  0.015  0.001  0.000  0.016
   29  0.014  0.001  0.000  0.015
   30  0.014  0.001  0.000  0.015
   31  0.014  0.001  0.000  0.015
   32  0.014  0.001  0.000  0.015
   33  0.014  0.001  0.000  0.015
   34  0.014  0.001  0.000  0.015
   35  0.016  0.001  0.000  0.017
   36  0.007  0.000  0.000  0.007
tot    0.494  0.032  0.072  0.597
 
band     3 # energy   -5.99861608 # occ.  2.00000000
 
ion      s      p      d    tot
    1  0.017  0.000  0.023  0.040
    2  0.020  0.000  0.020  0.040
    3  0.020  0.000  0.020  0.040
    4  0.020  0.000  0.020  0.040
    5  0.017  0.000  0.020  0.037
    6  0.020  0.000  0.020  0.040
    7  0.020  0.000  0.020  0.040
    8  0.020  0.000  0.020  0.040
    9  0.029  0.000  0.017  0.046
   10  0.010  0.001  0.023  0.034
   11  0.013  0.001  0.021  0.035
   12  0.010  0.001  0.023  0.034
   13  0.013  0.001  0.021  0.035
   14  0.013  0.001  0.021  0.035
   15  0.003  0.001  0.026  0.029
   16  0.010  0.001  0.023  0.034
   17  0.003  0.001  0.026  0.029
   18  0.003  0.001  0.026  0.029
   19  0.000  0.001  0.002  0.003
   20  0.001  0.001  0.003  0.005
   21  0.001  0.001  0.003  0.005
   22  0.001  0.001  0.002  0.003
   23  0.001  0.001  0.003  0.005
   24  0.001  0.001  0.002  0.003
   25  0.000  0.001  0.002  0.003
   26  0.000  0.001  0.002  0.003
   27  0.001  0.001  0.002  0.003
   28  0.003  0.000  0.000  0.003
   29  0.002  0.000  0.001  0.003
   30  0.002  0.000  0.001  0.003
   31  0.002  0.000  0.001  0.003
   32  0.002  0.000  0.001  0.003
   33  0.002  0.000  0.001  0.003
   34  0.002  0.000  0.001  0.003
   35  0.003  0.000  0.000  0.004
   36  0.000  0.000  0.000  0.000
tot    0.287  0.013  0.419  0.718
 
band     4 # energy   -5.94784789 # occ.  2.00000000
 
ion      s      p      d    tot
    1  0.000  0.000  0.007  0.007
    2  0.006  0.001  0.004  0.012
    3  0.006  0.001  0.003  0.010
    4  0.006  0.001  0.004  0.012
    5  0.000  0.001  0.010  0.011
    6  0.000  0.000  0.003  0.004
    7  0.006  0.001  0.003  0.010
    8  0.000  0.000  0.003  0.004
    9  0.000  0.001  0.002  0.002
   10  0.000  0.000  0.036  0.036
   11  0.048  0.002  0.015  0.064
   12  0.017  0.001  0.013  0.031
   13  0.048  0.002  0.015  0.065
   14  0.000  0.002  0.036  0.038
   15  0.008  0.001  0.013  0.022
   16  0.017  0.001  0.013  0.031
   17  0.008  0.001  0.013  0.022
   18  0.000  0.005  0.002  0.007
   19  0.001  0.001  0.010  0.013
   20  0.000  0.003  0.023  0.026
   21  0.036  0.002  0.013  0.050
   22  0.023  0.001  0.011  0.035
   23  0.035  0.002  0.013  0.050
   24  0.000  0.000  0.033  0.033
   25  0.000  0.003  0.004  0.008
   26  0.001  0.001  0.010  0.013
   27  0.022  0.001  0.011  0.035
   28  0.000  0.000  0.001  0.001
   29  0.000  0.000  0.002  0.002
   30  0.005  0.001  0.002  0.008
   31  0.000  0.000  0.002  0.002
   32  0.003  0.001  0.003  0.006
   33  0.005  0.001  0.002  0.008
   34  0.003  0.001  0.003  0.006
   35  0.000  0.000  0.006  0.006
   36  0.000  0.001  0.003  0.004
tot    0.304  0.043  0.348  0.695
 
band     5 # energy   -5.94780461 # occ.  2.00000000
 
ion      s      p      d    tot
    1  0.000  0.000  0.007  0.007
    2  0.002  0.001  0.002  0.005
    3  0.002  0.001  0.005  0.008
    4  0.002  0.001  0.002  0.005
    5  0.000  0.001  0.010  0.011
    6  0.008  0.001  0.004  0.013
    7  0.002  0.001  0.005  0.007
    8  0.008  0.001  0.004  0.013
    9  0.000  0.001  0.002  0.002
   10  0.017  0.002  0.004  0.023
   11  0.019  0.002  0.027  0.048
   12  0.009  0.001  0.029  0.038
   13  0.018  0.002  0.028  0.048
   14  0.058  0.001  0.011  0.070
   15  0.002  0.003  0.004  0.009
   16  0.009  0.001  0.029  0.038
   17  0.002  0.003  0.004  0.009
   18  0.013  0.000  0.019  0.032
   19  0.000  0.002  0.006  0.008
   20  0.045  0.001  0.012  0.059
   21  0.012  0.003  0.019  0.033
   22  0.010  0.000  0.026  0.037
   23  0.013  0.003  0.019  0.034
   24  0.024  0.002  0.003  0.029
   25  0.003  0.001  0.014  0.018
   26  0.000  0.002  0.006  0.008
   27  0.011  0.000  0.026  0.037
   28  0.000  0.000  0.001  0.001
   29  0.005  0.001  0.003  0.009
   30  0.001  0.000  0.003  0.004
   31  0.005  0.001  0.003  0.009
   32  0.002  0.000  0.001  0.004
   33  0.001  0.000  0.003  0.004
   34  0.002  0.000  0.001  0.004
   35  0.000  0.000  0.005  0.006
   36  0.000  0.001  0.003  0.004
tot    0.304  0.043  0.348  0.695
 
band     6 # energy   -5.94743717 # occ.  2.00000000
 
ion      s      p      d    tot
    1  0.019  0.002  0.001  0.022
    2  0.000  0.001  0.007  0.008
    3  0.000  0.001  0.005  0.006
    4  0.000  0.001  0.007  0.008
    5  0.004  0.001  0.003  0.007
    6  0.000  0.001  0.006  0.007
    7  0.000  0.001  0.005  0.006
    8  0.000  0.001  0.006  0.007
    9  0.002  0.000  0.000  0.003
   10  0.034  0.002  0.013  0.049
   11  0.005  0.000  0.031  0.037
   12  0.025  0.002  0.011  0.038
   13  0.005  0.000  0.031  0.036
   14  0.014  0.000  0.027  0.041
   15  0.012  0.003  0.011  0.026
   16  0.025  0.002  0.011  0.038
   17  0.012  0.003  0.011  0.026
   18  0.009  0.003  0.007  0.019
   19  0.019  0.003  0.005  0.027
   20  0.003  0.001  0.021  0.025
   21  0.000  0.001  0.024  0.025
   22  0.017  0.001  0.016  0.034
   23  0.000  0.001  0.024  0.025
   24  0.025  0.001  0.017  0.044
   25  0.017  0.003  0.003  0.023
   26  0.019  0.003  0.005  0.027
   27  0.017  0.001  0.016  0.034
   28  0.004  0.001  0.000  0.005
   29  0.000  0.000  0.004  0.004
   30  0.000  0.000  0.004  0.004
   31  0.000  0.000  0.004  0.004
   32  0.000  0.000  0.004  0.005
   33  0.000  0.000  0.004  0.004
   34  0.000  0.000  0.004  0.005
   35  0.011  0.001  0.001  0.013
   36  0.000  0.000  0.001  0.002
tot    0.303  0.042  0.349  0.694
 
band     7 # energy   -5.93826743 # occ.  2.00000000
 
ion      s      p      d    tot
    1  0.000  0.001  0.006  0.007
    2  0.007  0.001  0.004  0.012
    3  0.006  0.001  0.003  0.011
    4  0.007  0.001  0.004  0.012
    5  0.000  0.000  0.003  0.003
    6  0.000  0.000  0.003  0.004
    7  0.006  0.001  0.003  0.011
    8  0.000  0.000  0.003  0.004
    9  0.000  0.001  0.011  0.012
   10  0.043  0.000  0.015  0.058
   11  0.000  0.002  0.013  0.015
   12  0.011  0.003  0.013  0.027
   13  0.000  0.002  0.013  0.015
   14  0.001  0.001  0.012  0.013
   15  0.014  0.001  0.036  0.050
   16  0.011  0.003  0.013  0.028
   17  0.013  0.001  0.036  0.050
   18  0.054  0.002  0.003  0.059
   19  0.012  0.001  0.028  0.041
   20  0.006  0.001  0.008  0.015
   21  0.001  0.001  0.015  0.017
   22  0.005  0.003  0.009  0.018
   23  0.001  0.001  0.015  0.017
   24  0.023  0.000  0.013  0.036
   25  0.050  0.002  0.004  0.056
   26  0.012  0.001  0.028  0.041
   27  0.006  0.003  0.010  0.018
   28  0.000  0.001  0.007  0.007
   29  0.000  0.000  0.002  0.002
   30  0.004  0.001  0.002  0.007
   31  0.000  0.000  0.002  0.002
   32  0.003  0.001  0.003  0.006
   33  0.004  0.001  0.002  0.007
   34  0.003  0.001  0.003  0.006
   35  0.000  0.001  0.002  0.003
   36  0.000  0.000  0.001  0.001
tot    0.302  0.042  0.349  0.693
 
band     8 # energy   -5.93821589 # occ.  2.00000000
 
ion      s      p      d    tot
    1  0.000  0.001  0.006  0.007
    2  0.002  0.001  0.003  0.006
    3  0.002  0.001  0.004  0.007
    4  0.002  0.001  0.003  0.006
    5  0.000  0.000  0.002  0.003
    6  0.009  0.001  0.004  0.014
    7  0.002  0.001  0.004  0.007
    8  0.009  0.001  0.004  0.014
    9  0.000  0.001  0.011  0.012
   10  0.000  0.004  0.013  0.017
   11  0.000  0.001  0.012  0.014
   12  0.033  0.001  0.014  0.048
   13  0.000  0.001  0.012  0.014
   14  0.000  0.003  0.013  0.016
   15  0.040  0.001  0.014  0.056
   16  0.032  0.001  0.014  0.048
   17  0.040  0.001  0.014  0.056
   18  0.000  0.000  0.047  0.047
   19  0.037  0.002  0.012  0.051
   20  0.000  0.001  0.017  0.018
   21  0.004  0.001  0.010  0.016
   22  0.017  0.001  0.012  0.030
   23  0.004  0.001  0.010  0.016
   24  0.000  0.004  0.008  0.012
   25  0.000  0.001  0.036  0.037
   26  0.037  0.002  0.012  0.051
   27  0.017  0.001  0.012  0.030
   28  0.000  0.001  0.007  0.007
   29  0.005  0.001  0.003  0.008
   30  0.001  0.000  0.002  0.003
   31  0.005  0.001  0.003  0.008
   32  0.002  0.000  0.002  0.004
   33  0.001  0.000  0.002  0.003
   34  0.002  0.000  0.002  0.004
   35  0.000  0.001  0.002  0.003
   36  0.000  0.000  0.001  0.001
tot    0.302  0.042  0.349  0.693
 
band     9 # energy   -5.93305355 # occ.  2.00000000
 
ion      s      p      d    tot
    1  0.001  0.000  0.000  0.001
    2  0.000  0.001  0.007  0.008
    3  0.000  0.001  0.007  0.008
    4  0.000  0.001  0.007  0.008
    5  0.017  0.001  0.000  0.018
    6  0.000  0.001  0.007  0.008
    7  0.000  0.001  0.007  0.008
    8  0.000  0.001  0.007  0.008
    9  0.008  0.002  0.005  0.015
   10  0.001  0.001  0.025  0.028
   11  0.019  0.003  0.008  0.029
   12  0.001  0.001  0.025  0.028
   13  0.019  0.003  0.008  0.029
   14  0.019  0.003  0.008  0.030
   15  0.028  0.000  0.023  0.051
   16  0.001  0.001  0.025  0.028
   17  0.028  0.000  0.023  0.051
   18  0.027  0.000  0.023  0.050
   19  0.005  0.000  0.025  0.030
   20  0.029  0.002  0.003  0.035
   21  0.030  0.002  0.003  0.035
   22  0.001  0.002  0.017  0.020
   23  0.030  0.002  0.003  0.035
   24  0.001  0.002  0.017  0.020
   25  0.005  0.000  0.025  0.030
   26  0.005  0.000  0.025  0.030
   27  0.001  0.002  0.017  0.020
   28  0.009  0.001  0.000  0.010
   29  0.001  0.000  0.004  0.005
   30  0.001  0.000  0.004  0.005
   31  0.001  0.000  0.004  0.005
   32  0.001  0.000  0.004  0.005
   33  0.001  0.000  0.004  0.005
   34  0.001  0.000  0.004  0.005
   35  0.001  0.000  0.002  0.003
   36  0.002  0.002  0.001  0.005
tot    0.291  0.038  0.375  0.704
 
band    10 # energy   -5.80405167 # occ.  2.00000000
 
ion      s      p      d    tot
    1  0.001  0.000  0.000  0.001
    2  0.000  0.000  0.001  0.001
    3  0.000  0.000  0.001  0.001
    4  0.000  0.000  0.001  0.001
    5  0.003  0.000  0.000  0.003
    6  0.000  0.000  0.001  0.001
    7  0.000  0.000  0.001  0.001
    8  0.000  0.000  0.001  0.001
    9  0.001  0.000  0.001  0.001
   10  0.000  0.000  0.005  0.005
   11  0.002  0.001  0.002  0.004
   12  0.000  0.000  0.005  0.005
   13  0.002  0.001  0.002  0.004
   14  0.002  0.001  0.002  0.004
   15  0.002  0.000  0.005  0.008
   16  0.000  0.000  0.005  0.005
   17  0.002  0.000  0.005  0.008
   18  0.002  0.000  0.005  0.008
   19  0.005  0.001  0.020  0.027
   20  0.002  0.000  0.024  0.027
   21  0.002  0.000  0.024  0.027
   22  0.009  0.001  0.025  0.036
   23  0.002  0.000  0.024  0.027
   24  0.009  0.001  0.025  0.036
   25  0.005  0.001  0.020  0.027
   26  0.005  0.001  0.020  0.027
   27  0.009  0.001  0.025  0.036
   28  0.028  0.000  0.024  0.052
   29  0.024  0.000  0.020  0.044
   30  0.024  0.000  0.020  0.044
   31  0.024  0.000  0.020  0.044
   32  0.024  0.000  0.020  0.044
   33  0.024  0.000  0.020  0.044
   34  0.024  0.000  0.020  0.044
   35  0.029  0.000  0.022  0.051
   36  0.009  0.000  0.007  0.016
tot    0.280  0.013  0.425  0.718
 
band    11 # energy   -5.46632908 # occ.  2.00000000
 
ion      s      p      d    tot
    1  0.014  0.002  0.002  0.018
    2  0.000  0.001  0.009  0.009
    3  0.000  0.001  0.009  0.009
    4  0.000  0.001  0.009  0.009
    5  0.000  0.000  0.002  0.002
    6  0.000  0.001  0.009  0.009
    7  0.000  0.001  0.009  0.009
    8  0.000  0.001  0.009  0.009
    9  0.017  0.001  0.000  0.018
   10  0.009  0.002  0.011  0.022
   11  0.003  0.000  0.041  0.044
   12  0.009  0.002  0.011  0.022
   13  0.003  0.000  0.041  0.044
   14  0.003  0.000  0.041  0.044
   15  0.002  0.001  0.028  0.031
   16  0.009  0.002  0.011  0.022
   17  0.002  0.001  0.028  0.031
   18  0.002  0.001  0.028  0.031
   19  0.005  0.001  0.013  0.020
   20  0.002  0.000  0.044  0.046
   21  0.002  0.000  0.043  0.045
   22  0.013  0.001  0.018  0.033
   23  0.002  0.000  0.043  0.045
   24  0.013  0.001  0.018  0.033
   25  0.005  0.001  0.013  0.020
   26  0.005  0.001  0.013  0.020
   27  0.013  0.001  0.018  0.033
   28  0.012  0.001  0.001  0.014
   29  0.000  0.001  0.006  0.007
   30  0.000  0.001  0.006  0.007
   31  0.000  0.001  0.006  0.007
   32  0.000  0.001  0.006  0.007
   33  0.000  0.001  0.006  0.007
   34  0.000  0.001  0.006  0.007
   35  0.012  0.002  0.002  0.016
   36  0.000  0.000  0.001  0.001
tot    0.157  0.030  0.560  0.748
 
band    12 # energy   -5.45324825 # occ.  2.00000000
 
ion      s      p      d    tot
    1  0.000  0.001  0.007  0.008
    2  0.008  0.001  0.005  0.014
    3  0.006  0.001  0.004  0.011
    4  0.008  0.001  0.005  0.014
    5  0.000  0.001  0.014  0.014
    6  0.000  0.000  0.005  0.006
    7  0.006  0.001  0.004  0.011
    8  0.000  0.000  0.005  0.006
    9  0.000  0.000  0.005  0.005
   10  0.015  0.002  0.006  0.023
   11  0.003  0.000  0.028  0.031
   12  0.004  0.001  0.051  0.056
   13  0.002  0.000  0.028  0.031
   14  0.010  0.000  0.020  0.030
   15  0.000  0.001  0.019  0.020
   16  0.004  0.001  0.051  0.055
   17  0.000  0.001  0.018  0.020
   18  0.000  0.001  0.020  0.021
   19  0.006  0.001  0.029  0.035
   20  0.018  0.001  0.005  0.025
   21  0.004  0.001  0.051  0.056
   22  0.000  0.001  0.017  0.018
   23  0.005  0.001  0.050  0.056
   24  0.000  0.000  0.021  0.021
   25  0.023  0.001  0.017  0.041
   26  0.006  0.001  0.029  0.035
   27  0.000  0.001  0.017  0.018
   28  0.000  0.001  0.009  0.010
   29  0.008  0.001  0.004  0.013
   30  0.002  0.001  0.004  0.008
   31  0.008  0.001  0.004  0.013
   32  0.001  0.000  0.003  0.005
   33  0.002  0.001  0.004  0.008
   34  0.002  0.000  0.003  0.005
   35  0.000  0.000  0.004  0.004
   36  0.000  0.001  0.002  0.003
tot    0.152  0.030  0.570  0.751
 
band    13 # energy   -5.45323362 # occ.  2.00000000
 
ion      s      p      d    tot
    1  0.000  0.001  0.007  0.008
    2  0.001  0.000  0.005  0.007
    3  0.004  0.001  0.005  0.010
    4  0.001  0.000  0.005  0.006
    5  0.000  0.001  0.014  0.014
    6  0.009  0.001  0.004  0.015
    7  0.004  0.001  0.005  0.010
    8  0.009  0.001  0.004  0.015
    9  0.000  0.000  0.005  0.005
   10  0.000  0.000  0.066  0.066
   11  0.007  0.000  0.023  0.030
   12  0.011  0.002  0.021  0.033
   13  0.007  0.000  0.023  0.030
   14  0.000  0.001  0.030  0.031
   15  0.000  0.001  0.019  0.021
   16  0.011  0.002  0.021  0.034
   17  0.000  0.001  0.019  0.021
   18  0.000  0.001  0.018  0.019
   19  0.017  0.001  0.021  0.039
   20  0.000  0.000  0.066  0.066
   21  0.014  0.001  0.020  0.035
   22  0.000  0.001  0.019  0.020
   23  0.013  0.001  0.021  0.035
   24  0.000  0.002  0.016  0.017
   25  0.000  0.001  0.033  0.034
   26  0.018  0.001  0.021  0.039
   27  0.000  0.001  0.019  0.020
   28  0.000  0.001  0.009  0.010
   29  0.000  0.000  0.004  0.004
   30  0.005  0.001  0.003  0.009
   31  0.000  0.000  0.004  0.004
   32  0.006  0.001  0.004  0.012
   33  0.005  0.001  0.003  0.009
   34  0.006  0.001  0.004  0.012
   35  0.000  0.000  0.004  0.004
   36  0.000  0.001  0.002  0.003
tot    0.152  0.030  0.570  0.751
 
band    14 # energy   -5.45021661 # occ.  2.00000000
 
ion      s      p      d    tot
    1  0.000  0.000  0.011  0.011
    2  0.009  0.001  0.005  0.015
    3  0.006  0.001  0.005  0.012
    4  0.009  0.001  0.005  0.015
    5  0.000  0.001  0.003  0.004
    6  0.000  0.000  0.006  0.006
    7  0.006  0.001  0.005  0.012
    8  0.000  0.000  0.006  0.006
    9  0.000  0.001  0.012  0.014
   10  0.000  0.001  0.012  0.013
   11  0.006  0.002  0.020  0.027
   12  0.001  0.000  0.021  0.023
   13  0.006  0.002  0.019  0.027
   14  0.000  0.001  0.046  0.046
   15  0.013  0.001  0.023  0.037
   16  0.001  0.000  0.021  0.023
   17  0.013  0.001  0.023  0.036
   18  0.000  0.000  0.057  0.058
   19  0.004  0.001  0.019  0.023
   20  0.000  0.001  0.011  0.012
   21  0.007  0.000  0.020  0.027
   22  0.021  0.001  0.021  0.042
   23  0.006  0.000  0.020  0.027
   24  0.000  0.000  0.061  0.061
   25  0.000  0.001  0.044  0.045
   26  0.004  0.001  0.019  0.023
   27  0.021  0.001  0.021  0.043
   28  0.000  0.000  0.003  0.003
   29  0.007  0.001  0.003  0.011
   30  0.003  0.001  0.004  0.008
   31  0.007  0.001  0.003  0.011
   32  0.001  0.000  0.002  0.004
   33  0.003  0.001  0.004  0.008
   34  0.001  0.000  0.002  0.004
   35  0.000  0.001  0.008  0.009
   36  0.000  0.001  0.002  0.003
tot    0.154  0.030  0.567  0.750
 
band    15 # energy   -5.45019726 # occ.  2.00000000
 
ion      s      p      d    tot
    1  0.000  0.000  0.011  0.011
    2  0.001  0.000  0.005  0.007
    3  0.004  0.001  0.006  0.011
    4  0.001  0.000  0.005  0.007
    5  0.000  0.001  0.003  0.004
    6  0.010  0.001  0.005  0.016
    7  0.004  0.001  0.006  0.011
    8  0.010  0.001  0.005  0.016
    9  0.000  0.001  0.012  0.014
   10  0.002  0.000  0.025  0.027
   11  0.002  0.001  0.037  0.040
   12  0.000  0.001  0.015  0.016
   13  0.002  0.001  0.037  0.040
   14  0.008  0.002  0.011  0.020
   15  0.004  0.000  0.046  0.051
   16  0.001  0.001  0.015  0.017
   17  0.004  0.000  0.046  0.051
   18  0.017  0.001  0.011  0.029
   19  0.001  0.001  0.035  0.038
   20  0.009  0.000  0.023  0.032
   21  0.002  0.001  0.014  0.017
   22  0.007  0.000  0.047  0.055
   23  0.002  0.001  0.014  0.017
   24  0.028  0.001  0.008  0.037
   25  0.005  0.001  0.010  0.016
   26  0.001  0.001  0.036  0.038
   27  0.007  0.000  0.047  0.054
   28  0.000  0.000  0.003  0.003
   29  0.000  0.000  0.003  0.004
   30  0.004  0.001  0.002  0.007
   31  0.000  0.000  0.003  0.004
   32  0.006  0.001  0.004  0.012
   33  0.004  0.001  0.002  0.007
   34  0.006  0.001  0.004  0.011
   35  0.000  0.001  0.008  0.009
   36  0.000  0.001  0.002  0.003
tot    0.153  0.030  0.567  0.750
 
band    16 # energy   -5.41436820 # occ.  2.00000000
 
ion      s      p      d    tot
    1  0.011  0.000  0.001  0.012
    2  0.000  0.001  0.010  0.010
    3  0.000  0.001  0.010  0.010
    4  0.000  0.001  0.010  0.010
    5  0.018  0.002  0.001  0.020
    6  0.000  0.001  0.010  0.010
    7  0.000  0.001  0.010  0.010
    8  0.000  0.001  0.010  0.010
    9  0.001  0.000  0.002  0.004
   10  0.000  0.000  0.045  0.045
   11  0.005  0.002  0.014  0.021
   12  0.000  0.000  0.045  0.045
   13  0.005  0.002  0.014  0.021
   14  0.005  0.002  0.014  0.021
   15  0.004  0.001  0.025  0.030
   16  0.000  0.000  0.045  0.045
   17  0.004  0.001  0.025  0.030
   18  0.004  0.001  0.025  0.030
   19  0.009  0.000  0.049  0.058
   20  0.012  0.001  0.004  0.018
   21  0.012  0.001  0.004  0.018
   22  0.001  0.000  0.034  0.035
   23  0.012  0.001  0.004  0.018
   24  0.001  0.000  0.034  0.035
   25  0.009  0.000  0.049  0.058
   26  0.009  0.000  0.049  0.058
   27  0.001  0.000  0.034  0.035
   28  0.000  0.001  0.007  0.007
   29  0.000  0.000  0.004  0.005
   30  0.000  0.000  0.004  0.005
   31  0.000  0.000  0.004  0.005
   32  0.000  0.000  0.004  0.005
   33  0.000  0.000  0.004  0.005
   34  0.000  0.000  0.004  0.005
   35  0.002  0.000  0.000  0.002
   36  0.008  0.002  0.000  0.010
tot    0.134  0.024  0.609  0.768
 
band    17 # energy   -5.07945399 # occ.  2.00000000
 
ion      s      p      d    tot
    1  0.021  0.001  0.000  0.022
    2  0.000  0.001  0.022  0.023
    3  0.000  0.001  0.023  0.024
    4  0.000  0.001  0.022  0.023
    5  0.021  0.000  0.013  0.034
    6  0.000  0.001  0.022  0.023
    7  0.000  0.001  0.023  0.024
    8  0.000  0.001  0.022  0.023
    9  0.000  0.000  0.009  0.009
   10  0.000  0.000  0.032  0.032
   11  0.000  0.000  0.035  0.035
   12  0.000  0.000  0.030  0.031
   13  0.000  0.000  0.035  0.035
   14  0.000  0.000  0.032  0.033
   15  0.000  0.000  0.037  0.038
   16  0.000  0.000  0.030  0.031
   17  0.000  0.000  0.037  0.038
   18  0.000  0.000  0.038  0.038
   19  0.000  0.000  0.024  0.024
   20  0.000  0.000  0.015  0.016
   21  0.000  0.000  0.014  0.015
   22  0.001  0.000  0.026  0.027
   23  0.000  0.000  0.014  0.015
   24  0.001  0.000  0.024  0.025
   25  0.000  0.000  0.023  0.023
   26  0.000  0.000  0.024  0.024
   27  0.001  0.000  0.026  0.027
   28  0.013  0.000  0.002  0.015
   29  0.000  0.001  0.013  0.013
   30  0.000  0.001  0.012  0.013
   31  0.000  0.001  0.013  0.013
   32  0.000  0.001  0.012  0.013
   33  0.000  0.001  0.012  0.013
   34  0.000  0.001  0.012  0.013
   35  0.009  0.000  0.006  0.015
   36  0.000  0.000  0.001  0.001
tot    0.069  0.015  0.736  0.820
 
band    18 # energy   -5.07839394 # occ.  2.00000000
 
ion      s      p      d    tot
    1  0.000  0.001  0.018  0.019
    2  0.013  0.001  0.013  0.028
    3  0.003  0.001  0.012  0.016
    4  0.013  0.001  0.013  0.028
    5  0.000  0.000  0.037  0.037
    6  0.003  0.000  0.018  0.022
    7  0.003  0.001  0.012  0.016
    8  0.003  0.000  0.018  0.022
    9  0.000  0.002  0.010  0.012
   10  0.000  0.000  0.007  0.007
   11  0.000  0.001  0.036  0.037
   12  0.000  0.000  0.018  0.018
   13  0.000  0.001  0.036  0.037
   14  0.000  0.000  0.041  0.041
   15  0.000  0.000  0.051  0.051
   16  0.000  0.000  0.018  0.018
   17  0.000  0.000  0.051  0.051
   18  0.000  0.000  0.047  0.047
   19  0.001  0.000  0.010  0.011
   20  0.000  0.000  0.013  0.013
   21  0.001  0.000  0.025  0.026
   22  0.000  0.000  0.038  0.039
   23  0.001  0.000  0.025  0.026
   24  0.000  0.001  0.027  0.028
   25  0.000  0.000  0.012  0.013
   26  0.001  0.000  0.010  0.011
   27  0.000  0.000  0.038  0.039
   28  0.000  0.000  0.014  0.014
   29  0.003  0.001  0.006  0.010
   30  0.008  0.000  0.009  0.018
   31  0.003  0.001  0.006  0.010
   32  0.001  0.000  0.008  0.010
   33  0.008  0.000  0.009  0.018
   34  0.001  0.000  0.008  0.010
   35  0.000  0.000  0.019  0.019
   36  0.000  0.001  0.002  0.003
tot    0.069  0.016  0.736  0.822
 
band    19 # energy   -5.07838407 # occ.  2.00000000
 
ion      s      p      d    tot
    1  0.000  0.001  0.018  0.019
    2  0.000  0.001  0.016  0.016
    3  0.010  0.001  0.017  0.027
    4  0.000  0.001  0.016  0.016
    5  0.000  0.000  0.037  0.037
    6  0.010  0.001  0.011  0.022
    7  0.010  0.001  0.017  0.027
    8  0.010  0.001  0.011  0.022
    9  0.000  0.002  0.010  0.012
   10  0.000  0.000  0.020  0.020
   11  0.000  0.000  0.038  0.039
   12  0.000  0.000  0.011  0.011
   13  0.000  0.000  0.038  0.039
   14  0.000  0.001  0.037  0.038
   15  0.000  0.000  0.048  0.048
   16  0.000  0.000  0.011  0.011
   17  0.000  0.000  0.048  0.048
   18  0.000  0.000  0.052  0.053
   19  0.000  0.000  0.011  0.012
   20  0.002  0.000  0.028  0.030
   21  0.000  0.000  0.017  0.018
   22  0.000  0.000  0.030  0.031
   23  0.000  0.000  0.017  0.018
   24  0.000  0.000  0.043  0.044
   25  0.001  0.000  0.010  0.011
   26  0.000  0.000  0.011  0.012
   27  0.000  0.000  0.030  0.031
   28  0.000  0.000  0.014  0.014
   29  0.005  0.000  0.010  0.015
   30  0.000  0.000  0.007  0.007
   31  0.005  0.000  0.010  0.015
   32  0.007  0.001  0.007  0.015
   33  0.000  0.000  0.007  0.007
   34  0.007  0.001  0.007  0.015
   35  0.000  0.000  0.019  0.019
   36  0.000  0.001  0.002  0.003
tot    0.069  0.016  0.736  0.822
 
band    20 # energy   -5.05908392 # occ.  2.00000000
 
ion      s      p      d    tot
    1  0.000  0.001  0.025  0.026
    2  0.000  0.001  0.017  0.017
    3  0.009  0.001  0.018  0.028
    4  0.000  0.001  0.016  0.017
    5  0.000  0.001  0.007  0.009
    6  0.011  0.001  0.011  0.023
    7  0.009  0.001  0.018  0.028
    8  0.011  0.001  0.011  0.023
    9  0.000  0.000  0.033  0.033
   10  0.000  0.000  0.070  0.070
   11  0.000  0.000  0.041  0.041
   12  0.000  0.001  0.060  0.061
   13  0.000  0.000  0.040  0.040
   14  0.000  0.000  0.028  0.028
   15  0.000  0.001  0.022  0.023
   16  0.000  0.001  0.060  0.060
   17  0.000  0.001  0.022  0.023
   18  0.000  0.000  0.019  0.019
   19  0.001  0.000  0.036  0.037
   20  0.000  0.001  0.020  0.021
   21  0.000  0.000  0.024  0.024
   22  0.002  0.000  0.011  0.013
   23  0.000  0.000  0.024  0.024
   24  0.000  0.000  0.007  0.007
   25  0.000  0.000  0.022  0.022
   26  0.001  0.000  0.036  0.037
   27  0.002  0.000  0.011  0.014
   28  0.000  0.001  0.009  0.010
   29  0.002  0.000  0.005  0.008
   30  0.000  0.000  0.005  0.005
   31  0.003  0.000  0.005  0.008
   32  0.004  0.000  0.003  0.007
   33  0.000  0.000  0.005  0.005
   34  0.004  0.000  0.003  0.007
   35  0.000  0.001  0.006  0.006
   36  0.000  0.000  0.003  0.003
tot    0.060  0.016  0.751  0.826
 
band    21 # energy   -5.05908226 # occ.  2.00000000
 
ion      s      p      d    tot
    1  0.000  0.001  0.025  0.026
    2  0.013  0.001  0.014  0.028
    3  0.004  0.001  0.012  0.018
    4  0.013  0.001  0.014  0.028
    5  0.000  0.001  0.007  0.009
    6  0.003  0.000  0.019  0.022
    7  0.004  0.001  0.012  0.017
    8  0.002  0.000  0.019  0.022
    9  0.000  0.000  0.033  0.033
   10  0.000  0.001  0.057  0.058
   11  0.000  0.000  0.033  0.033
   12  0.000  0.000  0.066  0.066
   13  0.000  0.000  0.033  0.033
   14  0.000  0.000  0.044  0.044
   15  0.000  0.000  0.020  0.020
   16  0.000  0.000  0.066  0.067
   17  0.000  0.000  0.020  0.020
   18  0.000  0.001  0.023  0.024
   19  0.000  0.000  0.026  0.027
   20  0.000  0.000  0.025  0.026
   21  0.000  0.000  0.021  0.022
   22  0.001  0.000  0.008  0.009
   23  0.000  0.000  0.021  0.022
   24  0.003  0.000  0.012  0.015
   25  0.001  0.000  0.041  0.042
   26  0.000  0.000  0.027  0.027
   27  0.001  0.000  0.008  0.009
   28  0.000  0.001  0.009  0.010
   29  0.002  0.000  0.004  0.006
   30  0.004  0.000  0.004  0.008
   31  0.002  0.000  0.004  0.006
   32  0.000  0.000  0.005  0.006
   33  0.004  0.000  0.004  0.008
   34  0.001  0.000  0.005  0.006
   35  0.000  0.001  0.006  0.006
   36  0.000  0.000  0.003  0.003
tot    0.060  0.016  0.751  0.826
 
band    22 # energy   -5.05533588 # occ.  2.00000000
 
ion      s      p      d    tot
    1  0.001  0.000  0.017  0.018
    2  0.000  0.001  0.017  0.018
    3  0.000  0.001  0.017  0.018
    4  0.000  0.001  0.017  0.018
    5  0.013  0.001  0.004  0.018
    6  0.000  0.001  0.017  0.018
    7  0.000  0.001  0.017  0.018
    8  0.000  0.001  0.017  0.018
    9  0.024  0.001  0.005  0.030
   10  0.000  0.000  0.052  0.053
   11  0.000  0.001  0.049  0.050
   12  0.000  0.000  0.053  0.054
   13  0.000  0.001  0.049  0.050
   14  0.000  0.001  0.050  0.051
   15  0.000  0.000  0.029  0.030
   16  0.000  0.000  0.053  0.054