 vasp.6.2.0 18Jan21 (build Jun 12 2021 23:27:24) complex                        
  
 executed on             LinuxIFC date 2022.05.30  18:45:53
 running on   28 total cores
 distrk:  each k-point on   28 cores,    1 groups
 distr:  one band on NCORE=   1 cores,   28 groups


--------------------------------------------------------------------------------------------------------


 INCAR:
   ISMEAR = -5
   SIGMA = 0.1
   ISPIN = 1
   EDIFF = 1.d-5
   EDIFFG = -0.01
   NSW = 0
   NELM = 150
   ENCUT = 500
   ISIF = 2
   IBRION = 2
   LREAL = Auto
   ALGO = Fast
   ICHARG = 11
   LORBIT = 10
   LCHARG = .F.
   LWAVE = .F.

 POTCAR:    PAW_PBE Cu 22Jun2005                  
 POTCAR:    PAW_PBE Ir 06Sep2000                  
 POTCAR:    PAW_PBE C 08Apr2002                   
 -----------------------------------------------------------------------------
|                                                                             |
|           W    W    AA    RRRRR   N    N  II  N    N   GGGG   !!!           |
|           W    W   A  A   R    R  NN   N  II  NN   N  G    G  !!!           |
|           W    W  A    A  R    R  N N  N  II  N N  N  G       !!!           |
|           W WW W  AAAAAA  RRRRR   N  N N  II  N  N N  G  GGG   !            |
|           WW  WW  A    A  R   R   N   NN  II  N   NN  G    G                |
|           W    W  A    A  R    R  N    N  II  N    N   GGGG   !!!           |
|                                                                             |
|     For optimal performance we recommend to set                             |
|       NCORE = 2 up to number-of-cores-per-socket                            |
|     NCORE specifies how many cores store one orbital (NPAR=cpu/NCORE).      |
|     This setting can greatly improve the performance of VASP for DFT.       |
|     The default, NCORE=1 might be grossly inefficient on modern             |
|     multi-core architectures or massively parallel machines. Do your        |
|     own testing! More info at https://www.vasp.at/wiki/index.php/NCORE      |
|     Unfortunately you need to use the default for GW and RPA                |
|     calculations (for HF NCORE is supported but not extensively tested      |
|     yet).                                                                   |
|                                                                             |
 -----------------------------------------------------------------------------

 POTCAR:    PAW_PBE Cu 22Jun2005                  
   VRHFIN =Cu: d10 p1                                                                               
   LEXCH  = PE                                                                                      
   EATOM  =  1390.9808 eV,  102.2342 Ry                                                             
                                                                                                    
   TITEL  = PAW_PBE Cu 22Jun2005                                                                    
   LULTRA =        F    use ultrasoft PP ?                                                          
   IUNSCR =        1    unscreen: 0-lin 1-nonlin 2-no                                               
   RPACOR =    2.000    partial core radius                                                         
   POMASS =   63.546; ZVAL   =   11.000    mass and valenz                                          
   RCORE  =    2.300    outmost cutoff radius                                                       
   RWIGS  =    2.200; RWIGS  =    1.164    wigner-seitz radius (au A)                               
   ENMAX  =  295.446; ENMIN  =  221.585 eV                                                          
   ICORE  =        3    local potential                                                             
   LCOR   =        T    correct aug charges                                                         
   LPAW   =        T    paw PP                                                                      
   EAUG   =  586.980                                                                                
   DEXC   =    0.000                                                                                
   RMAX   =    2.344    core radius for proj-oper                                                   
   RAUG   =    1.300    factor for augmentation sphere                                              
   RDEP   =    2.302    radius for radial grids                                                     
   RDEPT  =    1.771    core radius for aug-charge                                                  
                                                                                                    
   Atomic configuration                                                                             
    9 entries                                                                                       
     n  l   j            E        occ.                                                              
     1  0  0.50     -8850.2468   2.0000                                                             
     2  0  0.50     -1062.3498   2.0000                                                             
     2  1  1.50      -916.8226   6.0000                                                             
     3  0  0.50      -114.6929   2.0000                                                             
     3  1  1.50       -72.1325   6.0000                                                             
     3  2  2.50        -5.0394  10.0000                                                             
     4  0  0.50        -4.6097   1.0000                                                             
     4  1  0.50        -4.0817   0.0000                                                             
     4  3  2.50        -1.3606   0.0000                                                             
   Description                                                                                      
     l       E           TYP  RCUT    TYP  RCUT                                                     
     2     -5.0393973     23  2.200                                                                 
     2     10.8846608     23  2.200                                                                 
     0     -4.6097109     23  2.200                                                                 
     0      8.2520465     23  2.200                                                                 
     1     -2.7211652     23  2.200                                                                 
     1     21.7055443     23  2.200                                                                 
     3      2.7211652     23  2.300                                                                 
  local pseudopotential read in
  partial core-charges read in
  partial kinetic energy density read in
  atomic valenz-charges read in
  non local Contribution for L=           2  read in
    real space projection operators read in
  non local Contribution for L=           2  read in
    real space projection operators read in
  non local Contribution for L=           0  read in
    real space projection operators read in
  non local Contribution for L=           0  read in
    real space projection operators read in
  non local Contribution for L=           1  read in
    real space projection operators read in
  non local Contribution for L=           1  read in
    real space projection operators read in
    PAW grid and wavefunctions read in
 
   number of l-projection  operators is LMAX  =           6
   number of lm-projection operators is LMMAX =          18
 
 POTCAR:    PAW_PBE Ir 06Sep2000                  
   VRHFIN =Ir: s1d8                                                                                 
   LEXCH  = PE                                                                                      
   EATOM  =   560.1833 eV,   41.1723 Ry                                                             
                                                                                                    
   TITEL  = PAW_PBE Ir 06Sep2000                                                                    
   LULTRA =        F    use ultrasoft PP ?                                                          
   IUNSCR =        1    unscreen: 0-lin 1-nonlin 2-no                                               
   RPACOR =    2.250    partial core radius                                                         
   POMASS =  192.220; ZVAL   =    9.000    mass and valenz                                          
   RCORE  =    2.600    outmost cutoff radius                                                       
   RWIGS  =    2.690; RWIGS  =    1.423    wigner-seitz radius (au A)                               
   ENMAX  =  210.864; ENMIN  =  158.148 eV                                                          
   RCLOC  =    1.857    cutoff for local pot                                                        
   LCOR   =        T    correct aug charges                                                         
   LPAW   =        T    paw PP                                                                      
   EAUG   =  318.962                                                                                
   DEXC   =    0.000                                                                                
   RMAX   =    2.667    core radius for proj-oper                                                   
   RAUG   =    1.300    factor for augmentation sphere                                              
   RDEP   =    2.748    radius for radial grids                                                     
   RDEPT  =    2.300    core radius for aug-charge                                                  
                                                                                                    
   Atomic configuration                                                                             
   16 entries                                                                                       
     n  l   j            E        occ.                                                              
     1  0  0.50    -76100.0449   2.0000                                                             
     2  0  0.50    -13308.1683   2.0000                                                             
     2  1  1.50    -11558.0021   6.0000                                                             
     3  0  0.50     -3110.7274   2.0000                                                             
     3  1  1.50     -2599.2109   6.0000                                                             
     3  2  2.50     -2037.1515  10.0000                                                             
     4  0  0.50      -661.6001   2.0000                                                             
     4  1  1.50      -493.8981   6.0000                                                             
     4  2  2.50      -288.1909  10.0000                                                             
     4  3  3.50       -59.5718  14.0000                                                             
     5  0  0.50       -95.3879   2.0000                                                             
     5  1  1.50       -52.2747   6.0000                                                             
     5  2  2.50        -5.4180   8.0000                                                             
     6  0  0.50        -5.5479   1.0000                                                             
     6  1  1.50        -6.8029   0.0000                                                             
     5  3  2.50        -1.3606   0.0000                                                             
   Description                                                                                      
     l       E           TYP  RCUT    TYP  RCUT                                                     
     2     -5.4179967     23  2.600                                                                 
     2     -6.7785793     23  2.600                                                                 
     0     -5.5478636     23  2.600                                                                 
     0      2.2542272     23  2.600                                                                 
     1     -2.7211652     23  2.600                                                                 
     1     20.4087390     23  2.600                                                                 
  local pseudopotential read in
  partial core-charges read in
  partial kinetic energy density read in
  atomic valenz-charges read in
  non local Contribution for L=           2  read in
    real space projection operators read in
  non local Contribution for L=           2  read in
    real space projection operators read in
  non local Contribution for L=           0  read in
    real space projection operators read in
  non local Contribution for L=           0  read in
    real space projection operators read in
  non local Contribution for L=           1  read in
    real space projection operators read in
  non local Contribution for L=           1  read in
    real space projection operators read in
    PAW grid and wavefunctions read in
 
   number of l-projection  operators is LMAX  =           6
   number of lm-projection operators is LMMAX =          18
 
 POTCAR:    PAW_PBE C 08Apr2002                   
   VRHFIN =C: s2p2                                                                                  
   LEXCH  = PE                                                                                      
   EATOM  =   147.1560 eV,   10.8157 Ry                                                             
                                                                                                    
   TITEL  = PAW_PBE C 08Apr2002                                                                     
   LULTRA =        F    use ultrasoft PP ?                                                          
   IUNSCR =        1    unscreen: 0-lin 1-nonlin 2-no                                               
   RPACOR =    1.200    partial core radius                                                         
   POMASS =   12.011; ZVAL   =    4.000    mass and valenz                                          
   RCORE  =    1.500    outmost cutoff radius                                                       
   RWIGS  =    1.630; RWIGS  =    0.863    wigner-seitz radius (au A)                               
   ENMAX  =  400.000; ENMIN  =  300.000 eV                                                          
   ICORE  =        2    local potential                                                             
   LCOR   =        T    correct aug charges                                                         
   LPAW   =        T    paw PP                                                                      
   EAUG   =  644.873                                                                                
   DEXC   =    0.000                                                                                
   RMAX   =    1.529    core radius for proj-oper                                                   
   RAUG   =    1.300    factor for augmentation sphere                                              
   RDEP   =    1.501    radius for radial grids                                                     
   RDEPT  =    1.300    core radius for aug-charge                                                  
                                                                                                    
   Atomic configuration                                                                             
    4 entries                                                                                       
     n  l   j            E        occ.                                                              
     1  0  0.50      -273.3789   2.0000                                                             
     2  0  0.50       -13.7508   2.0000                                                             
     2  1  0.50        -5.2854   2.0000                                                             
     3  2  1.50        -5.4423   0.0000                                                             
   Description                                                                                      
     l       E           TYP  RCUT    TYP  RCUT                                                     
     0    -13.7508458     23  1.200                                                                 
     0     -8.2022199     23  1.200                                                                 
     1     -5.2854383     23  1.500                                                                 
     1     34.0145650     23  1.500                                                                 
     2     -5.4423304      7  1.500                                                                 
  local pseudopotential read in
  partial core-charges read in
  partial kinetic energy density read in
  atomic valenz-charges read in
  non local Contribution for L=           0  read in
    real space projection operators read in
  non local Contribution for L=           0  read in
    real space projection operators read in
  non local Contribution for L=           1  read in
    real space projection operators read in
  non local Contribution for L=           1  read in
    real space projection operators read in
    PAW grid and wavefunctions read in
 
   number of l-projection  operators is LMAX  =           4
   number of lm-projection operators is LMMAX =           8
 
 Optimization of the real space projectors (new method)

 maximal supplied QI-value         = 16.25
 optimisation between [QCUT,QGAM] = [ 11.38, 22.75] = [ 36.24,144.96] Ry 
 Optimized for a Real-space Cutoff    1.52 Angstroem

   l    n(q)    QCUT    max X(q) W(low)/X(q) W(high)/X(q)  e(spline) 
   2      9    11.376     4.610    0.21E-03    0.10E-03    0.26E-06
   2      9    11.376     8.522    0.33E-03    0.16E-03    0.37E-06
   0     10    11.376    51.609    0.62E-04    0.20E-04    0.13E-06
   0     10    11.376    27.747    0.54E-04    0.20E-04    0.13E-06
   1     10    11.376    20.408    0.13E-04    0.99E-04    0.19E-06
   1     10    11.376    13.425    0.12E-04    0.87E-04    0.17E-06
 Optimization of the real space projectors (new method)

 maximal supplied QI-value         = 14.36
 optimisation between [QCUT,QGAM] = [ 11.35, 22.84] = [ 36.05,146.02] Ry 
 Optimized for a Real-space Cutoff    1.52 Angstroem

   l    n(q)    QCUT    max X(q) W(low)/X(q) W(high)/X(q)  e(spline) 
   2      9    11.346   134.116    0.47E-03    0.13E-03    0.92E-06
   2      9    11.346   130.192    0.47E-03    0.13E-03    0.92E-06
   0     10    11.346    60.310    0.74E-04    0.13E-03    0.69E-06
   0     10    11.346    39.218    0.68E-04    0.12E-03    0.65E-06
   1     10    11.346    18.439    0.15E-03    0.34E-04    0.20E-06
   1     10    11.346    12.760    0.12E-03    0.31E-04    0.16E-06
 Optimization of the real space projectors (new method)

 maximal supplied QI-value         = 25.13
 optimisation between [QCUT,QGAM] = [ 11.31, 22.87] = [ 35.82,146.48] Ry 
 Optimized for a Real-space Cutoff    1.00 Angstroem

   l    n(q)    QCUT    max X(q) W(low)/X(q) W(high)/X(q)  e(spline) 
   0      7    11.310   115.676    0.43E-03    0.13E-02    0.19E-06
   0      7    11.310    87.132    0.43E-03    0.13E-02    0.18E-06
   1      6    11.310     4.429    0.42E-03    0.74E-03    0.11E-06
   1      6    11.310     2.733    0.34E-03    0.55E-03    0.92E-07
  PAW_PBE Cu 22Jun2005                  :
 energy of atom  1       EATOM=-1390.9808
 kinetic energy error for atom=    0.0043 (will be added to EATOM!!)
  PAW_PBE Ir 06Sep2000                  :
 energy of atom  2       EATOM= -560.1833
 kinetic energy error for atom=    0.0018 (will be added to EATOM!!)
  PAW_PBE C 08Apr2002                   :
 energy of atom  3       EATOM= -147.1560
 kinetic energy error for atom=    0.0076 (will be added to EATOM!!)
 
 
 POSCAR: Cu-Ir-C
  positions in direct lattice
  velocities in cartesian coordinates
 exchange correlation table for  LEXCH =        8
   RHO(1)=    0.500       N(1)  =     2000
   RHO(2)=  100.500       N(2)  =     4000

 VTST: version 3.2, (02/03/18)

 CHAIN: initializing optimizer
 
 OPT: Using VASP Conjugate-Gradient optimizer
 CHAIN: Read ICHAIN            0
 
 POSCAR: Cu-Ir-C
  positions in direct lattice
  velocities in cartesian coordinates
 


--------------------------------------------------------------------------------------------------------


 ion  position               nearest neighbor table
   1  0.000  0.000  0.226-   7 2.57   3 2.57   4 2.57   2 2.57   6 2.57   8 2.57  12 2.57  10 2.57
                            16 2.57
   2  0.333  0.000  0.226-   8 2.57   9 2.57   5 2.57   1 2.57   3 2.57  11 2.57   4 2.57  10 2.57
                            17 2.57
   3  0.667  0.000  0.226-   1 2.57   7 2.57   6 2.57   9 2.57   2 2.57  12 2.57   5 2.57  18 2.57
                            11 2.57
   4  0.000  0.333  0.226-   5 2.57   6 2.57   1 2.57   7 2.57   2 2.57  13 2.57   9 2.57  10 2.57
                            15 2.57
   5  0.333  0.333  0.226-   4 2.57   2 2.57   7 2.57  13 2.57   8 2.57   6 2.57   3 2.57  11 2.57
                            14 2.57
   6  0.667  0.333  0.226-   4 2.57   9 2.57  15 2.57   3 2.57   1 2.57   8 2.57  14 2.57   5 2.57
                            12 2.57
   7  0.000  0.667  0.226-   1 2.57   3 2.57  16 2.57  18 2.57   4 2.57   5 2.57   8 2.57   9 2.57
                            13 2.57
   8  0.333  0.667  0.226-   9 2.57   2 2.57  17 2.57   6 2.57   1 2.57   7 2.57   5 2.57  14 2.57
                            16 2.57
   9  0.667  0.667  0.226-   8 2.57   6 2.57   2 2.57  17 2.57   3 2.57   7 2.57   4 2.57  15 2.57
                            18 2.57
  10  0.111  0.111  0.314-  20 2.53  11 2.57  12 2.57  13 2.57   1 2.57   2 2.57   4 2.57  15 2.57
                            16 2.57  17 2.57  26 2.57  19 2.57
  11  0.444  0.111  0.314-  20 2.55  21 2.55  10 2.57  13 2.57   2 2.57  17 2.57  14 2.57  12 2.57
                             5 2.57   3 2.57  18 2.57  27 2.57
  12  0.778  0.111  0.314-  21 2.53  15 2.57  10 2.57  14 2.57  18 2.57   3 2.57   1 2.57  16 2.57
                            11 2.57   6 2.57  19 2.57  25 2.57
  13  0.111  0.444  0.314-  23 2.55  20 2.55  16 2.57  18 2.57  10 2.57  11 2.57  14 2.57   5 2.57
                             4 2.57   7 2.57  15 2.57  22 2.57
  14  0.444  0.444  0.314-  21 2.55  23 2.55  15 2.57  17 2.57  12 2.57  16 2.57  13 2.57  11 2.57
                             6 2.57   8 2.57   5 2.57  24 2.57
  15  0.778  0.444  0.314-  19 2.56  24 2.56  22 2.56  14 2.57  17 2.57  12 2.57   6 2.57  18 2.57
                            10 2.57   9 2.57  13 2.57   4 2.57
  16  0.111  0.778  0.314-  23 2.53  18 2.57  13 2.57   7 2.57  14 2.57  17 2.57  12 2.57  10 2.57
                             8 2.57   1 2.57  25 2.57  26 2.57
  17  0.444  0.778  0.314-  26 2.56  27 2.56  24 2.56  14 2.57  15 2.57   8 2.57   9 2.57  11 2.57
                            16 2.57  18 2.57  10 2.57   2 2.57
  18  0.778  0.778  0.314-  25 2.56  22 2.56  27 2.56  16 2.57  13 2.57   7 2.57  15 2.57  12 2.57
                            17 2.57   9 2.57   3 2.57  11 2.57
  19  0.888  0.223  0.402-  28 2.55  21 2.55  20 2.55  22 2.56  24 2.56  15 2.56  32 2.56  31 2.56
                            12 2.57  10 2.57  25 2.58  26 2.58
  20  0.221  0.221  0.401-  10 2.53  11 2.55  13 2.55  26 2.55  19 2.55  36 2.55  27 2.57  22 2.57
                            29 2.59  31 2.59  23 2.59  21 2.59
  21  0.558  0.221  0.401-  12 2.53  14 2.55  11 2.55  19 2.55  25 2.55  36 2.55  24 2.57  27 2.57
                            32 2.59  30 2.59  20 2.59  23 2.59
  22  0.888  0.556  0.402-  35 2.54  24 2.56  27 2.56  19 2.56  25 2.56  18 2.56  15 2.56  13 2.57
                            23 2.57  20 2.57  31 2.57  33 2.57
  23  0.221  0.558  0.401-  16 2.53  13 2.55  14 2.55  25 2.55  26 2.55  36 2.55  22 2.57  24 2.57
                            33 2.59  34 2.59  20 2.59  21 2.59
  24  0.556  0.556  0.402-  35 2.54  22 2.56  27 2.56  19 2.56  26 2.56  15 2.56  17 2.56  14 2.57
                            21 2.57  23 2.57  32 2.57  34 2.57
  25  0.888  0.888  0.402-  28 2.55  21 2.55  23 2.55  22 2.56  27 2.56  18 2.56  33 2.56  30 2.56
                            16 2.57  12 2.57  19 2.58  26 2.58
  26  0.223  0.888  0.402-  28 2.55  20 2.55  23 2.55  27 2.56  24 2.56  17 2.56  29 2.56  34 2.56
                            10 2.57  16 2.57  25 2.58  19 2.58
  27  0.556  0.888  0.402-  35 2.54  24 2.56  22 2.56  26 2.56  25 2.56  17 2.56  18 2.56  11 2.57
                            20 2.57  21 2.57  29 2.57  30 2.57
  28  0.000  0.000  0.489-  25 2.55  19 2.55  26 2.55  33 2.56  30 2.56  31 2.56  29 2.56  32 2.56
                            34 2.56
  29  0.333  0.999  0.490-  34 2.55  28 2.56  26 2.56  35 2.57  31 2.57  27 2.57  36 2.57  30 2.58
                            20 2.59
  30  0.668  0.999  0.490-  33 2.55  28 2.56  25 2.56  35 2.57  32 2.57  27 2.57  36 2.57  29 2.58
                            21 2.59
  31  0.999  0.333  0.490-  32 2.55  28 2.56  19 2.56  35 2.57  29 2.57  22 2.57  36 2.57  33 2.58
                            20 2.59
  32  0.668  0.333  0.490-  31 2.55  28 2.56  19 2.56  35 2.57  30 2.57  24 2.57  36 2.57  34 2.58
                            21 2.59
  33  0.999  0.668  0.490-  30 2.55  28 2.56  25 2.56  35 2.57  34 2.57  22 2.57  36 2.57  31 2.58
                            23 2.59
  34  0.333  0.668  0.490-  29 2.55  28 2.56  26 2.56  35 2.57  33 2.57  24 2.57  36 2.57  32 2.58
                            23 2.59
  35  0.667  0.667  0.489-  24 2.54  27 2.54  22 2.54  34 2.57  32 2.57  29 2.57  30 2.57  33 2.57
                            31 2.57
  36  0.333  0.333  0.488-  37 1.75  23 2.55  20 2.55  21 2.55  31 2.57  29 2.57  33 2.57  34 2.57
                            32 2.57  30 2.57
  37  0.333  0.333  0.561-  36 1.75
 
  LATTYP: Found a hexagonal cell.
 ALAT       =     7.6967864036
 C/A-ratio  =     3.0908716217
  
  Lattice vectors:
  
 A1 = (  -3.8483927580,  -6.6656128093,   0.0000000000)
 A2 = (   7.6967864037,   0.0000000000,   0.0000000000)
 A3 = (   0.0000000000,   0.0000000000,  23.7897786731)


Analysis of symmetry for initial positions (statically):
=====================================================================
 Subroutine PRICEL returns:
 Original cell was already a primitive cell.
 

 Routine SETGRP: Setting up the symmetry group for a 
 hexagonal supercell.


 Subroutine GETGRP returns: Found  6 space group operations
 (whereof  6 operations were pure point group operations)
 out of a pool of 24 trial point group operations.


The static configuration has the point symmetry C_3v.


Analysis of symmetry for dynamics (positions and initial velocities):
=====================================================================
 Subroutine PRICEL returns:
 Original cell was already a primitive cell.
 

 Routine SETGRP: Setting up the symmetry group for a 
 hexagonal supercell.


 Subroutine GETGRP returns: Found  6 space group operations
 (whereof  6 operations were pure point group operations)
 out of a pool of 24 trial point group operations.


The dynamic configuration has the point symmetry C_3v.


Analysis of constrained symmetry for selective dynamics:
=====================================================================
 Subroutine PRICEL returns:
 Original cell was already a primitive cell.
 

 Routine SETGRP: Setting up the symmetry group for a 
 hexagonal supercell.


 Subroutine GETGRP returns: Found  6 space group operations
 (whereof  6 operations were pure point group operations)
 out of a pool of 24 trial point group operations.


The constrained configuration has the point symmetry C_3v.


 Subroutine INISYM returns: Found  6 space group operations
 (whereof  6 operations are pure point group operations),
 and found     1 'primitive' translations


----------------------------------------------------------------------------------------

                                     Primitive cell                                     

  volume of cell :    1220.5060

  direct lattice vectors                    reciprocal lattice vectors
     7.696786404  0.000000000  0.000000000     0.129924354 -0.075011849  0.000000000
     3.848392758  6.665612809  0.000000000     0.000000000  0.150023716  0.000000000
     0.000000000  0.000000000 23.789778673     0.000000000  0.000000000  0.042034859

  length of vectors
     7.696786404  7.696786404 23.789778673     0.150023716  0.150023716  0.042034859

  position of ions in fractional coordinates (direct lattice)
     0.000000000  0.000000000  0.225792754
     0.333333343  0.000000000  0.225792754
     0.666666687  0.000000000  0.225792754
     1.000000000  0.333333343  0.225792754
     0.333333313  0.333333343  0.225792754
     0.666666687  0.333333343  0.225792754
     1.000000000  0.666666687  0.225792754
     0.333333373  0.666666687  0.225792754
     0.666666627  0.666666687  0.225792754
     0.111111119  0.111111112  0.313847389
     0.444444418  0.111111112  0.313847389
     0.777777791  0.111111112  0.313847389
     0.111111119  0.444444448  0.313847389
     0.444444478  0.444444448  0.313847389
     0.777777731  0.444444448  0.313847389
     0.111111112  0.777777731  0.313847389
     0.444444478  0.777777731  0.313847389
     0.777777851  0.777777731  0.313847389
     0.888405840  0.223188336  0.401925076
     0.221047320  0.221047305  0.400651644
     0.557905420  0.221047305  0.400651644
     0.888076192  0.555961874  0.401864029
     0.221047290  0.557905360  0.400651644
     0.555961934  0.555961874  0.401864029
     0.888405840  0.888405840  0.401925076
     0.223188351  0.888405840  0.401925076
     0.555961874  0.888076192  0.401864029
     0.000000000  0.000000000  0.488866090
     0.332763824  0.999227797  0.490172297
     0.668008409  0.999227797  0.490172297
     0.999227797  0.332763824  0.490172297
     0.668008409  0.332763824  0.490172297
     0.999227797  0.668008409  0.490172297
     0.332763854  0.668008409  0.490172297
     0.666666627  0.666666687  0.488829607
     0.333333313  0.333333343  0.487609429
     0.333333313  0.333333343  0.561229837

  ion indices of the primitive-cell ions
   primitive index   ion index
                 1           1
                 2           2
                 3           3
                 4           4
                 5           5
                 6           6
                 7           7
                 8           8
                 9           9
                10          10
                11          11
                12          12
                13          13
                14          14
                15          15
                16          16
                17          17
                18          18
                19          19
                20          20
                21          21
                22          22
                23          23
                24          24
                25          25
                26          26
                27          27
                28          28
                29          29
                30          30
                31          31
                32          32
                33          33
                34          34
                35          35
                36          36
                37          37

----------------------------------------------------------------------------------------

 
 
 KPOINTS: Automatic mesh                          

Automatic generation of k-mesh.
 Grid dimensions read from file:
 generate k-points for:    8    8    1

 Generating k-lattice:

  Cartesian coordinates                     Fractional coordinates (reciprocal lattice)
     0.016240544 -0.009376481  0.000000000     0.125000000 -0.000000000  0.000000000
     0.000000000  0.018752964  0.000000000     0.000000000  0.125000000  0.000000000
     0.000000000  0.000000000  0.042034859     0.000000000  0.000000000  1.000000000

  Length of vectors
     0.018752964  0.018752964  0.042034859

  Shift w.r.t. Gamma in fractional coordinates (k-lattice)
     0.000000000  0.000000000  0.000000000

 TETIRR: Found     36 inequivalent tetrahedra from      384
 
 Subroutine IBZKPT returns following result:
 ===========================================
 
 Found     10 irreducible k-points:
 
 Following reciprocal coordinates:
            Coordinates               Weight
  0.000000  0.000000  0.000000      1.000000
  0.125000 -0.000000  0.000000      6.000000
  0.250000 -0.000000  0.000000      6.000000
  0.375000 -0.000000  0.000000      6.000000
  0.500000 -0.000000  0.000000      3.000000
  0.250000  0.125000  0.000000      6.000000
  0.375000  0.125000  0.000000     12.000000
  0.500000  0.125000  0.000000     12.000000
  0.500000  0.250000  0.000000      6.000000
 -0.375000  0.250000  0.000000      6.000000
 
 Following cartesian coordinates:
            Coordinates               Weight
  0.000000  0.000000  0.000000      1.000000
  0.016241 -0.009376  0.000000      6.000000
  0.032481 -0.018753  0.000000      6.000000
  0.048722 -0.028129  0.000000      6.000000
  0.064962 -0.037506  0.000000      3.000000
  0.032481  0.000000  0.000000      6.000000
  0.048722 -0.009376  0.000000     12.000000
  0.064962 -0.018753  0.000000     12.000000
  0.064962  0.000000  0.000000      6.000000
 -0.048722  0.065635  0.000000      6.000000
 


--------------------------------------------------------------------------------------------------------




 Dimension of arrays:
   k-points           NKPTS =     10   k-points in BZ     NKDIM =     10   number of bands    NBANDS=    252
   number of dos      NEDOS =    301   number of ions     NIONS =     37
   non local maximal  LDIM  =      6   non local SUM 2l+1 LMDIM =     18
   total plane-waves  NPLWV = 246960
   max r-space proj   IRMAX =   3018   max aug-charges    IRDMAX=  14830
   dimension x,y,z NGX =    42 NGY =   42 NGZ =  140
   dimension x,y,z NGXF=    84 NGYF=   84 NGZF=  280
   support grid    NGXF=    84 NGYF=   84 NGZF=  280
   ions per type =              35   1   1
   NGX,Y,Z   is equivalent  to a cutoff of   9.07,  9.07,  9.78 a.u.
   NGXF,Y,Z  is equivalent  to a cutoff of  18.14, 18.14, 19.57 a.u.

 SYSTEM =  unknown system                          
 POSCAR =  Cu-Ir-C                                 

 Startparameter for this run:
   NWRITE =      2    write-flag & timer
   PREC   = normal    normal or accurate (medium, high low for compatibility)
   ISTART =      0    job   : 0-new  1-cont  2-samecut
   ICHARG =     11    charge: 1-file 2-atom 10-const
   ISPIN  =      1    spin polarized calculation?
   LNONCOLLINEAR =      F non collinear calculations
   LSORBIT =      F    spin-orbit coupling
   INIWAV =      1    electr: 0-lowe 1-rand  2-diag
   LASPH  =      F    aspherical Exc in radial PAW
   METAGGA=      F    non-selfconsistent MetaGGA calc.

 Electronic Relaxation 1
   ENCUT  =  500.0 eV  36.75 Ry    6.06 a.u.  14.03 14.03 43.37*2*pi/ulx,y,z
   ENINI  =  500.0     initial cutoff
   ENAUG  =  644.9 eV  augmentation charge cutoff
   NELM   =    150;   NELMIN=  2; NELMDL= -5     # of ELM steps 
   EDIFF  = 0.1E-04   stopping-criterion for ELM
   LREAL  =      T    real-space projection
   NLSPLINE    = F    spline interpolate recip. space projectors
   LCOMPAT=      F    compatible to vasp.4.4
   GGA_COMPAT  = T    GGA compatible to vasp.4.4-vasp.4.6
   LMAXPAW     = -100 max onsite density
   LMAXMIX     =    2 max onsite mixed and CHGCAR
   VOSKOWN=      0    Vosko Wilk Nusair interpolation
   ROPT   =   -0.00050  -0.00050  -0.00050
 Ionic relaxation
   EDIFFG = -.1E-01   stopping-criterion for IOM
   NSW    =      0    number of steps for IOM
   NBLOCK =      1;   KBLOCK =      1    inner block; outer block 
   IBRION =     -1    ionic relax: 0-MD 1-quasi-New 2-CG
   NFREE  =      1    steps in history (QN), initial steepest desc. (CG)
   ISIF   =      2    stress and relaxation
   IWAVPR =     10    prediction:  0-non 1-charg 2-wave 3-comb
   ISYM   =      2    0-nonsym 1-usesym 2-fastsym
   LCORR  =      T    Harris-Foulkes like correction to forces

   POTIM  = 0.5000    time-step for ionic-motion
   TEIN   =    0.0    initial temperature
   TEBEG  =    0.0;   TEEND  =   0.0 temperature during run
   SMASS  =  -3.00    Nose mass-parameter (am)
   estimated Nose-frequenzy (Omega)   =  0.10E-29 period in steps = 0.13E+47 mass=  -0.135E-26a.u.
   SCALEE = 1.0000    scale energy and forces
   NPACO  =    256;   APACO  = 16.0  distance and # of slots for P.C.
   PSTRESS=    0.0 pullay stress

  Mass of Ions in am
   POMASS =  63.55192.22 12.01
  Ionic Valenz
   ZVAL   =  11.00  9.00  4.00
  Atomic Wigner-Seitz radii
   RWIGS  =  -1.00 -1.00 -1.00
  virtual crystal weights 
   VCA    =   1.00  1.00  1.00
   NELECT =     398.0000    total number of electrons
   NUPDOWN=      -1.0000    fix difference up-down

 DOS related values:
   EMIN   =  10.00;   EMAX   =-10.00  energy-range for DOS
   EFERMI =   0.00
   ISMEAR =    -5;   SIGMA  =   0.10  broadening in eV -4-tet -1-fermi 0-gaus

 Electronic relaxation 2 (details)
   IALGO  =     68    algorithm
   LDIAG  =      T    sub-space diagonalisation (order eigenvalues)
   LSUBROT=      F    optimize rotation matrix (better conditioning)
   TURBO    =      0    0=normal 1=particle mesh
   IRESTART =      0    0=no restart 2=restart with 2 vectors
   NREBOOT  =      0    no. of reboots
   NMIN     =      0    reboot dimension
   EREF     =   0.00    reference energy to select bands
   IMIX   =      4    mixing-type and parameters
     AMIX     =   0.40;   BMIX     =  1.00
     AMIX_MAG =   1.60;   BMIX_MAG =  1.00
     AMIN     =   0.10
     WC   =   100.;   INIMIX=   1;  MIXPRE=   1;  MAXMIX= -45

 Intra band minimization:
   WEIMIN = 0.0000     energy-eigenvalue tresh-hold
   EBREAK =  0.99E-08  absolut break condition
   DEPER  =   0.30     relativ break condition  

   TIME   =   0.40     timestep for ELM

  volume/ion in A,a.u.               =      32.99       222.60
  Fermi-wavevector in a.u.,A,eV,Ry     =   1.126823  2.129388 17.275741  1.269731
  Thomas-Fermi vector in A             =   2.263507
 
 Write flags
   LWAVE        =      F    write WAVECAR
   LDOWNSAMPLE  =      F    k-point downsampling of WAVECAR
   LCHARG       =      F    write CHGCAR
   LVTOT        =      F    write LOCPOT, total local potential
   LVHAR        =      F    write LOCPOT, Hartree potential only
   LELF         =      F    write electronic localiz. function (ELF)
   LORBIT       =     10    0 simple, 1 ext, 2 COOP (PROOUT), +10 PAW based schemes


 Dipole corrections
   LMONO  =      F    monopole corrections only (constant potential shift)
   LDIPOL =      F    correct potential (dipole corrections)
   IDIPOL =      0    1-x, 2-y, 3-z, 4-all directions 
   EPSILON=  1.0000000 bulk dielectric constant

 Exchange correlation treatment:
   GGA     =    --    GGA type
   LEXCH   =     8    internal setting for exchange type
   VOSKOWN=      0    Vosko Wilk Nusair interpolation
   LHFCALC =     F    Hartree Fock is set to
   LHFONE  =     F    Hartree Fock one center treatment
   AEXX    =    0.0000 exact exchange contribution

 Linear response parameters
   LEPSILON=     F    determine dielectric tensor
   LRPA    =     F    only Hartree local field effects (RPA)
   LNABLA  =     F    use nabla operator in PAW spheres
   LVEL    =     F    velocity operator in full k-point grid
   LINTERFAST=   F  fast interpolation
   KINTER  =     0    interpolate to denser k-point grid
   CSHIFT  =0.1000    complex shift for real part using Kramers Kronig
   OMEGAMAX=  -1.0    maximum frequency
   DEG_THRESHOLD= 0.2000000E-02 threshold for treating states as degnerate
   RTIME   =   -0.100 relaxation time in fs
  (WPLASMAI=    0.000 imaginary part of plasma frequency in eV, 0.658/RTIME)
   DFIELD  = 0.0000000 0.0000000 0.0000000 field for delta impulse in time
 
 Orbital magnetization related:
   ORBITALMAG=     F  switch on orbital magnetization
   LCHIMAG   =     F  perturbation theory with respect to B field
   DQ        =  0.001000  dq finite difference perturbation B field
   LLRAUG    =     F  two centre corrections for induced B field



--------------------------------------------------------------------------------------------------------


 Static calculation
 charge density and potential remain constant during run
 non-spin polarized calculation
 RMM-DIIS sequential band-by-band and
  variant of blocked Davidson during initial phase
 perform sub-space diagonalisation
    before iterative eigenvector-optimisation
 no mixing
 using additional bands           53
 real space projection scheme for non local part
 use partial core corrections
 calculate Harris-corrections to forces 
   (improved forces if not selfconsistent)
 use gradient corrections 
 WARNING: stress and forces are not correct
  (second derivative of E(xc) not defined)
 use of overlap-Matrix (Vanderbilt PP)
 Fermi weights with tetrahedron method with Bloechl corrections


--------------------------------------------------------------------------------------------------------


  energy-cutoff  :      500.00
  volume of cell :     1220.51
      direct lattice vectors                 reciprocal lattice vectors
     7.696786404  0.000000000  0.000000000     0.129924354 -0.075011849  0.000000000
     3.848392758  6.665612809  0.000000000     0.000000000  0.150023716  0.000000000
     0.000000000  0.000000000 23.789778673     0.000000000  0.000000000  0.042034859

  length of vectors
     7.696786404  7.696786404 23.789778673     0.150023716  0.150023716  0.042034859


 
 k-points in units of 2pi/SCALE and weight: Automatic mesh                          
   0.00000000  0.00000000  0.00000000       0.016
   0.01624054 -0.00937648  0.00000000       0.094
   0.03248109 -0.01875296  0.00000000       0.094
   0.04872163 -0.02812944  0.00000000       0.094
   0.06496218 -0.03750592  0.00000000       0.047
   0.03248109  0.00000000  0.00000000       0.094
   0.04872163 -0.00937648  0.00000000       0.188
   0.06496218 -0.01875296  0.00000000       0.188
   0.06496218  0.00000000  0.00000000       0.094
  -0.04872163  0.06563537  0.00000000       0.094
 
 k-points in reciprocal lattice and weights: Automatic mesh                          
   0.00000000  0.00000000  0.00000000       0.016
   0.12500000 -0.00000000  0.00000000       0.094
   0.25000000 -0.00000000  0.00000000       0.094
   0.37500000 -0.00000000  0.00000000       0.094
   0.50000000 -0.00000000  0.00000000       0.047
   0.25000000  0.12500000  0.00000000       0.094
   0.37500000  0.12500000  0.00000000       0.188
   0.50000000  0.12500000  0.00000000       0.188
   0.50000000  0.25000000  0.00000000       0.094
  -0.37500000  0.25000000  0.00000000       0.094
 
 position of ions in fractional coordinates (direct lattice) 
   0.00000000  0.00000000  0.22579275
   0.33333334  0.00000000  0.22579275
   0.66666669  0.00000000  0.22579275
   0.00000000  0.33333334  0.22579275
   0.33333331  0.33333334  0.22579275
   0.66666669  0.33333334  0.22579275
   0.00000000  0.66666669  0.22579275
   0.33333337  0.66666669  0.22579275
   0.66666663  0.66666669  0.22579275
   0.11111112  0.11111111  0.31384739
   0.44444442  0.11111111  0.31384739
   0.77777779  0.11111111  0.31384739
   0.11111112  0.44444445  0.31384739
   0.44444448  0.44444445  0.31384739
   0.77777773  0.44444445  0.31384739
   0.11111111  0.77777773  0.31384739
   0.44444448  0.77777773  0.31384739
   0.77777785  0.77777773  0.31384739
   0.88840584  0.22318834  0.40192508
   0.22104732  0.22104730  0.40065164
   0.55790542  0.22104730  0.40065164
   0.88807619  0.55596187  0.40186403
   0.22104729  0.55790536  0.40065164
   0.55596193  0.55596187  0.40186403
   0.88840584  0.88840584  0.40192508
   0.22318835  0.88840584  0.40192508
   0.55596187  0.88807619  0.40186403
   0.00000000  0.00000000  0.48886609
   0.33276382  0.99922780  0.49017230
   0.66800841  0.99922780  0.49017230
   0.99922780  0.33276382  0.49017230
   0.66800841  0.33276382  0.49017230
   0.99922780  0.66800841  0.49017230
   0.33276385  0.66800841  0.49017230
   0.66666663  0.66666669  0.48882961
   0.33333331  0.33333334  0.48760943
   0.33333331  0.33333334  0.56122984
 
 position of ions in cartesian coordinates  (Angst):
   0.00000000  0.00000000  5.37155964
   2.56559554  0.00000000  5.37155964
   5.13119109  0.00000000  5.37155964
   1.28279762  2.22187100  5.37155964
   3.84839293  2.22187100  5.37155964
   6.41398872  2.22187100  5.37155964
   2.56559525  4.44374201  5.37155964
   5.13119102  4.44374201  5.37155964
   7.69678588  4.44374201  5.37155964
   1.28279775  0.74062365  7.46635991
   3.84839295  0.74062365  7.46635991
   6.41398873  0.74062365  7.46635991
   2.56559535  2.96249461  7.46635991
   5.13119101  2.96249461  7.46635991
   7.69678586  2.96249461  7.46635991
   3.84839268  5.18436521  7.46635991
   6.41398840  5.18436521  7.46635991
   8.97958418  5.18436521  7.46635991
   7.69678637  1.48768703  9.56170860
   2.55203085  1.47341575  9.53141393
   5.14475570  1.47341575  9.53141393
   8.97489241  3.70582659  9.56025631
   3.84839272  3.71878111  9.53141393
   6.41867990  3.70582659  9.56025631
  10.25680459  5.92176935  9.56170860
   5.13676766  5.92176935  9.56170860
   7.69678578  5.91957204  9.56025631
   0.00000000  0.00000000 11.63001609
   6.40663309  6.66046561 11.66109047
   8.98693906  6.66046561 11.66109047
   8.97144882  2.21807481 11.66109047
   6.42212393  2.21807481 11.66109047
  10.26160165  4.45268541 11.66109047
   5.13197103  4.45268541 11.66109047
   7.69678588  4.44374201 11.62914817
   3.84839293  2.22187100 11.60012040
   3.84839293  2.22187100 13.35153361
 


--------------------------------------------------------------------------------------------------------


 k-point   1 :   0.0000 0.0000 0.0000  plane waves:   30861
 k-point   2 :   0.1250-0.0000 0.0000  plane waves:   30923
 k-point   3 :   0.2500-0.0000 0.0000  plane waves:   31010
 k-point   4 :   0.3750-0.0000 0.0000  plane waves:   30958
 k-point   5 :   0.5000-0.0000 0.0000  plane waves:   30974
 k-point   6 :   0.2500 0.1250 0.0000  plane waves:   30938
 k-point   7 :   0.3750 0.1250 0.0000  plane waves:   30990
 k-point   8 :   0.5000 0.1250 0.0000  plane waves:   31017
 k-point   9 :   0.5000 0.2500 0.0000  plane waves:   30996
 k-point  10 :  -0.3750 0.2500 0.0000  plane waves:   31036

 maximum and minimum number of plane-waves per node :     31036    30861

 maximum number of plane-waves:     31036
 maximum index in each direction: 
   IXMAX=   14   IYMAX=   14   IZMAX=   43
   IXMIN=  -14   IYMIN=  -14   IZMIN=  -43


 serial   3D FFT for wavefunctions
 parallel 3D FFT for charge:
    minimum data exchange during FFTs selected (reduces bandwidth)


 total amount of memory used by VASP MPI-rank0   112559. kBytes
=======================================================================

   base      :      30000. kBytes
   nonlr-proj:      18462. kBytes
   fftplans  :       3394. kBytes
   grid      :      14446. kBytes
   one-center:        575. kBytes
   wavefun   :      45682. kBytes
 
     INWAV:  cpu time    0.0000: real time    0.0000
 initial charge density was supplied:
 number of electron     397.9999685 magnetization 
 keeping initial charge density in first step


--------------------------------------------------------------------------------------------------------


 Maximum index for non-local projection operator         2922
 Maximum index for augmentation-charges          656 (set IRDMAX)


--------------------------------------------------------------------------------------------------------


 First call to EWALD:  gamma=   0.166
 Maximum number of real-space cells 4x 4x 2
 Maximum number of reciprocal cells 2x 2x 6

    FEWALD:  cpu time    0.0013: real time    0.0013


--------------------------------------- Iteration      1(   1)  ---------------------------------------


    POTLOK:  cpu time    0.0313: real time    0.0317
    SETDIJ:  cpu time    0.0047: real time    0.0048
     EDDAV:  cpu time    6.4336: real time    6.4354
 BZINTS: Fermi energy:   12.910775;  398.000000 electrons
         Band energy: 0.236723E+04;  BLOECHL correction:   -0.028287
       DOS:  cpu time    0.0101: real time    0.0102
    --------------------------------------------
      LOOP:  cpu time    6.4797: real time    6.4821

 eigenvalue-minimisations  :  5040
 total energy-change (2. order) : 0.3536032E+04  (-0.1702099E+05)
 number of electron     397.9999685 magnetization 
 augmentation part      397.9999685 magnetization 

 Free energy of the ion-electron system (eV)
  ---------------------------------------------------
  alpha Z        PSCENC =       806.81644318
  Ewald energy   TEWEN  =    198017.95358909
  -Hartree energ DENC   =   -244869.18973863
  -exchange      EXHF   =         0.00000000
  -V(xc)+E(xc)   XCENC  =      1553.87353282
  PAW double counting   =     46696.81306267   -50428.97631620
  entropy T*S    EENTRO =         0.00000000
  eigenvalues    EBANDS =      2367.23253052
  atomic energy  EATOM  =     49391.50901832
  Solvation  Ediel_sol  =         0.00000000
  ---------------------------------------------------
  free energy    TOTEN  =      3536.03212177 eV

  energy without entropy =     3536.03212177  energy(sigma->0) =     3536.03212177


--------------------------------------------------------------------------------------------------------




--------------------------------------- Iteration      1(   2)  ---------------------------------------


     EDDAV:  cpu time    6.4017: real time    6.4049
 BZINTS: Fermi energy:    2.462997;  398.000000 electrons
         Band energy:-0.851871E+03;  BLOECHL correction:   -0.013277
       DOS:  cpu time    0.0103: real time    0.0269
    --------------------------------------------
      LOOP:  cpu time    6.4121: real time    6.4318

 eigenvalue-minimisations  :  5040
 total energy-change (2. order) :-0.3219103E+04  (-0.3081303E+04)
 number of electron     397.9999685 magnetization 
 augmentation part      397.9999685 magnetization 

 Free energy of the ion-electron system (eV)
  ---------------------------------------------------
  alpha Z        PSCENC =       806.81644318
  Ewald energy   TEWEN  =    198017.95358909
  -Hartree energ DENC   =   -244869.18973863
  -exchange      EXHF   =         0.00000000
  -V(xc)+E(xc)   XCENC  =      1553.87353282
  PAW double counting   =     46696.81306267   -50428.97631620
  entropy T*S    EENTRO =         0.00000000
  eigenvalues    EBANDS =      -851.87066120
  atomic energy  EATOM  =     49391.50901832
  Solvation  Ediel_sol  =         0.00000000
  ---------------------------------------------------
  free energy    TOTEN  =       316.92893005 eV

  energy without entropy =      316.92893005  energy(sigma->0) =      316.92893005


--------------------------------------------------------------------------------------------------------




--------------------------------------- Iteration      1(   3)  ---------------------------------------


     EDDAV:  cpu time    6.8635: real time    6.8638
 BZINTS: Fermi energy:   -0.296696;  398.000000 electrons
         Band energy:-0.128244E+04;  BLOECHL correction:   -0.096452
       DOS:  cpu time    0.0096: real time    0.0096
    --------------------------------------------
      LOOP:  cpu time    6.8731: real time    6.8734

 eigenvalue-minimisations  :  5488
 total energy-change (2. order) :-0.4305668E+03  (-0.4051041E+03)
 number of electron     397.9999685 magnetization 
 augmentation part      397.9999685 magnetization 

 Free energy of the ion-electron system (eV)
  ---------------------------------------------------
  alpha Z        PSCENC =       806.81644318
  Ewald energy   TEWEN  =    198017.95358909
  -Hartree energ DENC   =   -244869.18973863
  -exchange      EXHF   =         0.00000000
  -V(xc)+E(xc)   XCENC  =      1553.87353282
  PAW double counting   =     46696.81306267   -50428.97631620
  entropy T*S    EENTRO =         0.00000000
  eigenvalues    EBANDS =     -1282.43743303
  atomic energy  EATOM  =     49391.50901832
  Solvation  Ediel_sol  =         0.00000000
  ---------------------------------------------------
  free energy    TOTEN  =      -113.63784178 eV

  energy without entropy =     -113.63784178  energy(sigma->0) =     -113.63784178


--------------------------------------------------------------------------------------------------------




--------------------------------------- Iteration      1(   4)  ---------------------------------------


     EDDAV:  cpu time    7.8262: real time    7.8266
 BZINTS: Fermi energy:   -0.429809;  398.000000 electrons
         Band energy:-0.130566E+04;  BLOECHL correction:   -0.085846
       DOS:  cpu time    0.0091: real time    0.0091
    --------------------------------------------
      LOOP:  cpu time    7.8353: real time    7.8357

 eigenvalue-minimisations  :  6440
 total energy-change (2. order) :-0.2322668E+02  (-0.2273198E+02)
 number of electron     397.9999685 magnetization 
 augmentation part      397.9999685 magnetization 

 Free energy of the ion-electron system (eV)
  ---------------------------------------------------
  alpha Z        PSCENC =       806.81644318
  Ewald energy   TEWEN  =    198017.95358909
  -Hartree energ DENC   =   -244869.18973863
  -exchange      EXHF   =         0.00000000
  -V(xc)+E(xc)   XCENC  =      1553.87353282
  PAW double counting   =     46696.81306267   -50428.97631620
  entropy T*S    EENTRO =         0.00000000
  eigenvalues    EBANDS =     -1305.66411336
  atomic energy  EATOM  =     49391.50901832
  Solvation  Ediel_sol  =         0.00000000
  ---------------------------------------------------
  free energy    TOTEN  =      -136.86452211 eV

  energy without entropy =     -136.86452211  energy(sigma->0) =     -136.86452211


--------------------------------------------------------------------------------------------------------




--------------------------------------- Iteration      1(   5)  ---------------------------------------


     EDDAV:  cpu time    7.7034: real time    7.7038
 BZINTS: Fermi energy:   -0.432771;  398.000000 electrons
         Band energy:-0.130627E+04;  BLOECHL correction:   -0.085144
       DOS:  cpu time    0.0102: real time    0.0102
    --------------------------------------------
      LOOP:  cpu time    7.7136: real time    7.7140

 eigenvalue-minimisations  :  6328
 total energy-change (2. order) :-0.6031626E+00  (-0.6027106E+00)
 number of electron     397.9999685 magnetization 
 augmentation part      397.9999685 magnetization 

 Free energy of the ion-electron system (eV)
  ---------------------------------------------------
  alpha Z        PSCENC =       806.81644318
  Ewald energy   TEWEN  =    198017.95358909
  -Hartree energ DENC   =   -244869.18973863
  -exchange      EXHF   =         0.00000000
  -V(xc)+E(xc)   XCENC  =      1553.87353282
  PAW double counting   =     46696.81306267   -50428.97631620
  entropy T*S    EENTRO =         0.00000000
  eigenvalues    EBANDS =     -1306.26727599
  atomic energy  EATOM  =     49391.50901832
  Solvation  Ediel_sol  =         0.00000000
  ---------------------------------------------------
  free energy    TOTEN  =      -137.46768474 eV

  energy without entropy =     -137.46768474  energy(sigma->0) =     -137.46768474


--------------------------------------------------------------------------------------------------------




--------------------------------------- Iteration      1(   6)  ---------------------------------------


    EDDIAG:  cpu time    1.1985: real time    1.1988
  RMM-DIIS:  cpu time    3.6926: real time    3.6927
    ORTHCH:  cpu time    0.2239: real time    0.2239
 BZINTS: Fermi energy:   -0.432786;  398.000000 electrons
         Band energy:-0.130628E+04;  BLOECHL correction:   -0.085141
       DOS:  cpu time    0.0100: real time    0.0100
    --------------------------------------------
      LOOP:  cpu time    5.1249: real time    5.1253

 eigenvalue-minimisations  :  5413
 total energy-change (2. order) :-0.1514287E-01  (-0.1514401E-01)
 number of electron     397.9999685 magnetization 
 augmentation part      397.9999685 magnetization 

 Free energy of the ion-electron system (eV)
  ---------------------------------------------------
  alpha Z        PSCENC =       806.81644318
  Ewald energy   TEWEN  =    198017.95358909
  -Hartree energ DENC   =   -244869.18973863
  -exchange      EXHF   =         0.00000000
  -V(xc)+E(xc)   XCENC  =      1553.87353282
  PAW double counting   =     46696.81306267   -50428.97631620
  entropy T*S    EENTRO =         0.00000000
  eigenvalues    EBANDS =     -1306.28241886
  atomic energy  EATOM  =     49391.50901832
  Solvation  Ediel_sol  =         0.00000000
  ---------------------------------------------------
  free energy    TOTEN  =      -137.48282761 eV

  energy without entropy =     -137.48282761  energy(sigma->0) =     -137.48282761


--------------------------------------------------------------------------------------------------------




--------------------------------------- Iteration      1(   7)  ---------------------------------------


    EDDIAG:  cpu time    1.1991: real time    1.1993
  RMM-DIIS:  cpu time    5.1215: real time    5.1217
    ORTHCH:  cpu time    0.2237: real time    0.2237
 BZINTS: Fermi energy:   -0.432793;  398.000000 electrons
         Band energy:-0.130629E+04;  BLOECHL correction:   -0.085139
       DOS:  cpu time    0.0102: real time    0.0102
    --------------------------------------------
      LOOP:  cpu time    6.5544: real time    6.5548

 eigenvalue-minimisations  :  7672
 total energy-change (2. order) :-0.6604548E-02  (-0.6565016E-02)
 number of electron     397.9999685 magnetization 
 augmentation part      397.9999685 magnetization 

 Free energy of the ion-electron system (eV)
  ---------------------------------------------------
  alpha Z        PSCENC =       806.81644318
  Ewald energy   TEWEN  =    198017.95358909
  -Hartree energ DENC   =   -244869.18973863
  -exchange      EXHF   =         0.00000000
  -V(xc)+E(xc)   XCENC  =      1553.87353282
  PAW double counting   =     46696.81306267   -50428.97631620
  entropy T*S    EENTRO =         0.00000000
  eigenvalues    EBANDS =     -1306.28902340
  atomic energy  EATOM  =     49391.50901832
  Solvation  Ediel_sol  =         0.00000000
  ---------------------------------------------------
  free energy    TOTEN  =      -137.48943216 eV

  energy without entropy =     -137.48943216  energy(sigma->0) =     -137.48943216


--------------------------------------------------------------------------------------------------------




--------------------------------------- Iteration      1(   8)  ---------------------------------------


    EDDIAG:  cpu time    1.2000: real time    1.2002
  RMM-DIIS:  cpu time    4.2834: real time    4.2836
    ORTHCH:  cpu time    0.2239: real time    0.2239
 BZINTS: Fermi energy:   -0.432794;  398.000000 electrons
         Band energy:-0.130629E+04;  BLOECHL correction:   -0.085139
       DOS:  cpu time    0.0102: real time    0.0102
    --------------------------------------------
      LOOP:  cpu time    5.7175: real time    5.7179

 eigenvalue-minimisations  :  6483
 total energy-change (2. order) :-0.4233462E-03  (-0.3471332E-03)
 number of electron     397.9999685 magnetization 
 augmentation part      397.9999685 magnetization 

 Free energy of the ion-electron system (eV)
  ---------------------------------------------------
  alpha Z        PSCENC =       806.81644318
  Ewald energy   TEWEN  =    198017.95358909
  -Hartree energ DENC   =   -244869.18973863
  -exchange      EXHF   =         0.00000000
  -V(xc)+E(xc)   XCENC  =      1553.87353282
  PAW double counting   =     46696.81306267   -50428.97631620
  entropy T*S    EENTRO =         0.00000000
  eigenvalues    EBANDS =     -1306.28944675
  atomic energy  EATOM  =     49391.50901832
  Solvation  Ediel_sol  =         0.00000000
  ---------------------------------------------------
  free energy    TOTEN  =      -137.48985550 eV

  energy without entropy =     -137.48985550  energy(sigma->0) =     -137.48985550


--------------------------------------------------------------------------------------------------------




--------------------------------------- Iteration      1(   9)  ---------------------------------------


    EDDIAG:  cpu time    1.2022: real time    1.2023
  RMM-DIIS:  cpu time    4.9114: real time    4.9116
    ORTHCH:  cpu time    0.2232: real time    0.2232
 BZINTS: Fermi energy:   -0.432794;  398.000000 electrons
         Band energy:-0.130629E+04;  BLOECHL correction:   -0.085139
       DOS:  cpu time    0.0102: real time    0.0102
    --------------------------------------------
      LOOP:  cpu time    6.3470: real time    6.3473

 eigenvalue-minimisations  :  7350
 total energy-change (2. order) :-0.1365161E-03  (-0.1330234E-03)
 number of electron     397.9999685 magnetization 
 augmentation part      397.9999685 magnetization 

 Free energy of the ion-electron system (eV)
  ---------------------------------------------------
  alpha Z        PSCENC =       806.81644318
  Ewald energy   TEWEN  =    198017.95358909
  -Hartree energ DENC   =   -244869.18973863
  -exchange      EXHF   =         0.00000000
  -V(xc)+E(xc)   XCENC  =      1553.87353282
  PAW double counting   =     46696.81306267   -50428.97631620
  entropy T*S    EENTRO =         0.00000000
  eigenvalues    EBANDS =     -1306.28958327
  atomic energy  EATOM  =     49391.50901832
  Solvation  Ediel_sol  =         0.00000000
  ---------------------------------------------------
  free energy    TOTEN  =      -137.48999202 eV

  energy without entropy =     -137.48999202  energy(sigma->0) =     -137.48999202


--------------------------------------------------------------------------------------------------------




--------------------------------------- Iteration      1(  10)  ---------------------------------------


    EDDIAG:  cpu time    1.2006: real time    1.2006
  RMM-DIIS:  cpu time    3.3062: real time    3.3063
    ORTHCH:  cpu time    0.2237: real time    0.2237
 BZINTS: Fermi energy:   -0.432794;  398.000000 electrons
         Band energy:-0.130629E+04;  BLOECHL correction:   -0.085139
       DOS:  cpu time    0.0099: real time    0.0099
    --------------------------------------------
      LOOP:  cpu time    4.7404: real time    4.7406

 eigenvalue-minimisations  :  4584
 total energy-change (2. order) :-0.7916620E-05  (-0.6075316E-05)
 number of electron     397.9999685 magnetization 
 augmentation part      397.9999685 magnetization 

 Free energy of the ion-electron system (eV)
  ---------------------------------------------------
  alpha Z        PSCENC =       806.81644318
  Ewald energy   TEWEN  =    198017.95358909
  -Hartree energ DENC   =   -244869.18973863
  -exchange      EXHF   =         0.00000000
  -V(xc)+E(xc)   XCENC  =      1553.87353282
  PAW double counting   =     46696.81306267   -50428.97631620
  entropy T*S    EENTRO =         0.00000000
  eigenvalues    EBANDS =     -1306.28959118
  atomic energy  EATOM  =     49391.50901832
  Solvation  Ediel_sol  =         0.00000000
  ---------------------------------------------------
  free energy    TOTEN  =      -137.48999993 eV

  energy without entropy =     -137.48999993  energy(sigma->0) =     -137.48999993


--------------------------------------------------------------------------------------------------------




 average (electrostatic) potential at core
  the test charge radii are     0.9430  1.2793  0.6991
  (the norm of the test charge is              1.0000)
       1 -71.3740       2 -71.3723       3 -71.3722       4 -71.3723       5 -71.3698
       6 -71.3719       7 -71.3722       8 -71.3719       9 -71.3809      10 -71.6514
      11 -71.6400      12 -71.6511      13 -71.6400      14 -71.6395      15 -71.6402
      16 -71.6511      17 -71.6402      18 -71.6404      19 -71.6154      20 -71.7534
      21 -71.7530      22 -71.6446      23 -71.7530      24 -71.6442      25 -71.6154
      26 -71.6154      27 -71.6446      28 -71.3160      29 -71.3692      30 -71.3691
      31 -71.3692      32 -71.3688      33 -71.3691      34 -71.3688      35 -71.2949
      36 -59.3132      37 -56.2670
 
 
 
 E-fermi :  -0.4328     XC(G=0):  -5.3561     alpha+bet : -4.8106

 Fermi energy:        -0.4327936371

 k-point     1 :       0.0000    0.0000    0.0000
  band No.  band energies     occupation 
      1     -11.0406      2.00000
      2      -9.2004      2.00000
      3      -7.9459      2.00000
      4      -6.4646      2.00000
      5      -6.3352      2.00000
      6      -6.3351      2.00000
      7      -6.2444      2.00000
      8      -6.2353      2.00000
      9      -6.2352      2.00000
     10      -6.2037      2.00000
     11      -5.6012      2.00000
     12      -5.6010      2.00000
     13      -5.5904      2.00000
     14      -5.5443      2.00000
     15      -5.5442      2.00000
     16      -5.4966      2.00000
     17      -5.4377      2.00000
     18      -5.0835      2.00000
     19      -5.0835      2.00000
     20      -4.9726      2.00000
     21      -4.9725      2.00000
     22      -4.8544      2.00000
     23      -4.7476      2.00000
     24      -4.7475      2.00000
     25      -4.7383      2.00000
     26      -4.6659      2.00000
     27      -4.4920      2.00000
     28      -4.4920      2.00000
     29      -4.4567      2.00000
     30      -4.4567      2.00000
     31      -4.4543      2.00000
     32      -4.3801      2.00000
     33      -4.3727      2.00000
     34      -4.3727      2.00000
     35      -4.2876      2.00000
     36      -4.2822      2.00000
     37      -4.2821      2.00000
     38      -4.2684      2.00000
     39      -4.2559      2.00000
     40      -4.2559      2.00000
     41      -4.2148      2.00000
     42      -4.1975      2.00000
     43      -4.1975      2.00000
     44      -4.1298      2.00000
     45      -4.1298      2.00000
     46      -4.1040      2.00000
     47      -4.1039      2.00000
     48      -4.0946      2.00000
     49      -4.0173      2.00000
     50      -3.9805      2.00000
     51      -3.9630      2.00000
     52      -3.9630      2.00000
     53      -3.9265      2.00000
     54      -3.9088      2.00000
     55      -3.8874      2.00000
     56      -3.8240      2.00000
     57      -3.8240      2.00000
     58      -3.6493      2.00000
     59      -3.6006      2.00000
     60      -3.6006      2.00000
     61      -3.5827      2.00000
     62      -3.5603      2.00000
     63      -3.5307      2.00000
     64      -3.5307      2.00000
     65      -3.5086      2.00000
     66      -3.5085      2.00000
     67      -3.4851      2.00000
     68      -3.4850      2.00000
     69      -3.4690      2.00000
     70      -3.4390      2.00000
     71      -3.4389      2.00000
     72      -3.4346      2.00000
     73      -3.3938      2.00000
     74      -3.3938      2.00000
     75      -3.3917      2.00000
     76      -3.3543      2.00000
     77      -3.3543      2.00000
     78      -3.3025      2.00000
     79      -3.3025      2.00000
     80      -3.2928      2.00000
     81      -3.2478      2.00000
     82      -3.2477      2.00000
     83      -3.2389      2.00000
     84      -3.2333      2.00000
     85      -3.2333      2.00000
     86      -3.1783      2.00000
     87      -3.1782      2.00000
     88      -3.1723      2.00000
     89      -3.1446      2.00000
     90      -3.1445      2.00000
     91      -3.1321      2.00000
     92      -3.0980      2.00000
     93      -3.0980      2.00000
     94      -3.0935      2.00000
     95      -3.0806      2.00000
     96      -3.0806      2.00000
     97      -3.0597      2.00000
     98      -3.0597      2.00000
     99      -3.0481      2.00000
    100      -3.0481      2.00000
    101      -3.0415      2.00000
    102      -3.0340      2.00000
    103      -3.0340      2.00000
    104      -2.9984      2.00000
    105      -2.9984      2.00000
    106      -2.9867      2.00000
    107      -2.9867      2.00000
    108      -2.9767      2.00000
    109      -2.8434      2.00000
    110      -2.8433      2.00000
    111      -2.7731      2.00000
    112      -2.7501      2.00000
    113      -2.7464      2.00000
    114      -2.7464      2.00000
    115      -2.7448      2.00000
    116      -2.7362      2.00000
    117      -2.7361      2.00000
    118      -2.7298      2.00000
    119      -2.7298      2.00000
    120      -2.7276      2.00000
    121      -2.7072      2.00000
    122      -2.6951      2.00000
    123      -2.6195      2.00000
    124      -2.6195      2.00000
    125      -2.6081      2.00000
    126      -2.5496      2.00000
    127      -2.5496      2.00000
    128      -2.5359      2.00000
    129      -2.5358      2.00000
    130      -2.5262      2.00000
    131      -2.5080      2.00000
    132      -2.5080      2.00000
    133      -2.5024      2.00000
    134      -2.5024      2.00000
    135      -2.4583      2.00000
    136      -2.4334      2.00000
    137      -2.4333      2.00000
    138      -2.4175      2.00000
    139      -2.4175      2.00000
    140      -2.4154      2.00000
    141      -2.4099      2.00000
    142      -2.3927      2.00000
    143      -2.3927      2.00000
    144      -2.3060      2.00000
    145      -2.3060      2.00000
    146      -2.3015      2.00000
    147      -2.3014      2.00000
    148      -2.2997      2.00000
    149      -2.2859      2.00000
    150      -2.2750      2.00000
    151      -2.2749      2.00000
    152      -2.2594      2.00000
    153      -2.2591      2.00000
    154      -2.2590      2.00000
    155      -2.2086      2.00000
    156      -2.1895      2.00000
    157      -2.1894      2.00000
    158      -2.1639      2.00000
    159      -2.1536      2.00000
    160      -2.1459      2.00000
    161      -2.1406      2.00000
    162      -2.1406      2.00000
    163      -2.1298      2.00000
    164      -2.1292      2.00000
    165      -2.1292      2.00000
    166      -2.1207      2.00000
    167      -2.1207      2.00000
    168      -2.1126      2.00000
    169      -2.0924      2.00000
    170      -2.0856      2.00000
    171      -2.0855      2.00000
    172      -2.0738      2.00000
    173      -2.0714      2.00000
    174      -2.0714      2.00000
    175      -2.0576      2.00000
    176      -2.0576      2.00000
    177      -2.0563      2.00000
    178      -2.0557      2.00000
    179      -2.0557      2.00000
    180      -2.0521      2.00000
    181      -2.0481      2.00000
    182      -2.0477      2.00000
    183      -2.0476      2.00000
    184      -2.0395      2.00000
    185      -2.0136      2.00000
    186      -2.0136      2.00000
    187      -1.9574      2.00000
    188      -1.9574      2.00000
    189      -1.9464      2.00000
    190      -1.9457      2.00000
    191      -1.9457      2.00000
    192      -1.9335      2.00000
    193      -1.9138      2.00000
    194      -1.9137      2.00000
    195      -1.4274      2.00000
    196      -1.4193      2.00000
    197      -1.4193      2.00000
    198      -1.0003      2.00000
    199      -0.7539      2.00000
    200      -0.7539      2.00000
    201      -0.7484      2.00000
    202      -0.7321      2.88112
    203      -0.7320      2.12888
    204      -0.4153      0.00000
    205       1.0535      0.00000
    206       1.3651      0.00000
    207       1.3651      0.00000
    208       1.5725      0.00000
    209       1.5725      0.00000
    210       1.5762      0.00000
    211       1.9567      0.00000
    212       1.9567      0.00000
    213       2.9609      0.00000
    214       3.0284      0.00000
    215       3.2734      0.00000
    216       3.2734      0.00000
    217       3.4720      0.00000
    218       3.4720      0.00000
    219       3.5717      0.00000
    220       4.0100      0.00000
    221       4.0505      0.00000
    222       4.0505      0.00000
    223       4.1065      0.00000
    224       4.1140      0.00000
    225       4.1141      0.00000
    226       4.3592      0.00000
    227       4.3592      0.00000
    228       4.4138      0.00000
    229       4.6502      0.00000
    230       4.6502      0.00000
    231       4.7243      0.00000
    232       4.8825      0.00000
    233       5.1093      0.00000
    234       5.4367      0.00000
    235       5.9207      0.00000
    236       5.9208      0.00000
    237       6.1584      0.00000
    238       6.1586      0.00000
    239       6.1672      0.00000
    240       6.3953      0.00000
    241       6.3961      0.00000
    242       6.4537      0.00000
    243       6.6296      0.00000
    244       6.6312      0.00000
    245       6.6454      0.00000
    246       6.9807      0.00000
    247       6.9924      0.00000
    248       7.0161      0.00000
    249       7.0282      0.00000
    250       7.0754      0.00000
    251       7.1069      0.00000
    252       7.1434      0.00000

 k-point     2 :       0.1250   -0.0000    0.0000
  band No.  band energies     occupation 
      1     -11.0390      2.00000
      2      -9.1470      2.00000
      3      -7.8937      2.00000
      4      -6.8169      2.00000
      5      -6.5195      2.00000
      6      -6.4879      2.00000
      7      -6.4132      2.00000
      8      -6.0157      2.00000
      9      -5.9845      2.00000
     10      -5.8526      2.00000
     11      -5.8095      2.00000
     12      -5.6746      2.00000
     13      -5.6334      2.00000
     14      -5.5515      2.00000
     15      -5.4497      2.00000
     16      -5.4005      2.00000
     17      -5.3105      2.00000
     18      -5.0818      2.00000
     19      -5.0625      2.00000
     20      -4.9784      2.00000
     21      -4.9490      2.00000
     22      -4.8609      2.00000
     23      -4.7544      2.00000
     24      -4.7365      2.00000
     25      -4.7272      2.00000
     26      -4.6605      2.00000
     27      -4.5224      2.00000
     28      -4.4955      2.00000
     29      -4.4663      2.00000
     30      -4.4425      2.00000
     31      -4.4356      2.00000
     32      -4.4031      2.00000
     33      -4.3939      2.00000
     34      -4.3722      2.00000
     35      -4.3607      2.00000
     36      -4.3600      2.00000
     37      -4.3279      2.00000
     38      -4.3154      2.00000
     39      -4.2454      2.00000
     40      -4.2313      2.00000
     41      -4.1995      2.00000
     42      -4.1809      2.00000
     43      -4.1662      2.00000
     44      -4.1312      2.00000
     45      -4.1204      2.00000
     46      -4.0843      2.00000
     47      -4.0708      2.00000
     48      -4.0638      2.00000
     49      -4.0279      2.00000
     50      -4.0092      2.00000
     51      -3.9578      2.00000
     52      -3.9395      2.00000
     53      -3.9233      2.00000
     54      -3.8757      2.00000
     55      -3.8654      2.00000
     56      -3.8193      2.00000
     57      -3.8021      2.00000
     58      -3.7047      2.00000
     59      -3.6697      2.00000
     60      -3.6518      2.00000
     61      -3.6010      2.00000
     62      -3.5783      2.00000
     63      -3.5551      2.00000
     64      -3.5313      2.00000
     65      -3.5300      2.00000
     66      -3.5057      2.00000
     67      -3.4932      2.00000
     68      -3.4855      2.00000
     69      -3.4697      2.00000
     70      -3.4433      2.00000
     71      -3.4246      2.00000
     72      -3.4215      2.00000
     73      -3.3963      2.00000
     74      -3.3929      2.00000
     75      -3.3698      2.00000
     76      -3.3503      2.00000
     77      -3.3363      2.00000
     78      -3.3222      2.00000
     79      -3.2886      2.00000
     80      -3.2784      2.00000
     81      -3.2693      2.00000
     82      -3.2639      2.00000
     83      -3.2375      2.00000
     84      -3.2240      2.00000
     85      -3.2226      2.00000
     86      -3.2006      2.00000
     87      -3.1827      2.00000
     88      -3.1808      2.00000
     89      -3.1665      2.00000
     90      -3.1459      2.00000
     91      -3.1238      2.00000
     92      -3.1173      2.00000
     93      -3.1106      2.00000
     94      -3.1097      2.00000
     95      -3.0758      2.00000
     96      -3.0706      2.00000
     97      -3.0613      2.00000
     98      -3.0551      2.00000
     99      -3.0363      2.00000
    100      -3.0282      2.00000
    101      -3.0238      2.00000
    102      -3.0205      2.00000
    103      -3.0200      2.00000
    104      -2.9937      2.00000
    105      -2.9913      2.00000
    106      -2.9842      2.00000
    107      -2.9789      2.00000
    108      -2.9716      2.00000
    109      -2.9239      2.00000
    110      -2.9221      2.00000
    111      -2.8902      2.00000
    112      -2.8842      2.00000
    113      -2.8362      2.00000
    114      -2.8247      2.00000
    115      -2.7625      2.00000
    116      -2.7513      2.00000
    117      -2.7457      2.00000
    118      -2.7392      2.00000
    119      -2.7334      2.00000
    120      -2.7252      2.00000
    121      -2.7120      2.00000
    122      -2.7112      2.00000
    123      -2.6921      2.00000
    124      -2.6860      2.00000
    125      -2.5831      2.00000
    126      -2.5719      2.00000
    127      -2.5626      2.00000
[...]
  0.000   0.000   0.000   0.000   0.000   0.000   0.000   0.000   0.000   0.000   0.000   0.000   0.000   0.000   0.000   0.000
  0.000   0.000   0.000   0.000   0.000   0.000   0.000   0.000   0.000   0.000   0.000   0.000   0.000   0.000   0.000   0.000
  0.000   0.000   0.000   0.000   0.000   0.000   0.000   0.000   0.000   0.000   0.000   0.000   0.000   0.000   0.000   0.000
  0.000   0.000   0.000   0.000   0.000   0.000   0.000   0.000   0.000   0.000   0.000   0.000   0.000   0.000   0.000   0.000
  0.000   0.000   0.000   0.000   0.000   0.000   0.000   0.000   0.000   0.000   0.000   0.000   0.000   0.000   0.000   0.000
  0.000   0.000   0.000   0.000   0.000   0.000   0.000   0.000   0.000   0.000   1.000   0.000   0.000   0.000   0.000   0.000
  0.000   0.000   0.000   0.000   0.000   0.000   0.000   0.000   0.000   0.000   0.000   0.000   0.000   0.000   0.000   0.000
  0.000   0.000   0.000   0.000   0.000   0.000   0.000   0.000   0.000   0.000   0.000   0.000   0.000   0.000   0.000   0.000
  0.000   0.000   0.000   0.000   0.000   0.000   0.000   0.000   0.000   0.000   0.000   0.000   0.000   0.000   0.000   0.000
  0.000   0.000   0.000   0.000   0.000   0.000   0.000   0.000   0.000   0.000   0.000   0.000   0.000   0.000   0.000   0.000
  0.000   0.000   0.000   0.000   0.000   0.000   0.000   0.000   0.000   0.000   0.000   0.000   0.000   0.000   0.000   0.000
  0.000   0.000   0.000   0.000   0.000   0.000   0.000   0.000   0.000   0.000   0.000   0.000   0.000   0.000   0.000   0.000
  0.000   0.000   0.000   0.000   0.000   0.000   0.000   0.000   0.000   0.000   0.000   0.000   0.000   0.000   0.000   0.000


------------------------ aborting loop because EDIFF is reached ----------------------------------------





 total charge

# of ion       s       p       d       tot
------------------------------------------
    1        0.449   0.283   9.190   9.922
    2        0.448   0.285   9.187   9.920
    3        0.448   0.285   9.187   9.920
    4        0.448   0.285   9.187   9.920
    5        0.450   0.284   9.187   9.922
    6        0.448   0.285   9.187   9.920
    7        0.448   0.285   9.187   9.920
    8        0.448   0.285   9.187   9.920
    9        0.446   0.286   9.187   9.919
   10        0.442   0.370   9.180   9.992
   11        0.440   0.372   9.180   9.992
   12        0.442   0.370   9.180   9.992
   13        0.440   0.372   9.180   9.992
   14        0.440   0.372   9.180   9.992
   15        0.439   0.369   9.181   9.988
   16        0.442   0.370   9.180   9.992
   17        0.439   0.369   9.181   9.988
   18        0.439   0.369   9.181   9.988
   19        0.443   0.369   9.182   9.993
   20        0.454   0.390   9.178  10.022
   21        0.454   0.390   9.178  10.022
   22        0.434   0.373   9.181   9.988
   23        0.454   0.390   9.178  10.022
   24        0.434   0.373   9.181   9.988
   25        0.443   0.369   9.182   9.993
   26        0.443   0.369   9.182   9.993
   27        0.434   0.373   9.181   9.988
   28        0.456   0.287   9.194   9.936
   29        0.442   0.307   9.190   9.940
   30        0.442   0.307   9.190   9.940
   31        0.442   0.307   9.190   9.940
   32        0.442   0.307   9.190   9.940
   33        0.442   0.307   9.190   9.940
   34        0.442   0.307   9.190   9.940
   35        0.451   0.288   9.195   9.934
   36        0.807   0.756   7.223   8.786
   37        1.018   1.191   0.000   2.209
--------------------------------------------------
tot         17.375  13.658 328.682 359.715
 
    CHARGE:  cpu time    0.2630: real time    0.2631
    FORLOC:  cpu time    0.0086: real time    0.0086
    FORNL :  cpu time    1.3717: real time    1.3719
    STRESS:  cpu time    4.0706: real time    4.0710
    FORCOR:  cpu time    0.0326: real time    0.0327
    FORHAR:  cpu time    0.0133: real time    0.0133
    OFIELD:  cpu time    0.0001: real time    0.0001

  FORCE on cell =-STRESS in cart. coord.  units (eV):
  Direction    XX          YY          ZZ          XY          YZ          ZX
  --------------------------------------------------------------------------------------
  Alpha Z   806.81644   806.81644   806.81644
  Ewald  224058.65485224058.65441************     0.00039     0.00011     0.00017
  Hartree236765.61156236765.61153************     0.00004     0.00005     0.00006
  E(xc)   -2302.53329 -2302.53280 -2307.07655    -0.00043    -0.00004    -0.00006
  Local  ************************474337.00085     0.01851    -0.00056    -0.00092
  n-local  -764.92451  -749.54665  -771.03871     8.13737    -0.04387     0.25116
  augment  3347.79144  3347.81185  3357.84223    -0.01767     0.00031     0.00057
  Kinetic  3305.92709  3308.51897  3313.03858     2.73804     1.88885    -1.42041
  Fock        0.00000     0.00000     0.00000     0.00000     0.00000     0.00000
  -------------------------------------------------------------------------------------
  Total      -0.89456    -0.89456     2.38494     0.00000     0.00000     0.00000
  in kB      -1.17431    -1.17431     3.13075     0.00000     0.00000     0.00000
  external pressure =        0.26 kB  Pullay stress =        0.00 kB


 VOLUME and BASIS-vectors are now :
 -----------------------------------------------------------------------------
  energy-cutoff  :      500.00
  volume of cell :     1220.51
      direct lattice vectors                 reciprocal lattice vectors
     7.696786404  0.000000000  0.000000000     0.129924354 -0.075011849  0.000000000
     3.848392758  6.665612809  0.000000000     0.000000000  0.150023716  0.000000000
     0.000000000  0.000000000 23.789778673     0.000000000  0.000000000  0.042034859

  length of vectors
     7.696786404  7.696786404 23.789778673     0.150023716  0.150023716  0.042034859


 FORCES acting on ions
    electron-ion (+dipol)            ewald-force                    non-local-force                 convergence-correction
 -----------------------------------------------------------------------------------------------
   -.424E-04 -.261E-06 0.373E+04   0.580E-04 -.437E-05 -.373E+04   0.541E-17 -.308E-17 -.231E+01   -.335E-03 -.161E-03 -.489E+00
   -.480E-01 0.452E-01 0.373E+04   0.125E-01 -.705E-01 -.373E+04   0.162E-01 0.420E-01 -.202E+01   0.236E-01 -.645E-02 -.510E+00
   0.480E-01 0.452E-01 0.373E+04   -.125E-01 -.706E-01 -.373E+04   -.162E-01 0.420E-01 -.202E+01   -.227E-01 -.382E-02 -.509E+00
   0.152E-01 -.642E-01 0.373E+04   -.549E-01 0.461E-01 -.373E+04   0.445E-01 -.693E-02 -.202E+01   0.627E-02 0.236E-01 -.510E+00
   -.635E-04 -.441E-05 0.373E+04   0.116E-03 -.101E-04 -.373E+04   -.345E-17 -.130E-17 -.201E+01   0.122E-01 0.749E-02 -.365E+00
   -.152E-01 -.641E-01 0.373E+04   0.548E-01 0.460E-01 -.373E+04   -.445E-01 -.693E-02 -.202E+01   -.796E-02 0.248E-01 -.509E+00
   0.632E-01 0.189E-01 0.373E+04   -.674E-01 0.245E-01 -.373E+04   0.283E-01 -.351E-01 -.202E+01   -.146E-01 -.178E-01 -.509E+00
   -.631E-01 0.189E-01 0.373E+04   0.671E-01 0.245E-01 -.373E+04   -.283E-01 -.351E-01 -.202E+01   0.182E-01 -.193E-01 -.509E+00
   -.145E-03 -.333E-04 0.373E+04   0.263E-03 0.206E-04 -.373E+04   -.334E-17 -.310E-18 -.215E+01   -.133E-01 -.685E-02 -.499E+00
   0.304E+01 0.175E+01 0.126E+04   -.276E+01 -.159E+01 -.126E+04   -.276E+00 -.159E+00 -.825E+00   -.316E-01 -.183E-01 0.134E+00
   -.897E-04 -.120E-01 0.126E+04   0.191E-03 -.252E+00 -.126E+04   -.118E-07 0.178E+00 -.628E+00   0.118E-01 0.550E-01 0.109E+00
   -.304E+01 0.175E+01 0.126E+04   0.276E+01 -.159E+01 -.126E+04   0.276E+00 -.159E+00 -.825E+00   0.296E-01 -.162E-01 0.134E+00
   -.104E-01 0.610E-02 0.126E+04   -.218E+00 0.126E+00 -.126E+04   0.154E+00 -.889E-01 -.628E+00   0.540E-01 -.165E-01 0.109E+00
   0.106E-01 0.610E-02 0.126E+04   0.217E+00 0.126E+00 -.126E+04   -.154E+00 -.889E-01 -.628E+00   -.296E-01 -.174E-01 0.109E+00
   -.141E-03 0.103E+00 0.126E+04   0.299E-03 -.203E+00 -.126E+04   -.207E-08 0.311E-01 -.697E+00   -.407E-02 0.503E-01 0.859E-01
   -.889E-04 -.351E+01 0.126E+04   0.186E-03 0.319E+01 -.126E+04   -.212E-07 0.319E+00 -.825E+00   -.147E-03 0.325E-01 0.134E+00
   0.891E-01 -.516E-01 0.126E+04   -.176E+00 0.102E+00 -.126E+04   0.270E-01 -.156E-01 -.697E+00   0.423E-01 -.287E-01 0.857E-01
   -.890E-01 -.515E-01 0.126E+04   0.175E+00 0.102E+00 -.126E+04   -.270E-01 -.156E-01 -.697E+00   -.415E-01 -.257E-01 0.863E-01
   -.525E-04 0.855E+00 -.123E+04   0.686E-04 -.721E+00 0.123E+04   0.813E-08 -.122E+00 0.660E+00   -.252E-02 -.396E-01 0.433E+00
   -.227E+02 -.131E+02 -.122E+04   0.229E+02 0.132E+02 0.122E+04   -.336E+00 -.194E+00 0.597E+00   0.220E-01 0.126E-01 0.414E+00
   0.227E+02 -.131E+02 -.122E+04   -.229E+02 0.132E+02 0.122E+04   0.336E+00 -.194E+00 0.597E+00   0.209E-02 0.140E-01 0.414E+00
   -.154E+02 0.890E+01 -.123E+04   0.149E+02 -.860E+01 0.123E+04   0.570E+00 -.329E+00 0.110E+01   0.292E-02 -.278E-02 0.412E+00
   -.901E-04 0.263E+02 -.122E+04   0.145E-03 -.264E+02 0.122E+04   -.259E-07 0.388E+00 0.597E+00   0.120E-01 -.642E-02 0.413E+00
   0.154E+02 0.890E+01 -.123E+04   -.149E+02 -.860E+01 0.123E+04   -.570E+00 -.329E+00 0.110E+01   -.555E-02 -.408E-02 0.413E+00
   -.740E+00 -.427E+00 -.123E+04   0.625E+00 0.361E+00 0.123E+04   0.106E+00 0.610E-01 0.660E+00   0.358E-01 0.207E-01 0.433E+00
   0.740E+00 -.427E+00 -.123E+04   -.625E+00 0.361E+00 0.123E+04   -.106E+00 0.610E-01 0.660E+00   -.352E-01 0.178E-01 0.434E+00
   -.119E-03 -.178E+02 -.123E+04   0.243E-03 0.172E+02 0.123E+04   -.438E-07 0.658E+00 0.110E+01   -.993E-03 0.385E-02 0.413E+00
   -.431E-04 0.131E-04 -.367E+04   0.385E-04 -.333E-04 0.367E+04   0.100E-16 -.663E-17 0.218E+01   -.293E-03 -.117E-03 0.631E+00
   -.106E+02 -.131E+02 -.368E+04   0.102E+02 0.120E+02 0.368E+04   0.241E+00 0.665E+00 0.260E+01   -.222E-01 0.562E-01 0.577E+00
   0.106E+02 -.131E+02 -.368E+04   -.102E+02 0.120E+02 0.368E+04   -.241E+00 0.665E+00 0.260E+01   0.232E-01 0.587E-01 0.577E+00
   -.166E+02 -.261E+01 -.368E+04   0.155E+02 0.280E+01 0.368E+04   0.697E+00 -.123E+00 0.260E+01   0.377E-01 -.474E-01 0.577E+00
   0.166E+02 -.261E+01 -.368E+04   -.155E+02 0.280E+01 0.368E+04   -.697E+00 -.123E+00 0.260E+01   -.392E-01 -.464E-01 0.576E+00
   -.603E+01 0.157E+02 -.368E+04   0.533E+01 -.148E+02 0.368E+04   0.455E+00 -.542E+00 0.260E+01   0.624E-01 -.928E-02 0.577E+00
   0.603E+01 0.157E+02 -.368E+04   -.533E+01 -.148E+02 0.368E+04   -.455E+00 -.542E+00 0.260E+01   -.591E-01 -.107E-01 0.576E+00
   -.159E-03 -.318E-04 -.368E+04   0.255E-03 0.393E-05 0.367E+04   -.136E-17 -.188E-17 0.251E+01   -.133E-01 -.685E-02 0.555E+00
   -.468E-04 -.283E-04 -.282E+04   0.113E-03 0.218E-04 0.282E+04   -.715E-17 -.510E-17 0.113E+01   0.233E-02 0.139E-02 0.428E+00
   0.532E-04 -.225E-04 -.162E+04   0.122E-04 0.549E-05 0.164E+04   0.247E-18 0.390E-18 -.130E+02   0.707E-03 0.423E-03 -.896E-03
 -----------------------------------------------------------------------------------------------
   -.136E-03 0.745E-05 0.399E+01   -.367E-14 -.112E-12 0.523E-11   0.103E-15 0.215E-15 -.953E+01   0.550E-01 0.287E-01 0.543E+01
 
 
 POSITION                                       TOTAL-FORCE (eV/Angst)
 -----------------------------------------------------------------------------------
      0.00000      0.00000      5.37156         0.000000      0.000000      0.029568
      2.56560      0.00000      5.37156         0.004741      0.011352      0.077529
      5.13119      0.00000      5.37156        -0.004741      0.011352      0.077529
      1.28280      2.22187      5.37156         0.012202     -0.001570      0.077529
      3.84839      2.22187      5.37156         0.000000      0.000000      0.044673
      6.41399      2.22187      5.37156        -0.012202     -0.001570      0.077529
      2.56560      4.44374      5.37156         0.007460     -0.009782      0.077529
      5.13119      4.44374      5.37156        -0.007460     -0.009782      0.077529
      7.69679      4.44374      5.37156         0.000000      0.000000      0.073179
      1.28280      0.74062      7.46636        -0.031424     -0.018142     -0.053609
      3.84839      0.74062      7.46636         0.000000     -0.037470     -0.065561
      6.41399      0.74062      7.46636         0.031424     -0.018142     -0.053609
      2.56560      2.96249      7.46636        -0.032450      0.018735     -0.065561
      5.13119      2.96249      7.46636         0.032450      0.018735     -0.065561
      7.69679      2.96249      7.46636         0.000000     -0.018872     -0.020297
      3.84839      5.18437      7.46636        -0.000000      0.036285     -0.053609
      6.41399      5.18437      7.46636        -0.016343      0.009436     -0.020297
      8.97958      5.18437      7.46636         0.016343      0.009436     -0.020297
      7.69679      1.48769      9.56171         0.000000     -0.028971      0.007978
      2.55203      1.47342      9.53141        -0.166130     -0.095915     -0.304301
      5.14476      1.47342      9.53141         0.166130     -0.095915     -0.304301
      8.97489      3.70583      9.56026         0.041984     -0.024240      0.016813
      3.84839      3.71878      9.53141        -0.000000      0.191830     -0.304301
      6.41868      3.70583      9.56026        -0.041984     -0.024240      0.016813
     10.25680      5.92177      9.56171         0.025089      0.014485      0.007978
      5.13677      5.92177      9.56171        -0.025089      0.014485      0.007978
      7.69679      5.91957      9.56026        -0.000000      0.048479      0.016813
      0.00000      0.00000     11.63002         0.000000      0.000000     -0.021640
      6.40663      6.66047     11.66109        -0.161711     -0.310756     -0.137236
      8.98694      6.66047     11.66109         0.161711     -0.310756     -0.137236
      8.97145      2.21807     11.66109        -0.349978      0.015332     -0.137236
      6.42212      2.21807     11.66109         0.349978      0.015332     -0.137236
     10.26160      4.45269     11.66109        -0.188267      0.295424     -0.137236
      5.13197      4.45269     11.66109         0.188267      0.295424     -0.137236
      7.69679      4.44374     11.62915         0.000000      0.000000     -0.005851
      3.84839      2.22187     11.60012         0.000000      0.000000      1.526064
      3.84839      2.22187     13.35153         0.000000      0.000000     -0.030814
 -----------------------------------------------------------------------------------
    total drift:                                0.054843      0.028686     -0.114244


--------------------------------------------------------------------------------------------------------



  FREE ENERGIE OF THE ION-ELECTRON SYSTEM (eV)
  ---------------------------------------------------
  free  energy   TOTEN  =      -137.48999993 eV

  energy  without entropy=     -137.48999993  energy(sigma->0) =     -137.48999993
 


--------------------------------------------------------------------------------------------------------


    POTLOK:  cpu time    0.0329: real time    0.0329


--------------------------------------------------------------------------------------------------------


 stress matrix after NEB project (eV)
     -0.89456      0.00000      0.00000
      0.00000     -0.89456      0.00000
     -0.00000      0.00000      2.38494
  FORCES: max atom, RMS     0.030814    0.005066
  FORCE total and by dimension    0.030814    0.030814
  Stress total and by dimension    2.699709    2.384941
     LOOP+:  cpu time   69.6403: real time   69.6708
 -----------------------------------------------------------------------------
|                                                                             |
|           W    W    AA    RRRRR   N    N  II  N    N   GGGG   !!!           |
|           W    W   A  A   R    R  NN   N  II  NN   N  G    G  !!!           |
|           W    W  A    A  R    R  N N  N  II  N N  N  G       !!!           |
|           W WW W  AAAAAA  RRRRR   N  N N  II  N  N N  G  GGG   !            |
|           WW  WW  A    A  R   R   N   NN  II  N   NN  G    G                |
|           W    W  A    A  R    R  N    N  II  N    N   GGGG   !!!           |
|                                                                             |
|     Tetrahedron method does not include variations of the Fermi             |
|     occupations, so forces and stress will be inaccurate. We suggest        |
|     using a different smearing scheme ISMEAR = 1 or 2 for metals in         |
|     relaxations.                                                            |
|                                                                             |
 -----------------------------------------------------------------------------

    4ORBIT:  cpu time    0.0000: real time    0.0000



 total charge

# of ion       s       p       d       tot
------------------------------------------
    1        0.449   0.283   9.190   9.922
    2        0.448   0.285   9.187   9.920
    3        0.448   0.285   9.187   9.920
    4        0.448   0.285   9.187   9.920
    5        0.450   0.284   9.187   9.922
    6        0.448   0.285   9.187   9.920
    7        0.448   0.285   9.187   9.920
    8        0.448   0.285   9.187   9.920
    9        0.446   0.286   9.187   9.919
   10        0.442   0.370   9.180   9.992
   11        0.440   0.372   9.180   9.992
   12        0.442   0.370   9.180   9.992
   13        0.440   0.372   9.180   9.992
   14        0.440   0.372   9.180   9.992
   15        0.439   0.369   9.181   9.988
   16        0.442   0.370   9.180   9.992
   17        0.439   0.369   9.181   9.988
   18        0.439   0.369   9.181   9.988
   19        0.443   0.369   9.182   9.993
   20        0.454   0.390   9.178  10.022
   21        0.454   0.390   9.178  10.022
   22        0.434   0.373   9.181   9.988
   23        0.454   0.390   9.178  10.022
   24        0.434   0.373   9.181   9.988
   25        0.443   0.369   9.182   9.993
   26        0.443   0.369   9.182   9.993
   27        0.434   0.373   9.181   9.988
   28        0.456   0.287   9.194   9.936
   29        0.442   0.307   9.190   9.940
   30        0.442   0.307   9.190   9.940
   31        0.442   0.307   9.190   9.940
   32        0.442   0.307   9.190   9.940
   33        0.442   0.307   9.190   9.940
   34        0.442   0.307   9.190   9.940
   35        0.451   0.288   9.195   9.934
   36        0.807   0.756   7.223   8.786
   37        1.018   1.191   0.000   2.209
--------------------------------------------------
tot         17.375  13.658 328.682 359.715
 
 BZINTS: Fermi energy:   -0.432794;  398.000000 electrons
         Band energy:-0.130629E+04;  BLOECHL correction:   -0.085139

 total amount of memory used by VASP MPI-rank0   112559. kBytes
=======================================================================

   base      :      30000. kBytes
   nonlr-proj:      18462. kBytes
   fftplans  :       3394. kBytes
   grid      :      14446. kBytes
   one-center:        575. kBytes
   wavefun   :      45682. kBytes
 
  
  
 General timing and accounting informations for this job:
 ========================================================
  
                  Total CPU time used (sec):       76.093
                            User time (sec):       73.243
                          System time (sec):        2.850
                         Elapsed time (sec):       76.663
  
                   Maximum memory used (kb):      359152.
                   Average memory used (kb):          N/A
  
                          Minor page faults:        75878
                          Major page faults:            0
                 Voluntary context switches:         5813
