PROCAR new format
# of k-points:   10         # of bands:  252         # of ions:   37

 k-point     1 :    0.00000000 0.00000000 0.00000000     weight = 0.01562500

band     1 # energy  -11.04058327 # occ.  2.00000000
 
ion      s      p      d    tot
    1  0.000  0.000  0.000  0.000
    2  0.000  0.000  0.000  0.000
    3  0.000  0.000  0.000  0.000
    4  0.000  0.000  0.000  0.000
    5  0.000  0.000  0.000  0.000
    6  0.000  0.000  0.000  0.000
    7  0.000  0.000  0.000  0.000
    8  0.000  0.000  0.000  0.000
    9  0.000  0.000  0.000  0.000
   10  0.000  0.000  0.000  0.000
   11  0.000  0.000  0.000  0.000
   12  0.000  0.000  0.000  0.000
   13  0.000  0.000  0.000  0.000
   14  0.000  0.000  0.000  0.000
   15  0.000  0.000  0.000  0.000
   16  0.000  0.000  0.000  0.000
   17  0.000  0.000  0.000  0.000
   18  0.000  0.000  0.000  0.000
   19  0.000  0.000  0.000  0.000
   20  0.003  0.001  0.001  0.006
   21  0.003  0.001  0.001  0.006
   22  0.000  0.000  0.000  0.000
   23  0.003  0.001  0.001  0.006
   24  0.000  0.000  0.000  0.000
   25  0.000  0.000  0.000  0.000
   26  0.000  0.000  0.000  0.000
   27  0.000  0.000  0.000  0.000
   28  0.000  0.000  0.000  0.000
   29  0.001  0.000  0.000  0.002
   30  0.001  0.000  0.000  0.002
   31  0.001  0.000  0.000  0.002
   32  0.001  0.000  0.000  0.002
   33  0.001  0.000  0.000  0.002
   34  0.001  0.000  0.000  0.002
   35  0.000  0.000  0.000  0.000
   36  0.147  0.053  0.223  0.422
   37  0.381  0.038  0.000  0.419
tot    0.551  0.096  0.227  0.874
 
band     2 # energy   -9.20035342 # occ.  2.00000000
 
ion      s      p      d    tot
    1  0.007  0.001  0.000  0.007
    2  0.007  0.001  0.000  0.007
    3  0.007  0.001  0.000  0.007
    4  0.007  0.001  0.000  0.007
    5  0.007  0.001  0.000  0.007
    6  0.007  0.001  0.000  0.007
    7  0.007  0.001  0.000  0.007
    8  0.007  0.001  0.000  0.007
    9  0.007  0.001  0.000  0.007
   10  0.025  0.000  0.000  0.025
   11  0.025  0.000  0.000  0.025
   12  0.025  0.000  0.000  0.025
   13  0.025  0.000  0.000  0.025
   14  0.025  0.000  0.000  0.025
   15  0.024  0.000  0.000  0.025
   16  0.025  0.000  0.000  0.025
   17  0.024  0.000  0.000  0.025
   18  0.024  0.000  0.000  0.025
   19  0.024  0.000  0.000  0.024
   20  0.023  0.000  0.000  0.024
   21  0.023  0.000  0.000  0.024
   22  0.024  0.000  0.000  0.024
   23  0.023  0.000  0.000  0.024
   24  0.024  0.000  0.000  0.024
   25  0.024  0.000  0.000  0.024
   26  0.024  0.000  0.000  0.024
   27  0.024  0.000  0.000  0.024
   28  0.006  0.001  0.000  0.007
   29  0.006  0.001  0.000  0.007
   30  0.006  0.001  0.000  0.007
   31  0.006  0.001  0.000  0.007
   32  0.006  0.001  0.000  0.007
   33  0.006  0.001  0.000  0.007
   34  0.006  0.001  0.000  0.007
   35  0.006  0.001  0.000  0.007
   36  0.003  0.007  0.010  0.021
   37  0.013  0.001  0.000  0.014
tot    0.557  0.024  0.011  0.593
 
band     3 # energy   -7.94594047 # occ.  2.00000000
 
ion      s      p      d    tot
    1  0.017  0.001  0.000  0.018
    2  0.017  0.001  0.000  0.018
    3  0.017  0.001  0.000  0.018
    4  0.017  0.001  0.000  0.018
    5  0.017  0.001  0.000  0.018
    6  0.017  0.001  0.000  0.018
    7  0.017  0.001  0.000  0.018
    8  0.017  0.001  0.000  0.018
    9  0.017  0.001  0.000  0.018
   10  0.010  0.002  0.001  0.013
   11  0.010  0.002  0.001  0.013
   12  0.010  0.002  0.001  0.013
   13  0.010  0.002  0.001  0.013
   14  0.010  0.002  0.001  0.013
   15  0.010  0.002  0.001  0.012
   16  0.010  0.002  0.001  0.013
   17  0.010  0.002  0.001  0.012
   18  0.010  0.002  0.001  0.012
   19  0.009  0.002  0.000  0.012
   20  0.008  0.002  0.000  0.011
   21  0.008  0.002  0.000  0.011
   22  0.009  0.002  0.000  0.012
   23  0.008  0.002  0.000  0.011
   24  0.009  0.002  0.000  0.012
   25  0.009  0.002  0.000  0.012
   26  0.009  0.002  0.000  0.012
   27  0.009  0.002  0.000  0.012
   28  0.018  0.001  0.001  0.019
   29  0.019  0.001  0.001  0.021
   30  0.019  0.001  0.001  0.021
   31  0.019  0.001  0.001  0.021
   32  0.019  0.001  0.001  0.021
   33  0.019  0.001  0.001  0.021
   34  0.019  0.001  0.001  0.021
   35  0.018  0.001  0.001  0.019
   36  0.020  0.006  0.027  0.053
   37  0.008  0.001  0.000  0.009
tot    0.500  0.058  0.046  0.604
 
band     4 # energy   -6.46455310 # occ.  2.00000000
 
ion      s      p      d    tot
    1  0.014  0.000  0.004  0.018
    2  0.014  0.000  0.004  0.018
    3  0.014  0.000  0.004  0.018
    4  0.014  0.000  0.004  0.018
    5  0.011  0.000  0.004  0.016
    6  0.014  0.000  0.004  0.018
    7  0.014  0.000  0.004  0.018
    8  0.014  0.000  0.004  0.018
    9  0.018  0.000  0.004  0.022
   10  0.002  0.004  0.001  0.007
   11  0.004  0.004  0.001  0.008
   12  0.002  0.004  0.001  0.006
   13  0.004  0.004  0.001  0.008
   14  0.004  0.004  0.001  0.008
   15  0.000  0.003  0.001  0.005
   16  0.002  0.004  0.001  0.006
   17  0.000  0.003  0.001  0.005
   18  0.000  0.003  0.001  0.005
   19  0.005  0.002  0.004  0.011
   20  0.014  0.003  0.008  0.025
   21  0.013  0.003  0.008  0.025
   22  0.003  0.002  0.004  0.009
   23  0.013  0.003  0.008  0.025
   24  0.003  0.002  0.004  0.009
   25  0.005  0.002  0.004  0.011
   26  0.005  0.002  0.004  0.011
   27  0.003  0.002  0.004  0.009
   28  0.012  0.000  0.006  0.017
   29  0.017  0.000  0.008  0.026
   30  0.017  0.000  0.008  0.026
   31  0.017  0.000  0.008  0.026
   32  0.017  0.000  0.008  0.026
   33  0.017  0.000  0.008  0.026
   34  0.017  0.000  0.008  0.026
   35  0.014  0.000  0.005  0.020
   36  0.021  0.001  0.087  0.109
   37  0.000  0.003  0.000  0.004
tot    0.362  0.061  0.240  0.664
 
band     5 # energy   -6.33519819 # occ.  2.00000000
 
ion      s      p      d    tot
    1  0.000  0.001  0.004  0.005
    2  0.006  0.002  0.002  0.009
    3  0.000  0.001  0.001  0.002
    4  0.006  0.002  0.002  0.009
    5  0.000  0.002  0.003  0.005
    6  0.003  0.001  0.002  0.006
    7  0.000  0.001  0.001  0.002
    8  0.003  0.001  0.002  0.006
    9  0.000  0.000  0.001  0.001
   10  0.042  0.004  0.003  0.049
   11  0.008  0.008  0.005  0.021
   12  0.010  0.001  0.009  0.021
   13  0.007  0.008  0.005  0.020
   14  0.030  0.001  0.005  0.036
   15  0.000  0.005  0.004  0.009
   16  0.011  0.001  0.009  0.022
   17  0.000  0.005  0.004  0.010
   18  0.001  0.001  0.003  0.005
   19  0.004  0.010  0.002  0.016
   20  0.076  0.002  0.010  0.088
   21  0.018  0.004  0.015  0.038
   22  0.004  0.003  0.010  0.016
   23  0.020  0.004  0.015  0.039
   24  0.015  0.004  0.002  0.021
   25  0.015  0.000  0.006  0.021
   26  0.004  0.010  0.002  0.016
   27  0.004  0.003  0.009  0.017
   28  0.000  0.002  0.003  0.005
   29  0.011  0.004  0.005  0.019
   30  0.002  0.001  0.003  0.006
   31  0.011  0.004  0.005  0.019
   32  0.003  0.002  0.005  0.010
   33  0.002  0.001  0.003  0.006
   34  0.003  0.002  0.005  0.010
   35  0.000  0.000  0.003  0.003
   36  0.000  0.006  0.070  0.076
   37  0.000  0.003  0.000  0.003
tot    0.321  0.109  0.238  0.667
 
band     6 # energy   -6.33510668 # occ.  2.00000000
 
ion      s      p      d    tot
    1  0.000  0.001  0.004  0.005
    2  0.000  0.001  0.001  0.002
    3  0.006  0.002  0.002  0.010
    4  0.001  0.001  0.001  0.003
    5  0.000  0.002  0.003  0.005
    6  0.003  0.001  0.001  0.006
    7  0.006  0.002  0.002  0.009
    8  0.003  0.001  0.001  0.006
    9  0.000  0.000  0.001  0.001
   10  0.000  0.000  0.012  0.012
   11  0.022  0.003  0.005  0.031
   12  0.032  0.003  0.005  0.040
   13  0.023  0.003  0.005  0.031
   14  0.000  0.010  0.005  0.015
   15  0.001  0.003  0.003  0.007
   16  0.031  0.003  0.005  0.040
   17  0.001  0.003  0.003  0.007
   18  0.000  0.006  0.005  0.011
   19  0.011  0.003  0.005  0.019
   20  0.000  0.005  0.017  0.022
   21  0.058  0.003  0.011  0.072
   22  0.012  0.004  0.005  0.020
   23  0.056  0.003  0.012  0.071
   24  0.000  0.003  0.012  0.015
   25  0.000  0.013  0.001  0.014
   26  0.011  0.003  0.005  0.019
   27  0.011  0.004  0.005  0.020
   28  0.000  0.002  0.003  0.005
   29  0.000  0.001  0.003  0.004
   30  0.009  0.003  0.006  0.017
   31  0.000  0.001  0.003  0.004
   32  0.008  0.003  0.004  0.014
   33  0.008  0.003  0.006  0.017
   34  0.007  0.002  0.004  0.013
   35  0.000  0.000  0.003  0.003
   36  0.000  0.006  0.070  0.076
   37  0.000  0.003  0.000  0.003
tot    0.321  0.109  0.238  0.667
 
band     7 # energy   -6.24442358 # occ.  2.00000000
 
ion      s      p      d    tot
    1  0.000  0.000  0.000  0.001
    2  0.000  0.001  0.004  0.005
    3  0.000  0.001  0.004  0.005
    4  0.000  0.001  0.004  0.005
    5  0.022  0.003  0.000  0.024
    6  0.000  0.001  0.004  0.005
    7  0.000  0.001  0.004  0.005
    8  0.000  0.001  0.004  0.005
    9  0.005  0.001  0.002  0.008
   10  0.002  0.004  0.007  0.013
   11  0.022  0.008  0.003  0.033
   12  0.002  0.004  0.007  0.013
   13  0.022  0.008  0.003  0.033
   14  0.022  0.008  0.003  0.033
   15  0.019  0.001  0.009  0.029
   16  0.002  0.004  0.007  0.013
   17  0.019  0.001  0.009  0.029
   18  0.019  0.001  0.009  0.029
   19  0.012  0.000  0.011  0.024
   20  0.028  0.007  0.005  0.040
   21  0.028  0.007  0.005  0.040
   22  0.008  0.007  0.004  0.020
   23  0.028  0.007  0.005  0.040
   24  0.008  0.007  0.004  0.020
   25  0.012  0.000  0.011  0.024
   26  0.012  0.000  0.011  0.024
   27  0.008  0.007  0.004  0.020
   28  0.003  0.001  0.001  0.005
   29  0.000  0.002  0.006  0.008
   30  0.000  0.002  0.006  0.008
   31  0.000  0.002  0.006  0.008
   32  0.000  0.002  0.006  0.008
   33  0.000  0.002  0.006  0.008
   34  0.000  0.002  0.006  0.008
   35  0.005  0.001  0.000  0.006
   36  0.035  0.015  0.003  0.052
   37  0.009  0.000  0.000  0.010
tot    0.356  0.125  0.179  0.660
 
band     8 # energy   -6.23531764 # occ.  2.00000000
 
ion      s      p      d    tot
    1  0.000  0.001  0.002  0.003
    2  0.008  0.002  0.002  0.012
    3  0.000  0.001  0.002  0.003
    4  0.008  0.002  0.002  0.012
    5  0.000  0.000  0.003  0.003
    6  0.004  0.001  0.002  0.008
    7  0.001  0.001  0.002  0.003
    8  0.005  0.002  0.002  0.008
    9  0.000  0.003  0.005  0.008
   10  0.000  0.012  0.002  0.014
   11  0.015  0.003  0.005  0.023
   12  0.006  0.003  0.005  0.014
   13  0.015  0.003  0.005  0.023
   14  0.000  0.001  0.012  0.013
   15  0.041  0.003  0.006  0.050
   16  0.006  0.003  0.005  0.014
   17  0.041  0.003  0.006  0.050
   18  0.000  0.005  0.011  0.016
   19  0.036  0.004  0.006  0.045
   20  0.000  0.012  0.003  0.015
   21  0.000  0.004  0.004  0.008
   22  0.037  0.004  0.006  0.047
   23  0.000  0.004  0.004  0.009
   24  0.000  0.011  0.005  0.016
   25  0.000  0.000  0.017  0.017
   26  0.036  0.004  0.006  0.045
   27  0.037  0.004  0.006  0.046
   28  0.000  0.002  0.005  0.008
   29  0.014  0.003  0.003  0.021
   30  0.002  0.002  0.004  0.007
   31  0.014  0.003  0.003  0.021
   32  0.006  0.001  0.003  0.011
   33  0.002  0.002  0.004  0.007
   34  0.006  0.001  0.003  0.011
   35  0.000  0.004  0.005  0.009
   36  0.000  0.001  0.021  0.021
   37  0.000  0.000  0.000  0.000
tot    0.341  0.115  0.186  0.642
 
band     9 # energy   -6.23522846 # occ.  2.00000000
 
ion      s      p      d    tot
    1  0.000  0.001  0.002  0.003
    2  0.001  0.001  0.002  0.003
    3  0.008  0.002  0.002  0.012
    4  0.001  0.001  0.002  0.003
    5  0.000  0.000  0.003  0.003
    6  0.004  0.001  0.002  0.007
    7  0.008  0.002  0.002  0.012
    8  0.004  0.001  0.002  0.007
    9  0.000  0.003  0.005  0.008
   10  0.008  0.000  0.005  0.014
   11  0.005  0.002  0.009  0.017
   12  0.002  0.009  0.003  0.014
   13  0.005  0.002  0.010  0.017
   14  0.020  0.004  0.002  0.026
   15  0.014  0.004  0.009  0.027
   16  0.002  0.009  0.003  0.014
   17  0.013  0.004  0.009  0.027
   18  0.054  0.003  0.004  0.062
   19  0.012  0.001  0.013  0.027
   20  0.000  0.002  0.005  0.007
   21  0.000  0.009  0.003  0.013
   22  0.012  0.008  0.006  0.026
   23  0.000  0.009  0.003  0.012
   24  0.049  0.001  0.006  0.056
   25  0.048  0.005  0.002  0.055
   26  0.012  0.001  0.013  0.026
   27  0.013  0.008  0.006  0.026
   28  0.000  0.002  0.005  0.008
   29  0.000  0.001  0.004  0.005
   30  0.013  0.002  0.003  0.019
   31  0.001  0.001  0.004  0.005
   32  0.009  0.003  0.004  0.015
   33  0.013  0.002  0.003  0.019
   34  0.009  0.003  0.004  0.015
   35  0.000  0.004  0.005  0.009
   36  0.000  0.001  0.021  0.021
   37  0.000  0.000  0.000  0.000
tot    0.341  0.115  0.186  0.642
 
band    10 # energy   -6.20374253 # occ.  2.00000000
 
ion      s      p      d    tot
    1  0.021  0.003  0.001  0.025
    2  0.000  0.002  0.004  0.006
    3  0.000  0.002  0.004  0.006
    4  0.000  0.002  0.004  0.006
    5  0.001  0.000  0.000  0.001
    6  0.000  0.002  0.004  0.006
    7  0.000  0.002  0.004  0.006
    8  0.000  0.002  0.004  0.006
    9  0.009  0.002  0.000  0.011
   10  0.028  0.005  0.006  0.040
   11  0.004  0.000  0.011  0.016
   12  0.028  0.005  0.006  0.040
   13  0.004  0.000  0.011  0.016
   14  0.004  0.001  0.011  0.016
   15  0.014  0.008  0.003  0.025
   16  0.028  0.005  0.006  0.040
   17  0.014  0.008  0.003  0.025
   18  0.014  0.008  0.003  0.025
   19  0.021  0.009  0.002  0.032
   20  0.000  0.002  0.011  0.013
   21  0.000  0.002  0.011  0.013
   22  0.026  0.003  0.009  0.038
   23  0.000  0.002  0.011  0.013
   24  0.027  0.003  0.009  0.038
   25  0.021  0.009  0.002  0.032
   26  0.021  0.009  0.002  0.032
   27  0.026  0.003  0.009  0.038
   28  0.020  0.003  0.000  0.023
   29  0.000  0.002  0.004  0.006
   30  0.000  0.002  0.004  0.006
   31  0.000  0.002  0.004  0.006
   32  0.000  0.002  0.004  0.006
   33  0.000  0.002  0.004  0.006
   34  0.000  0.002  0.004  0.006
   35  0.012  0.003  0.002  0.016
   36  0.000  0.000  0.000  0.000
   37  0.000  0.000  0.000  0.000
tot    0.345  0.115  0.179  0.639
 
band    11 # energy   -5.60116878 # occ.  2.00000000
 
ion      s      p      d    tot
    1  0.000  0.000  0.007  0.008
    2  0.015  0.003  0.004  0.022
    3  0.010  0.002  0.004  0.016
    4  0.014  0.003  0.004  0.022
    5  0.000  0.003  0.007  0.010
    6  0.000  0.001  0.004  0.006
    7  0.010  0.002  0.004  0.016
    8  0.000  0.001  0.004  0.005
    9  0.000  0.004  0.007  0.012
   10  0.000  0.004  0.012  0.015
   11  0.020  0.003  0.007  0.029
   12  0.000  0.001  0.007  0.009
   13  0.019  0.003  0.007  0.029
   14  0.000  0.000  0.019  0.019
   15  0.014  0.002  0.007  0.023
   16  0.000  0.001  0.007  0.009
   17  0.014  0.002  0.007  0.022
   18  0.000  0.004  0.011  0.016
   19  0.002  0.002  0.007  0.011
   20  0.000  0.002  0.049  0.052
   21  0.001  0.002  0.018  0.021
   22  0.005  0.005  0.010  0.019
   23  0.002  0.002  0.017  0.021
   24  0.000  0.000  0.016  0.016
   25  0.000  0.000  0.004  0.004
   26  0.002  0.002  0.007  0.010
   27  0.005  0.005  0.010  0.019
   28  0.000  0.001  0.005  0.006
   29  0.018  0.003  0.008  0.029
   30  0.003  0.003  0.012  0.018
   31  0.018  0.003  0.008  0.029
   32  0.007  0.000  0.008  0.015
   33  0.003  0.003  0.012  0.017
   34  0.006  0.000  0.008  0.015
   35  0.000  0.004  0.003  0.007
   36  0.000  0.001  0.130  0.131
   37  0.000  0.006  0.000  0.006
tot    0.187  0.084  0.461  0.733
 
band    12 # energy   -5.60104635 # occ.  2.00000000
 
ion      s      p      d    tot
    1  0.000  0.000  0.007  0.008
    2  0.002  0.001  0.004  0.007
    3  0.007  0.002  0.004  0.013
    4  0.002  0.001  0.004  0.007
    5  0.000  0.003  0.007  0.010
    6  0.016  0.003  0.004  0.023
    7  0.007  0.002  0.004  0.013
    8  0.016  0.003  0.004  0.023
    9  0.000  0.004  0.007  0.012
   10  0.001  0.001  0.006  0.007
   11  0.006  0.001  0.015  0.022
   12  0.000  0.003  0.010  0.013
   13  0.007  0.001  0.015  0.022
   14  0.026  0.003  0.003  0.033
   15  0.004  0.003  0.010  0.018
   16  0.000  0.003  0.010  0.013
   17  0.005  0.003  0.010  0.018
   18  0.018  0.001  0.005  0.025
   19  0.001  0.001  0.005  0.006
   20  0.002  0.001  0.007  0.010
   21  0.001  0.002  0.039  0.041
   22  0.002  0.002  0.014  0.017
   23  0.000  0.002  0.039  0.042
   24  0.006  0.006  0.008  0.020
   25  0.002  0.002  0.008  0.013
   26  0.001  0.001  0.005  0.006
   27  0.002  0.002  0.014  0.017
   28  0.000  0.001  0.005  0.006
   29  0.000  0.001  0.011  0.012
   30  0.015  0.001  0.007  0.023
   31  0.000  0.001  0.011  0.012
   32  0.012  0.004  0.011  0.026
   33  0.015  0.001  0.007  0.023
   34  0.012  0.004  0.010  0.026
   35  0.000  0.004  0.003  0.007
   36  0.000  0.001  0.130  0.131
   37  0.000  0.006  0.000  0.006
tot    0.187  0.084  0.461  0.733
 
band    13 # energy   -5.59040085 # occ.  2.00000000
 
ion      s      p      d    tot
    1  0.005  0.001  0.012  0.018
    2  0.008  0.001  0.011  0.020
    3  0.008  0.001  0.011  0.020
    4  0.008  0.001  0.011  0.020
    5  0.008  0.000  0.010  0.018
    6  0.008  0.001  0.011  0.020
    7  0.008  0.001  0.011  0.020
    8  0.008  0.001  0.011  0.020
    9  0.013  0.000  0.010  0.023
   10  0.011  0.000  0.023  0.034
   11  0.008  0.000  0.022  0.031
   12  0.011  0.000  0.023  0.034
   13  0.008  0.000  0.022  0.031
   14  0.008  0.000  0.022  0.031
   15  0.006  0.000  0.022  0.028
   16  0.011  0.000  0.023  0.034
   17  0.006  0.000  0.022  0.028
   18  0.006  0.000  0.022  0.028
   19  0.004  0.001  0.013  0.018
   20  0.005  0.001  0.026  0.031
   21  0.005  0.001  0.026  0.031
   22  0.003  0.000  0.011  0.015
   23  0.005  0.001  0.026  0.031
   24  0.003  0.000  0.011  0.015
   25  0.004  0.001  0.013  0.018
   26  0.004  0.001  0.013  0.018
   27  0.003  0.000  0.011  0.015
   28  0.000  0.001  0.002  0.003
   29  0.001  0.001  0.006  0.008
   30  0.001  0.001  0.006  0.008
   31  0.001  0.001  0.006  0.008
   32  0.001  0.001  0.006  0.008
   33  0.001  0.001  0.006  0.008
   34  0.001  0.001  0.006  0.008
   35  0.000  0.000  0.002  0.003
   36  0.006  0.002  0.057  0.065
   37  0.003  0.004  0.000  0.007
tot    0.205  0.025  0.543  0.773
 
band    14 # energy   -5.54434489 # occ.  2.00000000
 
ion      s      p      d    tot
    1  0.000  0.006  0.010  0.016
    2  0.021  0.004  0.006  0.031
    3  0.011  0.003  0.005  0.019
    4  0.021  0.004  0.006  0.031
    5  0.000  0.003  0.011  0.014
    6  0.001  0.002  0.005  0.009
    7  0.011  0.003  0.005  0.019
    8  0.001  0.002  0.005  0.009
    9  0.000  0.001  0.011  0.011
   10  0.034  0.004  0.006  0.045
   11  0.002  0.005  0.013  0.020
   12  0.009  0.002  0.018  0.029
   13  0.002  0.005  0.013  0.020
   14  0.007  0.000  0.007  0.015
   15  0.003  0.002  0.014  0.019
   16  0.009  0.002  0.019  0.029
   17  0.003  0.002  0.014  0.019
   18  0.010  0.003  0.006  0.019
   19  0.001  0.001  0.016  0.019
   20  0.009  0.007  0.007  0.023
   21  0.002  0.002  0.009  0.013
   22  0.000  0.001  0.012  0.013
   23  0.002  0.002  0.009  0.013
   24  0.000  0.000  0.005  0.006
   25  0.005  0.004  0.002  0.011
   26  0.001  0.001  0.016  0.019
   27  0.000  0.001  0.012  0.013
   28  0.000  0.004  0.004  0.007
   29  0.012  0.003  0.008  0.024
   30  0.013  0.001  0.006  0.019
   31  0.012  0.003  0.008  0.024
   32  0.000  0.001  0.009  0.010
   33  0.012  0.001  0.006  0.019
   34  0.000  0.001  0.009  0.010
   35  0.000  0.001  0.006  0.007
   36  0.000  0.002  0.093  0.094
   37  0.000  0.004  0.000  0.004
tot    0.216  0.094  0.410  0.720
 
band    15 # energy   -5.54421257 # occ.  2.00000000
 
ion      s      p      d    tot
    1  0.000  0.006  0.010  0.016
    2  0.002  0.002  0.005  0.008
    3  0.011  0.003  0.006  0.020
    4  0.002  0.002  0.005  0.009
    5  0.000  0.003  0.011  0.014
    6  0.021  0.004  0.005  0.030
    7  0.011  0.003  0.006  0.020
    8  0.021  0.004  0.005  0.030
    9  0.000  0.001  0.011  0.011
   10  0.000  0.001  0.023  0.024
   11  0.006  0.002  0.009  0.016
   12  0.026  0.004  0.010  0.040
   13  0.006  0.002  0.009  0.016
   14  0.000  0.006  0.015  0.021
   15  0.008  0.003  0.009  0.019
   16  0.026  0.004  0.010  0.040
   17  0.008  0.003  0.009  0.019
   18  0.000  0.002  0.017  0.019
   19  0.004  0.003  0.007  0.014
   20  0.000  0.000  0.009  0.009
   21  0.006  0.006  0.008  0.020
   22  0.000  0.000  0.008  0.008
   23  0.006  0.006  0.008  0.020
   24  0.000  0.001  0.014  0.015
   25  0.000  0.000  0.021  0.021
   26  0.004  0.003  0.007  0.014
   27  0.000  0.000  0.008  0.008
   28  0.000  0.004  0.004  0.007
   29  0.004  0.000  0.007  0.011
   30  0.004  0.003  0.009  0.016
   31  0.004  0.000  0.007  0.011
   32  0.017  0.003  0.006  0.026
   33  0.004  0.003  0.009  0.016
   34  0.017  0.003  0.006  0.026
   35  0.000  0.001  0.006  0.007
   36  0.000  0.002  0.093  0.094
   37  0.000  0.004  0.000  0.004
tot    0.216  0.094  0.410  0.720
 
band    16 # energy   -5.49660836 # occ.  2.00000000
 
ion      s      p      d    tot
    1  0.016  0.001  0.000  0.017
    2  0.000  0.003  0.010  0.013
    3  0.000  0.003  0.010  0.013
    4  0.000  0.003  0.010  0.013
    5  0.040  0.005  0.001  0.045
    6  0.000  0.003  0.010  0.013
    7  0.000  0.003  0.010  0.013
    8  0.000  0.003  0.010  0.013
    9  0.007  0.001  0.000  0.008
   10  0.002  0.002  0.016  0.020
   11  0.014  0.005  0.010  0.029
   12  0.002  0.002  0.016  0.020
   13  0.014  0.005  0.010  0.029
   14  0.014  0.005  0.010  0.029
   15  0.005  0.001  0.012  0.017
   16  0.002  0.002  0.016  0.020
   17  0.005  0.001  0.012  0.017
   18  0.005  0.001  0.012  0.017
   19  0.005  0.002  0.006  0.013
   20  0.007  0.005  0.020  0.032
   21  0.007  0.005  0.020  0.032
   22  0.000  0.001  0.018  0.018
   23  0.007  0.005  0.020  0.032
   24  0.000  0.001  0.018  0.018
   25  0.005  0.002  0.006  0.013
   26  0.005  0.002  0.006  0.013
   27  0.000  0.001  0.018  0.018
   28  0.016  0.001  0.000  0.017
   29  0.000  0.003  0.012  0.015
   30  0.000  0.003  0.012  0.015
   31  0.000  0.003  0.012  0.015
   32  0.000  0.003  0.012  0.015
   33  0.000  0.003  0.012  0.015
   34  0.000  0.003  0.012  0.015
   35  0.008  0.001  0.000  0.009
   36  0.049  0.016  0.002  0.067
   37  0.010  0.001  0.000  0.011
tot    0.243  0.106  0.376  0.726
 
band    17 # energy   -5.43765612 # occ.  2.00000000
 
ion      s      p      d    tot
    1  0.028  0.003  0.000  0.031
    2  0.000  0.003  0.010  0.013
    3  0.000  0.003  0.010  0.013
    4  0.000  0.003  0.010  0.013
    5  0.002  0.000  0.000  0.002
    6  0.000  0.003  0.010  0.013
    7  0.000  0.003  0.010  0.013
    8  0.000  0.003  0.010  0.013
    9  0.035  0.004  0.001  0.040
   10  0.008  0.003  0.010  0.021
   11  0.000  0.000  0.017  0.017
   12  0.008  0.003  0.010  0.021
   13  0.000  0.000  0.017  0.017
   14  0.000  0.000  0.017  0.017
   15  0.009  0.004  0.016  0.029
   16  0.008  0.003  0.010  0.021
   17  0.009  0.004  0.016  0.029
   18  0.009  0.004  0.016  0.029
   19  0.003  0.003  0.018  0.024
   20  0.001  0.000  0.014  0.015
   21  0.001  0.000  0.014  0.015
   22  0.012  0.004  0.011  0.027
   23  0.001  0.000  0.014  0.015
   24  0.012  0.004  0.011  0.027
   25  0.003  0.003  0.018  0.024
   26  0.003  0.003  0.018  0.024
   27  0.012  0.004  0.011  0.027
   28  0.030  0.003  0.000  0.033
   29  0.000  0.003  0.010  0.013
   30  0.000  0.003  0.010  0.013
   31  0.000  0.003  0.010  0.013
   32  0.000  0.003  0.010  0.013
   33  0.000  0.003  0.010  0.013
   34  0.000  0.003  0.010  0.013
   35  0.033  0.004  0.001  0.038
   36  0.001  0.000  0.000  0.001
   37  0.000  0.000  0.000  0.000
tot    0.228  0.093  0.385  0.706
 
band    18 # energy   -5.08347759 # occ.  2.00000000
 
ion      s      p      d    tot
    1  0.000  0.000  0.006  0.006
    2  0.004  0.001  0.002  0.007
    3  0.004  0.001  0.002  0.006
    4  0.004  0.001  0.002  0.006
    5  0.000  0.001  0.001  0.002
    6  0.000  0.000  0.002  0.002
    7  0.004  0.001  0.002  0.006
    8  0.000  0.000  0.002  0.002
    9  0.000  0.001  0.004  0.005
   10  0.000  0.000  0.003  0.004
   11  0.000  0.002  0.005  0.007
   12  0.000  0.000  0.003  0.003
   13  0.000  0.002  0.004  0.006
   14  0.000  0.000  0.003  0.003
   15  0.001  0.001  0.003  0.005
   16  0.000  0.000  0.003  0.003
   17  0.001  0.001  0.005  0.007
   18  0.000  0.000  0.017  0.017
   19  0.000  0.001  0.005  0.006
   20  0.000  0.000  0.006  0.006
   21  0.002  0.002  0.026  0.030
   22  0.007  0.000  0.008  0.015
   23  0.002  0.002  0.029  0.034
   24  0.000  0.000  0.014  0.014
   25  0.000  0.004  0.014  0.018
   26  0.000  0.002  0.006  0.008
   27  0.008  0.000  0.006  0.015
   28  0.000  0.002  0.013  0.016
   29  0.004  0.001  0.009  0.014
   30  0.021  0.001  0.016  0.039
   31  0.002  0.001  0.008  0.011
   32  0.007  0.002  0.006  0.015
   33  0.022  0.002  0.016  0.039
   34  0.010  0.002  0.008  0.020
   35  0.000  0.001  0.017  0.019
   36  0.000  0.013  0.271  0.284
   37  0.000  0.058  0.000  0.058
tot    0.104  0.107  0.547  0.758
 
band    19 # energy   -5.08346737 # occ.  2.00000000
 
ion      s      p      d    tot
    1  0.000  0.000  0.006  0.006
    2  0.001  0.000  0.002  0.003
    3  0.001  0.000  0.002  0.003
    4  0.002  0.000  0.002  0.004
    5  0.000  0.001  0.001  0.002
    6  0.005  0.001  0.002  0.008
    7  0.002  0.001  0.002  0.004
    8  0.005  0.001  0.002  0.008
    9  0.000  0.001  0.004  0.005
   10  0.000  0.000  0.003  0.003
   11  0.000  0.000  0.004  0.004
   12  0.000  0.000  0.003  0.003
   13  0.000  0.001  0.004  0.005
   14  0.000  0.002  0.005  0.008
   15  0.000  0.000  0.013  0.014
   16  0.000  0.000  0.003  0.004
   17  0.000  0.000  0.012  0.012
   18  0.001  0.001  0.000  0.002
   19  0.000  0.004  0.012  0.016
   20  0.003  0.003  0.035  0.040
   21  0.001  0.001  0.015  0.017
   22  0.003  0.000  0.011  0.015
   23  0.000  0.001  0.012  0.013
   24  0.010  0.000  0.005  0.015
   25  0.000  0.000  0.003  0.004
   26  0.000  0.003  0.011  0.014
   27  0.002  0.000  0.012  0.015
   28  0.000  0.002  0.013  0.016
   29  0.018  0.002  0.012  0.032
   30  0.001  0.002  0.005  0.007
   31  0.020  0.002  0.013  0.035
   32  0.015  0.001  0.015  0.031
   33  0.000  0.002  0.005  0.007
   34  0.012  0.001  0.013  0.026
   35  0.000  0.001  0.017  0.019
   36  0.000  0.013  0.271  0.284
   37  0.000  0.058  0.000  0.058
tot    0.104  0.107  0.547  0.758
 
band    20 # energy   -4.97256348 # occ.  2.00000000
 
ion      s      p      d    tot
    1  0.000  0.001  0.017  0.018
    2  0.012  0.001  0.005  0.019
    3  0.004  0.001  0.005  0.010
    4  0.012  0.001  0.005  0.019
    5  0.000  0.001  0.010  0.011
    6  0.002  0.001  0.005  0.008
    7  0.004  0.001  0.005  0.010
    8  0.002  0.001  0.005  0.008
    9  0.000  0.003  0.002  0.005
   10  0.000  0.000  0.052  0.052
   11  0.000  0.002  0.012  0.014
   12  0.000  0.000  0.016  0.017
   13  0.000  0.002  0.012  0.014
   14  0.000  0.000  0.003  0.003
   15  0.000  0.004  0.013  0.017
   16  0.000  0.000  0.016  0.016
   17  0.000  0.004  0.013  0.017
   18  0.000  0.000  0.018  0.018
   19  0.012  0.001  0.010  0.023
   20  0.000  0.000  0.046  0.047
   21  0.000  0.001  0.032  0.033
   22  0.002  0.001  0.013  0.017
   23  0.000  0.001  0.032  0.033
   24  0.000  0.002  0.002  0.003
   25  0.000  0.000  0.024  0.024
   26  0.012  0.001  0.010  0.023
   27  0.002  0.001  0.013  0.017
   28  0.000  0.000  0.011  0.011
   29  0.007  0.002  0.021  0.029
   30  0.001  0.001  0.018  0.020
   31  0.007  0.002  0.021  0.029
   32  0.002  0.000  0.022  0.025
   33  0.001  0.001  0.018  0.020
   34  0.002  0.000  0.022  0.025
   35  0.000  0.001  0.001  0.001
   36  0.000  0.001  0.156  0.157
   37  0.000  0.006  0.000  0.006
tot    0.086  0.046  0.688  0.821
 
band    21 # energy   -4.97249060 # occ.  2.00000000
 
ion      s      p      d    tot
    1  0.000  0.001  0.017  0.018
    2  0.000  0.001  0.005  0.006
    3  0.009  0.001  0.005  0.015
    4  0.000  0.001  0.005  0.006
    5  0.000  0.001  0.010  0.011
    6  0.010  0.001  0.005  0.016
    7  0.009  0.001  0.005  0.015
    8  0.010  0.001  0.005  0.016
    9  0.000  0.003  0.002  0.005
   10  0.000  0.000  0.004  0.005
   11  0.000  0.001  0.006  0.007
   12  0.000  0.000  0.040  0.040
   13  0.000  0.001  0.006  0.007
   14  0.000  0.003  0.015  0.018
   15  0.000  0.001  0.017  0.018
   16  0.000  0.000  0.040  0.040
   17  0.000  0.001  0.016  0.018
   18  0.000  0.006  0.011  0.017
   19  0.004  0.001  0.020  0.024
   20  0.000  0.001  0.027  0.028
   21  0.000  0.000  0.041  0.042
   22  0.001  0.002  0.006  0.008
   23  0.000  0.000  0.041  0.042
   24  0.003  0.001  0.017  0.021
   25  0.016  0.002  0.005  0.023
   26  0.004  0.001  0.019  0.024
   27  0.001  0.002  0.006  0.008
   28  0.000  0.000  0.011  0.011
   29  0.000  0.000  0.020  0.020
   30  0.006  0.001  0.023  0.029
   31  0.000  0.000  0.020  0.020
   32  0.005  0.002  0.018  0.025
   33  0.006  0.001  0.023  0.029
   34  0.005  0.002  0.018  0.025
   35  0.000  0.001  0.001  0.001
   36  0.000  0.001  0.156  0.157