PROCAR new format
# of k-points:   10         # of bands:  252         # of ions:   37

 k-point     1 :    0.00000000 0.00000000 0.00000000     weight = 0.01562500

band     1 # energy   -8.18285272 # occ.  2.00000000
 
ion      s      p      d    tot
    1  0.007  0.001  0.000  0.007
    2  0.007  0.001  0.000  0.007
    3  0.007  0.001  0.000  0.007
    4  0.007  0.001  0.000  0.007
    5  0.007  0.001  0.000  0.007
    6  0.007  0.001  0.000  0.007
    7  0.007  0.001  0.000  0.007
    8  0.007  0.001  0.000  0.007
    9  0.007  0.001  0.000  0.007
   10  0.027  0.000  0.000  0.027
   11  0.028  0.000  0.000  0.028
   12  0.027  0.000  0.000  0.027
   13  0.028  0.000  0.000  0.028
   14  0.028  0.000  0.000  0.028
   15  0.027  0.000  0.000  0.027
   16  0.027  0.000  0.000  0.027
   17  0.027  0.000  0.000  0.027
   18  0.027  0.000  0.000  0.027
   19  0.023  0.000  0.000  0.023
   20  0.026  0.000  0.000  0.027
   21  0.026  0.000  0.000  0.027
   22  0.024  0.000  0.000  0.024
   23  0.026  0.000  0.000  0.027
   24  0.024  0.000  0.000  0.024
   25  0.023  0.000  0.000  0.023
   26  0.023  0.000  0.000  0.023
   27  0.024  0.000  0.000  0.024
   28  0.005  0.000  0.000  0.005
   29  0.005  0.000  0.000  0.005
   30  0.005  0.000  0.000  0.005
   31  0.005  0.000  0.000  0.005
   32  0.005  0.000  0.000  0.005
   33  0.005  0.000  0.000  0.005
   34  0.005  0.000  0.000  0.005
   35  0.005  0.000  0.000  0.005
   36  0.006  0.001  0.000  0.006
   37  0.000  0.000  0.000  0.000
tot    0.565  0.012  0.004  0.580
 
band     2 # energy   -7.00992043 # occ.  2.00000000
 
ion      s      p      d    tot
    1  0.017  0.000  0.001  0.018
    2  0.017  0.000  0.001  0.018
    3  0.017  0.000  0.001  0.018
    4  0.017  0.000  0.001  0.018
    5  0.016  0.000  0.001  0.018
    6  0.017  0.000  0.001  0.018
    7  0.017  0.000  0.001  0.018
    8  0.017  0.000  0.001  0.018
    9  0.017  0.000  0.001  0.018
   10  0.010  0.001  0.002  0.014
   11  0.010  0.002  0.003  0.014
   12  0.010  0.001  0.002  0.014
   13  0.010  0.002  0.003  0.014
   14  0.010  0.002  0.003  0.014
   15  0.010  0.001  0.002  0.014
   16  0.010  0.001  0.002  0.014
   17  0.010  0.001  0.002  0.014
   18  0.010  0.001  0.002  0.014
   19  0.014  0.001  0.003  0.019
   20  0.015  0.001  0.004  0.020
   21  0.015  0.001  0.004  0.020
   22  0.015  0.001  0.003  0.019
   23  0.015  0.001  0.004  0.020
   24  0.015  0.001  0.003  0.019
   25  0.014  0.001  0.003  0.019
   26  0.014  0.001  0.003  0.019
   27  0.015  0.001  0.003  0.019
   28  0.014  0.000  0.001  0.015
   29  0.014  0.001  0.001  0.015
   30  0.014  0.001  0.001  0.015
   31  0.014  0.001  0.001  0.015
   32  0.014  0.001  0.001  0.015
   33  0.014  0.001  0.001  0.015
   34  0.014  0.001  0.001  0.015
   35  0.014  0.000  0.000  0.015
   36  0.013  0.000  0.000  0.014
   37  0.001  0.000  0.000  0.001
tot    0.497  0.031  0.070  0.597
 
band     3 # energy   -6.07661794 # occ.  2.00000000
 
ion      s      p      d    tot
    1  0.008  0.000  0.020  0.028
    2  0.015  0.000  0.015  0.031
    3  0.015  0.000  0.015  0.031
    4  0.015  0.000  0.015  0.031
    5  0.010  0.000  0.014  0.023
    6  0.015  0.000  0.015  0.031
    7  0.015  0.000  0.015  0.031
    8  0.015  0.000  0.015  0.031
    9  0.035  0.000  0.010  0.045
   10  0.012  0.001  0.019  0.032
   11  0.015  0.002  0.014  0.031
   12  0.012  0.001  0.019  0.031
   13  0.015  0.002  0.014  0.031
   14  0.015  0.002  0.014  0.031
   15  0.000  0.001  0.021  0.022
   16  0.012  0.001  0.019  0.031
   17  0.000  0.001  0.021  0.022
   18  0.000  0.001  0.021  0.022
   19  0.000  0.001  0.007  0.008
   20  0.009  0.001  0.006  0.017
   21  0.009  0.001  0.006  0.017
   22  0.004  0.001  0.001  0.006
   23  0.009  0.001  0.006  0.017
   24  0.004  0.001  0.001  0.006
   25  0.000  0.001  0.007  0.008
   26  0.000  0.001  0.007  0.008
   27  0.004  0.001  0.001  0.006
   28  0.007  0.000  0.001  0.008
   29  0.004  0.000  0.004  0.008
   30  0.004  0.000  0.003  0.008
   31  0.004  0.000  0.004  0.008
   32  0.004  0.000  0.003  0.008
   33  0.004  0.000  0.003  0.008
   34  0.004  0.000  0.003  0.008
   35  0.011  0.000  0.001  0.012
   36  0.000  0.001  0.003  0.004
   37  0.000  0.000  0.000  0.000
tot    0.312  0.023  0.365  0.700
 
band     4 # energy   -6.05338770 # occ.  2.00000000
 
ion      s      p      d    tot
    1  0.000  0.000  0.008  0.009
    2  0.003  0.001  0.003  0.007
    3  0.001  0.000  0.003  0.004
    4  0.003  0.001  0.003  0.007
    5  0.000  0.001  0.007  0.008
    6  0.007  0.001  0.004  0.012
    7  0.001  0.000  0.003  0.004
    8  0.007  0.001  0.004  0.012
    9  0.000  0.000  0.001  0.001
   10  0.035  0.002  0.005  0.043
   11  0.013  0.003  0.023  0.038
   12  0.009  0.001  0.028  0.038
   13  0.014  0.003  0.022  0.039
   14  0.054  0.001  0.011  0.066
   15  0.000  0.003  0.006  0.009
   16  0.009  0.001  0.029  0.038
   17  0.001  0.003  0.006  0.010
   18  0.002  0.000  0.013  0.015
   19  0.002  0.003  0.006  0.011
   20  0.062  0.001  0.010  0.073
   21  0.015  0.002  0.028  0.046
   22  0.004  0.001  0.021  0.026
   23  0.015  0.002  0.028  0.045
   24  0.017  0.002  0.005  0.024
   25  0.009  0.000  0.013  0.022
   26  0.002  0.003  0.006  0.011
   27  0.004  0.001  0.021  0.026
   28  0.000  0.000  0.001  0.001
   29  0.006  0.001  0.004  0.011
   30  0.002  0.000  0.003  0.005
   31  0.006  0.001  0.004  0.011
   32  0.001  0.000  0.002  0.004
   33  0.001  0.000  0.003  0.005
   34  0.001  0.000  0.002  0.004
   35  0.000  0.000  0.004  0.004
   36  0.000  0.002  0.007  0.009
   37  0.000  0.000  0.000  0.000
tot    0.306  0.043  0.345  0.694
 
band     5 # energy   -6.05336817 # occ.  2.00000000
 
ion      s      p      d    tot
    1  0.000  0.000  0.008  0.009
    2  0.004  0.001  0.004  0.009
    3  0.006  0.001  0.003  0.011
    4  0.004  0.001  0.004  0.009
    5  0.000  0.001  0.007  0.008
    6  0.000  0.000  0.003  0.003
    7  0.006  0.001  0.003  0.011
    8  0.000  0.000  0.003  0.003
    9  0.000  0.000  0.001  0.001
   10  0.000  0.000  0.036  0.037
   11  0.041  0.001  0.015  0.057
   12  0.026  0.002  0.013  0.041
   13  0.040  0.002  0.015  0.057
   14  0.000  0.004  0.026  0.030
   15  0.001  0.001  0.011  0.013
   16  0.027  0.002  0.013  0.041
   17  0.001  0.001  0.011  0.013
   18  0.000  0.004  0.004  0.008
   19  0.007  0.001  0.010  0.018
   20  0.000  0.002  0.034  0.036
   21  0.045  0.002  0.016  0.063
   22  0.013  0.001  0.010  0.024
   23  0.046  0.002  0.016  0.064
   24  0.000  0.000  0.027  0.027
   25  0.000  0.004  0.003  0.007
   26  0.006  0.001  0.010  0.018
   27  0.013  0.001  0.010  0.024
   28  0.000  0.000  0.001  0.001
   29  0.000  0.000  0.002  0.002
   30  0.004  0.001  0.003  0.008
   31  0.000  0.000  0.002  0.002
   32  0.004  0.001  0.003  0.009
   33  0.004  0.001  0.003  0.008
   34  0.004  0.001  0.003  0.009
   35  0.000  0.000  0.004  0.004
   36  0.000  0.002  0.007  0.009
   37  0.000  0.000  0.000  0.000
tot    0.306  0.043  0.345  0.694
 
band     6 # energy   -6.04906529 # occ.  2.00000000
 
ion      s      p      d    tot
    1  0.024  0.001  0.002  0.027
    2  0.006  0.000  0.010  0.016
    3  0.006  0.000  0.010  0.016
    4  0.006  0.000  0.010  0.016
    5  0.008  0.000  0.008  0.016
    6  0.006  0.000  0.010  0.016
    7  0.006  0.000  0.010  0.016
    8  0.006  0.000  0.010  0.016
    9  0.000  0.001  0.010  0.012
   10  0.002  0.000  0.032  0.034
   11  0.000  0.001  0.020  0.021
   12  0.002  0.000  0.033  0.035
   13  0.000  0.001  0.020  0.021
   14  0.000  0.001  0.020  0.021
   15  0.035  0.002  0.006  0.043
   16  0.002  0.000  0.033  0.035
   17  0.035  0.002  0.006  0.043
   18  0.036  0.002  0.005  0.043
   19  0.001  0.001  0.016  0.019
   20  0.016  0.000  0.021  0.038
   21  0.017  0.000  0.021  0.038
   22  0.013  0.002  0.006  0.021
   23  0.017  0.000  0.021  0.038
   24  0.012  0.002  0.006  0.021
   25  0.002  0.001  0.016  0.019
   26  0.001  0.001  0.016  0.019
   27  0.013  0.002  0.006  0.021
   28  0.000  0.000  0.000  0.000
   29  0.000  0.000  0.003  0.003
   30  0.000  0.000  0.003  0.003
   31  0.000  0.000  0.003  0.003
   32  0.000  0.000  0.003  0.003
   33  0.000  0.000  0.003  0.003
   34  0.000  0.000  0.003  0.003
   35  0.006  0.001  0.000  0.007
   36  0.006  0.002  0.004  0.012
   37  0.001  0.000  0.000  0.001
tot    0.284  0.029  0.403  0.717
 
band     7 # energy   -6.00628345 # occ.  2.00000000
 
ion      s      p      d    tot
    1  0.005  0.001  0.001  0.008
    2  0.000  0.001  0.007  0.008
    3  0.000  0.001  0.007  0.008
    4  0.000  0.001  0.007  0.008
    5  0.020  0.002  0.000  0.022
    6  0.000  0.001  0.006  0.008
    7  0.000  0.001  0.007  0.008
    8  0.000  0.001  0.006  0.008
    9  0.000  0.000  0.003  0.003
   10  0.024  0.003  0.002  0.029
   11  0.021  0.001  0.022  0.044
   12  0.024  0.003  0.002  0.028
   13  0.021  0.001  0.022  0.044
   14  0.021  0.001  0.022  0.044
   15  0.002  0.001  0.026  0.028
   16  0.024  0.003  0.002  0.028
   17  0.002  0.001  0.026  0.028
   18  0.002  0.001  0.026  0.028
   19  0.021  0.002  0.008  0.031
   20  0.008  0.003  0.015  0.026
   21  0.009  0.003  0.014  0.026
   22  0.007  0.000  0.026  0.033
   23  0.009  0.003  0.014  0.026
   24  0.007  0.000  0.026  0.033
   25  0.020  0.002  0.008  0.031
   26  0.021  0.002  0.008  0.031
   27  0.007  0.000  0.026  0.033
   28  0.014  0.001  0.000  0.015
   29  0.000  0.000  0.004  0.005
   30  0.000  0.000  0.004  0.005
   31  0.000  0.000  0.004  0.005
   32  0.000  0.000  0.004  0.005
   33  0.000  0.000  0.004  0.005
   34  0.000  0.000  0.004  0.005
   35  0.002  0.001  0.003  0.006
   36  0.000  0.000  0.000  0.000
   37  0.000  0.000  0.000  0.000
tot    0.294  0.039  0.364  0.697
 
band     8 # energy   -5.98810284 # occ.  2.00000000
 
ion      s      p      d    tot
    1  0.000  0.001  0.004  0.005
    2  0.004  0.001  0.004  0.009
    3  0.008  0.001  0.004  0.013
    4  0.005  0.001  0.004  0.010
    5  0.000  0.000  0.005  0.005
    6  0.001  0.000  0.003  0.004
    7  0.008  0.001  0.004  0.014
    8  0.000  0.000  0.003  0.004
    9  0.000  0.001  0.011  0.013
   10  0.027  0.000  0.017  0.044
   11  0.002  0.001  0.020  0.023
   12  0.006  0.004  0.007  0.016
   13  0.002  0.002  0.021  0.024
   14  0.008  0.001  0.008  0.017
   15  0.018  0.001  0.033  0.052
   16  0.008  0.003  0.008  0.019
   17  0.013  0.001  0.036  0.050
   18  0.063  0.002  0.005  0.070
   19  0.012  0.001  0.026  0.038
   20  0.001  0.001  0.013  0.014
   21  0.000  0.002  0.012  0.014
   22  0.007  0.003  0.014  0.025
   23  0.000  0.002  0.012  0.014
   24  0.034  0.001  0.012  0.046
   25  0.040  0.002  0.003  0.046
   26  0.008  0.001  0.029  0.038
   27  0.010  0.003  0.014  0.027
   28  0.000  0.000  0.006  0.007
   29  0.000  0.000  0.002  0.002
   30  0.003  0.001  0.002  0.005
   31  0.000  0.000  0.002  0.002
   32  0.004  0.001  0.002  0.007
   33  0.002  0.000  0.002  0.004
   34  0.004  0.001  0.003  0.007
   35  0.000  0.001  0.004  0.004
   36  0.000  0.000  0.001  0.001
   37  0.000  0.000  0.000  0.000
tot    0.298  0.041  0.353  0.692
 
band     9 # energy   -5.98809621 # occ.  2.00000000
 
ion      s      p      d    tot
    1  0.000  0.001  0.004  0.005
    2  0.005  0.001  0.003  0.009
    3  0.001  0.001  0.004  0.005
    4  0.004  0.001  0.003  0.008
    5  0.000  0.000  0.005  0.005
    6  0.008  0.001  0.004  0.014
    7  0.001  0.000  0.004  0.005
    8  0.008  0.001  0.004  0.014
    9  0.000  0.001  0.011  0.013
   10  0.000  0.005  0.004  0.009
   11  0.005  0.001  0.013  0.020
   12  0.022  0.001  0.014  0.037
   13  0.006  0.001  0.012  0.019
   14  0.000  0.002  0.025  0.026
   15  0.045  0.001  0.017  0.063
   16  0.019  0.001  0.013  0.034
   17  0.050  0.001  0.013  0.065
   18  0.000  0.001  0.044  0.045
   19  0.029  0.002  0.013  0.043
   20  0.000  0.002  0.011  0.013
   21  0.001  0.001  0.012  0.014
   22  0.026  0.001  0.012  0.040
   23  0.001  0.001  0.012  0.014
   24  0.000  0.004  0.015  0.019
   25  0.000  0.000  0.035  0.036
   26  0.032  0.002  0.010  0.043
   27  0.024  0.002  0.013  0.038
   28  0.000  0.000  0.006  0.007
   29  0.004  0.001  0.002  0.007
   30  0.002  0.000  0.002  0.004
   31  0.004  0.001  0.002  0.007
   32  0.000  0.000  0.001  0.002
   33  0.002  0.000  0.002  0.005
   34  0.001  0.000  0.001  0.002
   35  0.000  0.001  0.004  0.004
   36  0.000  0.000  0.001  0.001
   37  0.000  0.000  0.000  0.000
tot    0.298  0.041  0.353  0.692
 
band    10 # energy   -5.97016382 # occ.  2.00000000
 
ion      s      p      d    tot
    1  0.000  0.000  0.000  0.001
    2  0.000  0.000  0.001  0.001
    3  0.000  0.000  0.001  0.001
    4  0.000  0.000  0.001  0.001
    5  0.002  0.000  0.000  0.002
    6  0.000  0.000  0.001  0.001
    7  0.000  0.000  0.001  0.001
    8  0.000  0.000  0.001  0.001
    9  0.001  0.000  0.000  0.001
   10  0.001  0.000  0.007  0.008
   11  0.004  0.001  0.003  0.007
   12  0.001  0.000  0.007  0.008
   13  0.004  0.001  0.003  0.007
   14  0.004  0.001  0.003  0.007
   15  0.002  0.000  0.007  0.009
   16  0.001  0.000  0.007  0.008
   17  0.002  0.000  0.007  0.009
   18  0.002  0.000  0.007  0.009
   19  0.009  0.001  0.019  0.028
   20  0.001  0.000  0.033  0.035
   21  0.001  0.000  0.033  0.035
   22  0.010  0.001  0.022  0.033
   23  0.001  0.000  0.033  0.035
   24  0.010  0.001  0.022  0.033
   25  0.009  0.001  0.019  0.028
   26  0.009  0.001  0.019  0.028
   27  0.010  0.001  0.022  0.033
   28  0.017  0.000  0.021  0.039
   29  0.023  0.000  0.019  0.042
   30  0.023  0.000  0.019  0.042
   31  0.023  0.000  0.019  0.042
   32  0.023  0.000  0.019  0.042
   33  0.023  0.000  0.019  0.042
   34  0.023  0.000  0.019  0.042
   35  0.021  0.000  0.019  0.040
   36  0.017  0.000  0.009  0.027
   37  0.000  0.000  0.000  0.000
tot    0.278  0.012  0.439  0.728
 
band    11 # energy   -5.56749701 # occ.  2.00000000
 
ion      s      p      d    tot
    1  0.014  0.002  0.002  0.018
    2  0.000  0.001  0.008  0.009
    3  0.000  0.001  0.008  0.009
    4  0.000  0.001  0.008  0.009
    5  0.000  0.000  0.002  0.002
    6  0.000  0.001  0.008  0.009
    7  0.000  0.001  0.008  0.009
    8  0.000  0.001  0.008  0.009
    9  0.016  0.001  0.000  0.018
   10  0.010  0.001  0.013  0.025
   11  0.003  0.000  0.044  0.047
   12  0.010  0.001  0.013  0.025
   13  0.003  0.000  0.044  0.047
   14  0.002  0.000  0.045  0.047
   15  0.003  0.001  0.022  0.026
   16  0.010  0.001  0.013  0.025
   17  0.003  0.001  0.022  0.026
   18  0.003  0.001  0.022  0.027
   19  0.004  0.001  0.012  0.017
   20  0.001  0.000  0.051  0.053
   21  0.001  0.000  0.051  0.053
   22  0.012  0.001  0.019  0.032
   23  0.001  0.000  0.051  0.053
   24  0.012  0.001  0.019  0.032
   25  0.004  0.001  0.012  0.017
   26  0.004  0.001  0.012  0.017
   27  0.012  0.001  0.019  0.032
   28  0.012  0.001  0.000  0.014
   29  0.000  0.000  0.006  0.006
   30  0.000  0.000  0.006  0.006
   31  0.000  0.000  0.006  0.006
   32  0.000  0.000  0.006  0.006
   33  0.000  0.000  0.006  0.006
   34  0.000  0.000  0.006  0.006
   35  0.008  0.001  0.003  0.012
   36  0.000  0.000  0.002  0.002
   37  0.000  0.000  0.000  0.000
tot    0.149  0.027  0.578  0.755
 
band    12 # energy   -5.56415255 # occ.  2.00000000
 
ion      s      p      d    tot
    1  0.000  0.001  0.004  0.004
    2  0.001  0.001  0.005  0.006
    3  0.009  0.001  0.005  0.015
    4  0.001  0.001  0.005  0.006
    5  0.000  0.001  0.010  0.012
    6  0.005  0.001  0.004  0.010
    7  0.009  0.001  0.005  0.015
    8  0.005  0.001  0.004  0.010
    9  0.000  0.000  0.009  0.009
   10  0.000  0.001  0.048  0.049
   11  0.015  0.001  0.021  0.037
   12  0.006  0.002  0.019  0.027
   13  0.015  0.001  0.021  0.037
   14  0.000  0.000  0.052  0.052
   15  0.002  0.000  0.020  0.022
   16  0.006  0.002  0.019  0.027
   17  0.002  0.000  0.020  0.022
   18  0.000  0.001  0.012  0.013
   19  0.005  0.000  0.019  0.024
   20  0.000  0.000  0.077  0.077
   21  0.017  0.001  0.024  0.042
   22  0.004  0.001  0.019  0.023
   23  0.017  0.001  0.024  0.042
   24  0.000  0.001  0.037  0.037
   25  0.000  0.001  0.010  0.011
   26  0.005  0.000  0.019  0.024
   27  0.004  0.001  0.019  0.023
   28  0.000  0.000  0.008  0.008
   29  0.003  0.001  0.004  0.008
   30  0.009  0.001  0.004  0.014
   31  0.003  0.001  0.004  0.008
   32  0.002  0.001  0.004  0.006
   33  0.009  0.001  0.004  0.014
   34  0.002  0.001  0.004  0.006
   35  0.000  0.000  0.003  0.003
   36  0.000  0.003  0.006  0.009
   37  0.000  0.000  0.000  0.000
tot    0.153  0.030  0.568  0.751
 
band    13 # energy   -5.56413562 # occ.  2.00000000
 
ion      s      p      d    tot
    1  0.000  0.001  0.004  0.004
    2  0.009  0.001  0.004  0.014
    3  0.001  0.000  0.004  0.005
    4  0.009  0.001  0.004  0.014
    5  0.000  0.001  0.010  0.012
    6  0.005  0.001  0.005  0.011
    7  0.001  0.000  0.004  0.005
    8  0.005  0.001  0.005  0.011
    9  0.000  0.000  0.009  0.009
   10  0.008  0.002  0.009  0.020
   11  0.005  0.000  0.042  0.047
   12  0.002  0.001  0.038  0.041
   13  0.005  0.000  0.042  0.047
   14  0.020  0.001  0.011  0.032
   15  0.001  0.001  0.014  0.016
   16  0.002  0.001  0.038  0.041
   17  0.001  0.001  0.014  0.016
   18  0.002  0.000  0.022  0.024
   19  0.002  0.001  0.013  0.015
   20  0.023  0.001  0.007  0.031
   21  0.006  0.000  0.059  0.065
   22  0.001  0.001  0.031  0.033
   23  0.006  0.000  0.059  0.065
   24  0.005  0.001  0.013  0.019
   25  0.006  0.000  0.021  0.028
   26  0.002  0.001  0.013  0.015
   27  0.001  0.001  0.031  0.033
   28  0.000  0.000  0.008  0.008
   29  0.006  0.001  0.004  0.011
   30  0.000  0.000  0.004  0.004
   31  0.006  0.001  0.004  0.011
   32  0.007  0.001  0.005  0.013
   33  0.000  0.000  0.004  0.004
   34  0.007  0.001  0.005  0.013
   35  0.000  0.000  0.003  0.003
   36  0.000  0.003  0.006  0.009
   37  0.000  0.000  0.000  0.000
tot    0.153  0.030  0.568  0.751
 
band    14 # energy   -5.51532884 # occ.  2.00000000
 
ion      s      p      d    tot
    1  0.007  0.000  0.001  0.008
    2  0.000  0.001  0.009  0.009
    3  0.000  0.001  0.009  0.009
    4  0.000  0.001  0.009  0.009
    5  0.017  0.002  0.000  0.019
    6  0.000  0.001  0.009  0.009
    7  0.000  0.001  0.009  0.009
    8  0.000  0.001  0.009  0.009
    9  0.003  0.001  0.002  0.005
   10  0.000  0.000  0.043  0.043
   11  0.006  0.002  0.009  0.016
   12  0.000  0.000  0.043  0.043
   13  0.006  0.002  0.009  0.016
   14  0.006  0.002  0.009  0.016
   15  0.007  0.001  0.025  0.034
   16  0.000  0.000  0.043  0.043
   17  0.007  0.001  0.025  0.034
   18  0.008  0.001  0.025  0.034
   19  0.011  0.001  0.039  0.051
   20  0.009  0.002  0.010  0.022
   21  0.010  0.002  0.010  0.022
   22  0.000  0.000  0.037  0.037
   23  0.010  0.002  0.010  0.022
   24  0.000  0.000  0.037  0.037
   25  0.011  0.001  0.039  0.051
   26  0.011  0.001  0.039  0.051
   27  0.000  0.000  0.037  0.037
   28  0.002  0.001  0.006  0.009
   29  0.000  0.000  0.005  0.005
   30  0.000  0.000  0.005  0.005
   31  0.000  0.000  0.005  0.005
   32  0.000  0.000  0.005  0.005
   33  0.000  0.000  0.005  0.005
   34  0.000  0.000  0.005  0.005
   35  0.002  0.000  0.000  0.002
   36  0.016  0.002  0.002  0.020
   37  0.001  0.000  0.000  0.001
tot    0.153  0.030  0.579  0.762
 
band    15 # energy   -5.50728732 # occ.  2.00000000
 
ion      s      p      d    tot
    1  0.000  0.001  0.015  0.015
    2  0.010  0.001  0.004  0.015
    3  0.001  0.000  0.005  0.007
    4  0.010  0.001  0.004  0.015
    5  0.000  0.000  0.006  0.006
    6  0.004  0.001  0.005  0.010
    7  0.001  0.000  0.005  0.007
    8  0.004  0.001  0.005  0.010
    9  0.000  0.001  0.006  0.008
   10  0.000  0.001  0.032  0.032
   11  0.000  0.001  0.020  0.021
   12  0.008  0.000  0.022  0.030
   13  0.000  0.001  0.020  0.021
   14  0.000  0.001  0.017  0.018
   15  0.010  0.002  0.020  0.032
   16  0.008  0.000  0.022  0.030
   17  0.010  0.002  0.020  0.032
   18  0.000  0.000  0.062  0.062
   19  0.014  0.001  0.020  0.035
   20  0.000  0.002  0.020  0.022
   21  0.000  0.001  0.023  0.024
   22  0.017  0.001  0.021  0.039
   23  0.000  0.001  0.023  0.024
   24  0.000  0.001  0.030  0.031
   25  0.000  0.000  0.068  0.068
   26  0.014  0.001  0.020  0.035
   27  0.017  0.001  0.021  0.038
   28  0.000  0.001  0.005  0.006
   29  0.005  0.001  0.004  0.010
   30  0.000  0.000  0.005  0.005
   31  0.005  0.001  0.004  0.010
   32  0.004  0.001  0.003  0.008
   33  0.000  0.000  0.005  0.005
   34  0.004  0.001  0.003  0.008
   35  0.000  0.001  0.008  0.009
   36  0.000  0.000  0.002  0.002
   37  0.000  0.000  0.000  0.000
tot    0.148  0.028  0.574  0.750
 
band    16 # energy   -5.50724924 # occ.  2.00000000
 
ion      s      p      d    tot
    1  0.000  0.001  0.015  0.015
    2  0.000  0.000  0.005  0.006
    3  0.009  0.001  0.005  0.015
    4  0.000  0.000  0.005  0.006
    5  0.000  0.000  0.006  0.006
    6  0.006  0.001  0.005  0.011
    7  0.009  0.001  0.005  0.015
    8  0.006  0.001  0.005  0.011
    9  0.000  0.001  0.006  0.008
   10  0.010  0.000  0.019  0.029
   11  0.000  0.001  0.018  0.019
   12  0.003  0.001  0.029  0.032
   13  0.000  0.001  0.018  0.019
   14  0.000  0.001  0.021  0.022
   15  0.003  0.001  0.048  0.052
   16  0.003  0.001  0.028  0.032
   17  0.003  0.001  0.048  0.052
   18  0.013  0.002  0.006  0.022
   19  0.005  0.001  0.052  0.057
   20  0.000  0.000  0.024  0.024
   21  0.000  0.001  0.021  0.022
   22  0.006  0.001  0.027  0.033
   23  0.000  0.001  0.021  0.022
   24  0.023  0.001  0.018  0.041
   25  0.019  0.001  0.004  0.024
   26  0.005  0.001  0.052  0.057
   27  0.006  0.001  0.027  0.034
   28  0.000  0.001  0.005  0.006
   29  0.001  0.000  0.004  0.005
   30  0.006  0.001  0.003  0.010
   31  0.001  0.000  0.004  0.005
   32  0.002  0.001  0.005  0.007
   33  0.006  0.001  0.003  0.010
   34  0.002  0.001  0.005  0.007
   35  0.000  0.001  0.009  0.009
   36  0.000  0.000  0.002  0.002
   37  0.000  0.000  0.000  0.000
tot    0.148  0.028  0.574  0.750
 
band    17 # energy   -5.18739027 # occ.  2.00000000
 
ion      s      p      d    tot
    1  0.000  0.000  0.024  0.024
    2  0.002  0.001  0.009  0.012
    3  0.003  0.000  0.014  0.017
    4  0.002  0.001  0.009  0.012
    5  0.000  0.001  0.021  0.022
    6  0.010  0.001  0.010  0.021
    7  0.003  0.000  0.014  0.017
    8  0.010  0.001  0.010  0.021
    9  0.000  0.001  0.004  0.005
   10  0.000  0.001  0.023  0.023
   11  0.000  0.000  0.055  0.056
   12  0.000  0.000  0.014  0.014
   13  0.000  0.000  0.055  0.056
   14  0.000  0.001  0.050  0.051
   15  0.000  0.000  0.017  0.018
   16  0.000  0.000  0.014  0.014
   17  0.000  0.000  0.017  0.018
   18  0.000  0.000  0.028  0.029
   19  0.000  0.000  0.008  0.009
   20  0.001  0.000  0.074  0.075
   21  0.000  0.000  0.045  0.046
   22  0.000  0.000  0.025  0.026
   23  0.000  0.000  0.045  0.046
   24  0.001  0.000  0.020  0.021
   25  0.000  0.000  0.013  0.013
   26  0.000  0.000  0.008  0.009
   27  0.000  0.000  0.025  0.026
   28  0.000  0.001  0.006  0.007
   29  0.009  0.001  0.014  0.024
   30  0.001  0.000  0.009  0.010
   31  0.009  0.001  0.014  0.024
   32  0.004  0.000  0.006  0.011
   33  0.001  0.000  0.009  0.011
   34  0.004  0.000  0.006  0.011
   35  0.000  0.000  0.020  0.020
   36  0.000  0.002  0.008  0.010
   37  0.000  0.000  0.000  0.000
tot    0.064  0.016  0.748  0.828
 
band    18 # energy   -5.18735927 # occ.  2.00000000
 
ion      s      p      d    tot
    1  0.000  0.000  0.024  0.024
    2  0.008  0.000  0.013  0.022
    3  0.008  0.001  0.008  0.017
    4  0.008  0.000  0.013  0.022
    5  0.000  0.001  0.021  0.022
    6  0.000  0.000  0.012  0.013
    7  0.008  0.001  0.008  0.017
    8  0.000  0.000  0.012  0.013
    9  0.000  0.001  0.004  0.005
   10  0.000  0.000  0.011  0.011
   11  0.000  0.000  0.052  0.053
   12  0.000  0.000  0.020  0.020
   13  0.000  0.000  0.052  0.053
   14  0.000  0.000  0.057  0.057
   15  0.000  0.000  0.025  0.025
   16  0.000  0.000  0.020  0.020
   17  0.000  0.000  0.025  0.025
   18  0.000  0.000  0.014  0.014
   19  0.000  0.000  0.011  0.012
   20  0.000  0.000  0.036  0.036
   21  0.001  0.000  0.064  0.065
   22  0.001  0.000  0.022  0.023
   23  0.001  0.000  0.064  0.065
   24  0.000  0.000  0.026  0.027
   25  0.000  0.000  0.007  0.007
   26  0.000  0.000  0.011  0.012
   27  0.001  0.000  0.022  0.023
   28  0.000  0.001  0.006  0.007
   29  0.000  0.000  0.006  0.007
   30  0.008  0.001  0.011  0.020
   31  0.000  0.000  0.006  0.007
   32  0.005  0.001  0.014  0.019
   33  0.008  0.001  0.011  0.020
   34  0.005  0.001  0.014  0.019
   35  0.000  0.000  0.020  0.020
   36  0.000  0.002  0.008  0.010
   37  0.000  0.000  0.000  0.000
tot    0.064  0.016  0.748  0.828
 
band    19 # energy   -5.17666135 # occ.  2.00000000
 
ion      s      p      d    tot
    1  0.010  0.000  0.006  0.016
    2  0.000  0.001  0.010  0.010
    3  0.000  0.001  0.010  0.010
    4  0.000  0.001  0.010  0.010
    5  0.000  0.000  0.011  0.012
    6  0.000  0.001  0.010  0.010
    7  0.000  0.001  0.010  0.010
    8  0.000  0.001  0.010  0.010
    9  0.010  0.001  0.000  0.012
   10  0.000  0.000  0.025  0.025
   11  0.000  0.000  0.047  0.048
   12  0.000  0.000  0.025  0.025
   13  0.000  0.000  0.047  0.048
   14  0.000  0.000  0.047  0.047
   15  0.000  0.000  0.028  0.028
   16  0.000  0.000  0.025  0.025
   17  0.000  0.000  0.028  0.028
   18  0.000  0.000  0.028  0.028
   19  0.000  0.000  0.020  0.020
   20  0.001  0.000  0.044  0.046
   21  0.001  0.000  0.044  0.045
   22  0.000  0.000  0.031  0.031
   23  0.001  0.000  0.044  0.045
   24  0.000  0.000  0.031  0.031
   25  0.000  0.000  0.020  0.020
   26  0.000  0.000  0.020  0.020
   27  0.000  0.000  0.031  0.031
   28  0.007  0.000  0.000  0.007
   29  0.000  0.001  0.015  0.016
   30  0.000  0.001  0.015  0.016
   31  0.000  0.001  0.015  0.016
   32  0.000  0.001  0.015  0.016
   33  0.000  0.001  0.015  0.016
   34  0.000  0.001  0.015  0.016
   35  0.018  0.001  0.003  0.021
   36  0.001  0.000  0.009  0.010
   37  0.000  0.000  0.000  0.000
tot    0.053  0.015  0.762  0.830
 
band    20 # energy   -5.16099431 # occ.  2.00000000
 
ion      s      p      d    tot
    1  0.002  0.000  0.004  0.007
    2  0.000  0.001  0.021  0.022
    3  0.000  0.001  0.021  0.022
    4  0.000  0.001  0.021  0.022
    5  0.027  0.001  0.002  0.030
    6  0.000  0.001  0.021  0.022
    7  0.000  0.001  0.021  0.022
    8  0.000  0.001  0.021  0.022
    9  0.014  0.000  0.012  0.027
   10  0.000  0.000  0.035  0.035
   11  0.000  0.001  0.027  0.027
   12  0.000  0.000  0.035  0.035
   13  0.000  0.001  0.027  0.027
   14  0.000  0.001  0.027  0.027
   15  0.000  0.000  0.033  0.033
   16  0.000  0.000  0.035  0.035
   17  0.000  0.000  0.033  0.033
   18  0.000  0.000  0.033  0.033
   19  0.001  0.000  0.024  0.025
   20  0.000  0.000  0.023  0.023
   21  0.000  0.000  0.023  0.024
   22  0.001  0.000  0.016  0.017
   23  0.000  0.000  0.023  0.024
   24  0.001  0.000  0.016  0.017
   25  0.001  0.000  0.024  0.025
   26  0.001  0.000  0.024  0.025
   27  0.001  0.000  0.016  0.017
   28  0.014  0.000  0.008  0.022
   29  0.000  0.000  0.017  0.018
   30  0.000  0.000  0.017  0.018
   31  0.000  0.000  0.017  0.018
   32  0.000  0.000  0.017  0.018
   33  0.000  0.000  0.017  0.018
   34  0.000  0.000  0.017  0.018
   35  0.002  0.000  0.004  0.006
   36  0.006  0.000  0.000  0.006
   37  0.000  0.000  0.000  0.000
tot    0.071  0.016  0.734  0.821
 
band    21 # energy   -5.13684311 # occ.  2.00000000
 
ion      s      p      d    tot
    1  0.000  0.002  0.010  0.012
    2  0.004  0.001  0.014  0.018
    3  0.006  0.001  0.021  0.027
    4  0.003  0.001  0.014  0.018
    5  0.000  0.001  0.025  0.025
    6  0.017  0.001  0.017  0.034
    7  0.005  0.001  0.021  0.026
    8  0.017  0.001  0.016  0.034
    9  0.000  0.000  0.045  0.045
   10  0.000  0.000  0.037  0.037
   11  0.000  0.000  0.018  0.018
   12  0.000  0.001  0.045  0.046
   13  0.000  0.000  0.018  0.019
   14  0.000  0.000  0.016  0.016
   15  0.000  0.001  0.033  0.034
   16  0.000  0.001  0.044  0.045
   17  0.000  0.001  0.033  0.034
   18  0.000  0.000  0.037  0.038
   19  0.000  0.000  0.025  0.025
   20  0.000  0.001  0.012  0.012
   21  0.000  0.000  0.013  0.013
   22  0.002  0.000  0.022  0.025
   23  0.000  0.000  0.013  0.013
   24  0.000  0.000  0.009  0.009
   25  0.000  0.000  0.016  0.017
   26  0.000  0.000  0.026  0.026
   27  0.002  0.000  0.021  0.023
   28  0.000  0.000  0.020  0.021
   29  0.009  0.001  0.009  0.018
   30  0.002  0.000  0.013  0.015
   31  0.009  0.001  0.009  0.019
   32  0.002  0.000  0.006  0.008
   33  0.002  0.000  0.013  0.016
   34  0.003  0.000  0.005  0.009
   35  0.000  0.001  0.005  0.006
   36  0.000  0.000  0.009  0.009