 vasp.6.2.0 18Jan21 (build Jun 12 2021 23:27:24) complex                        
  
 executed on             LinuxIFC date 2022.05.27  06:20:35
 running on   28 total cores
 distrk:  each k-point on   28 cores,    1 groups
 distr:  one band on NCORE=   1 cores,   28 groups


--------------------------------------------------------------------------------------------------------


 INCAR:
   ISMEAR = -5
   SIGMA = 0.1
   ISPIN = 1
   EDIFF = 1.d-5
   EDIFFG = -0.01
   NSW = 0
   NELM = 150
   ENCUT = 500
   ISIF = 2
   IBRION = 2
   LREAL = Auto
   ALGO = Fast
   ICHARG = 11
   LORBIT = 10
   LCHARG = .F.
   LWAVE = .F.

 POTCAR:    PAW_PBE Cu 22Jun2005                  
 POTCAR:    PAW_PBE Os 17Jan2003                  
 POTCAR:    PAW_PBE N 08Apr2002                   
 -----------------------------------------------------------------------------
|                                                                             |
|           W    W    AA    RRRRR   N    N  II  N    N   GGGG   !!!           |
|           W    W   A  A   R    R  NN   N  II  NN   N  G    G  !!!           |
|           W    W  A    A  R    R  N N  N  II  N N  N  G       !!!           |
|           W WW W  AAAAAA  RRRRR   N  N N  II  N  N N  G  GGG   !            |
|           WW  WW  A    A  R   R   N   NN  II  N   NN  G    G                |
|           W    W  A    A  R    R  N    N  II  N    N   GGGG   !!!           |
|                                                                             |
|     For optimal performance we recommend to set                             |
|       NCORE = 2 up to number-of-cores-per-socket                            |
|     NCORE specifies how many cores store one orbital (NPAR=cpu/NCORE).      |
|     This setting can greatly improve the performance of VASP for DFT.       |
|     The default, NCORE=1 might be grossly inefficient on modern             |
|     multi-core architectures or massively parallel machines. Do your        |
|     own testing! More info at https://www.vasp.at/wiki/index.php/NCORE      |
|     Unfortunately you need to use the default for GW and RPA                |
|     calculations (for HF NCORE is supported but not extensively tested      |
|     yet).                                                                   |
|                                                                             |
 -----------------------------------------------------------------------------

 POTCAR:    PAW_PBE Cu 22Jun2005                  
   VRHFIN =Cu: d10 p1                                                                               
   LEXCH  = PE                                                                                      
   EATOM  =  1390.9808 eV,  102.2342 Ry                                                             
                                                                                                    
   TITEL  = PAW_PBE Cu 22Jun2005                                                                    
   LULTRA =        F    use ultrasoft PP ?                                                          
   IUNSCR =        1    unscreen: 0-lin 1-nonlin 2-no                                               
   RPACOR =    2.000    partial core radius                                                         
   POMASS =   63.546; ZVAL   =   11.000    mass and valenz                                          
   RCORE  =    2.300    outmost cutoff radius                                                       
   RWIGS  =    2.200; RWIGS  =    1.164    wigner-seitz radius (au A)                               
   ENMAX  =  295.446; ENMIN  =  221.585 eV                                                          
   ICORE  =        3    local potential                                                             
   LCOR   =        T    correct aug charges                                                         
   LPAW   =        T    paw PP                                                                      
   EAUG   =  586.980                                                                                
   DEXC   =    0.000                                                                                
   RMAX   =    2.344    core radius for proj-oper                                                   
   RAUG   =    1.300    factor for augmentation sphere                                              
   RDEP   =    2.302    radius for radial grids                                                     
   RDEPT  =    1.771    core radius for aug-charge                                                  
                                                                                                    
   Atomic configuration                                                                             
    9 entries                                                                                       
     n  l   j            E        occ.                                                              
     1  0  0.50     -8850.2468   2.0000                                                             
     2  0  0.50     -1062.3498   2.0000                                                             
     2  1  1.50      -916.8226   6.0000                                                             
     3  0  0.50      -114.6929   2.0000                                                             
     3  1  1.50       -72.1325   6.0000                                                             
     3  2  2.50        -5.0394  10.0000                                                             
     4  0  0.50        -4.6097   1.0000                                                             
     4  1  0.50        -4.0817   0.0000                                                             
     4  3  2.50        -1.3606   0.0000                                                             
   Description                                                                                      
     l       E           TYP  RCUT    TYP  RCUT                                                     
     2     -5.0393973     23  2.200                                                                 
     2     10.8846608     23  2.200                                                                 
     0     -4.6097109     23  2.200                                                                 
     0      8.2520465     23  2.200                                                                 
     1     -2.7211652     23  2.200                                                                 
     1     21.7055443     23  2.200                                                                 
     3      2.7211652     23  2.300                                                                 
  local pseudopotential read in
  partial core-charges read in
  partial kinetic energy density read in
  atomic valenz-charges read in
  non local Contribution for L=           2  read in
    real space projection operators read in
  non local Contribution for L=           2  read in
    real space projection operators read in
  non local Contribution for L=           0  read in
    real space projection operators read in
  non local Contribution for L=           0  read in
    real space projection operators read in
  non local Contribution for L=           1  read in
    real space projection operators read in
  non local Contribution for L=           1  read in
    real space projection operators read in
    PAW grid and wavefunctions read in
 
   number of l-projection  operators is LMAX  =           6
   number of lm-projection operators is LMMAX =          18
 
 POTCAR:    PAW_PBE Os 17Jan2003                  
   VRHFIN =Os: 6s5d                                                                                 
   LEXCH  = PE                                                                                      
   EATOM  =   417.5999 eV,   30.6927 Ry                                                             
                                                                                                    
   TITEL  = PAW_PBE Os 17Jan2003                                                                    
   LULTRA =        F    use ultrasoft PP ?                                                          
   IUNSCR =        1    unscreen: 0-lin 1-nonlin 2-no                                               
   RPACOR =    2.250    partial core radius                                                         
   POMASS =  190.200; ZVAL   =    8.000    mass and valenz                                          
   RCORE  =    2.700    outmost cutoff radius                                                       
   RWIGS  =    2.670; RWIGS  =    1.413    wigner-seitz radius (au A)                               
   ENMAX  =  228.022; ENMIN  =  171.017 eV                                                          
   RCLOC  =    2.004    cutoff for local pot                                                        
   LCOR   =        T    correct aug charges                                                         
   LPAW   =        T    paw PP                                                                      
   EAUG   =  365.080                                                                                
   DEXC   =    0.000                                                                                
   RMAX   =    2.766    core radius for proj-oper                                                   
   RAUG   =    1.300    factor for augmentation sphere                                              
   RDEP   =    2.738    radius for radial grids                                                     
   RDEPT  =    2.220    core radius for aug-charge                                                  
                                                                                                    
   Atomic configuration                                                                             
   16 entries                                                                                       
     n  l   j            E        occ.                                                              
     1  0  0.50    -73844.2437   2.0000                                                             
     2  0  0.50    -12856.6893   2.0000                                                             
     2  1  1.50    -11191.7995   6.0000                                                             
     3  0  0.50     -2990.1422   2.0000                                                             
     3  1  1.50     -2501.5221   6.0000                                                             
     3  2  2.50     -1956.5818  10.0000                                                             
     4  0  0.50      -629.1606   2.0000                                                             
     4  1  1.50      -468.9548   6.0000                                                             
     4  2  2.50      -270.2868  10.0000                                                             
     4  3  3.50       -49.5699  14.0000                                                             
     5  0  0.50       -89.1521   2.0000                                                             
     5  1  1.50       -48.6063   6.0000                                                             
     5  2  2.50        -4.7055   7.0000                                                             
     6  0  0.50        -5.4288   1.0000                                                             
     6  1  1.50        -2.7212   0.0000                                                             
     5  3  2.50        -6.8029   0.0000                                                             
   Description                                                                                      
     l       E           TYP  RCUT    TYP  RCUT                                                     
     2     -4.7055230     23  2.500                                                                 
     2     -6.0661056     23  2.500                                                                 
     0     -5.4288441     23  2.500                                                                 
     0      3.7338294     23  2.500                                                                 
     1     -2.7211652     23  2.700                                                                 
     1     27.2116520     23  2.700                                                                 
  local pseudopotential read in
  partial core-charges read in
  partial kinetic energy density read in
  atomic valenz-charges read in
  non local Contribution for L=           2  read in
    real space projection operators read in
  non local Contribution for L=           2  read in
    real space projection operators read in
  non local Contribution for L=           0  read in
    real space projection operators read in
  non local Contribution for L=           0  read in
    real space projection operators read in
  non local Contribution for L=           1  read in
    real space projection operators read in
  non local Contribution for L=           1  read in
    real space projection operators read in
    PAW grid and wavefunctions read in
 
   number of l-projection  operators is LMAX  =           6
   number of lm-projection operators is LMMAX =          18
 
 POTCAR:    PAW_PBE N 08Apr2002                   
   VRHFIN =N: s2p3                                                                                  
   LEXCH  = PE                                                                                      
   EATOM  =   264.5486 eV,   19.4438 Ry                                                             
                                                                                                    
   TITEL  = PAW_PBE N 08Apr2002                                                                     
   LULTRA =        F    use ultrasoft PP ?                                                          
   IUNSCR =        1    unscreen: 0-lin 1-nonlin 2-no                                               
   RPACOR =    1.200    partial core radius                                                         
   POMASS =   14.001; ZVAL   =    5.000    mass and valenz                                          
   RCORE  =    1.500    outmost cutoff radius                                                       
   RWIGS  =    1.400; RWIGS  =    0.741    wigner-seitz radius (au A)                               
   ENMAX  =  400.000; ENMIN  =  300.000 eV                                                          
   ICORE  =        2    local potential                                                             
   LCOR   =        T    correct aug charges                                                         
   LPAW   =        T    paw PP                                                                      
   EAUG   =  627.112                                                                                
   DEXC   =    0.000                                                                                
   RMAX   =    1.529    core radius for proj-oper                                                   
   RAUG   =    1.300    factor for augmentation sphere                                              
   RDEP   =    1.514    radius for radial grids                                                     
   RDEPT  =    1.338    core radius for aug-charge                                                  
                                                                                                    
   Atomic configuration                                                                             
    4 entries                                                                                       
     n  l   j            E        occ.                                                              
     1  0  0.50      -384.7179   2.0000                                                             
     2  0  0.50       -18.5828   2.0000                                                             
     2  1  0.50        -7.0898   3.0000                                                             
     3  2  1.50        -6.8029   0.0000                                                             
   Description                                                                                      
     l       E           TYP  RCUT    TYP  RCUT                                                     
     0    -18.5828119     23  1.200                                                                 
     0    -13.5018863     23  1.200                                                                 
     1     -7.0897853     23  1.500                                                                 
     1      9.5240782     23  1.500                                                                 
     2     -6.8029130      7  1.500                                                                 
  local pseudopotential read in
  partial core-charges read in
  partial kinetic energy density read in
  atomic valenz-charges read in
  non local Contribution for L=           0  read in
    real space projection operators read in
  non local Contribution for L=           0  read in
    real space projection operators read in
  non local Contribution for L=           1  read in
    real space projection operators read in
  non local Contribution for L=           1  read in
    real space projection operators read in
    PAW grid and wavefunctions read in
 
   number of l-projection  operators is LMAX  =           4
   number of lm-projection operators is LMMAX =           8
 
 Optimization of the real space projectors (new method)

 maximal supplied QI-value         = 16.25
 optimisation between [QCUT,QGAM] = [ 11.38, 22.75] = [ 36.24,144.96] Ry 
 Optimized for a Real-space Cutoff    1.52 Angstroem

   l    n(q)    QCUT    max X(q) W(low)/X(q) W(high)/X(q)  e(spline) 
   2      9    11.376     4.610    0.21E-03    0.10E-03    0.26E-06
   2      9    11.376     8.522    0.33E-03    0.16E-03    0.37E-06
   0     10    11.376    51.609    0.62E-04    0.20E-04    0.13E-06
   0     10    11.376    27.747    0.54E-04    0.20E-04    0.13E-06
   1     10    11.376    20.408    0.13E-04    0.99E-04    0.19E-06
   1     10    11.376    13.425    0.12E-04    0.87E-04    0.17E-06
 Optimization of the real space projectors (new method)

 maximal supplied QI-value         = 13.98
 optimisation between [QCUT,QGAM] = [ 11.33, 22.79] = [ 35.93,145.49] Ry 
 Optimized for a Real-space Cutoff    1.56 Angstroem

   l    n(q)    QCUT    max X(q) W(low)/X(q) W(high)/X(q)  e(spline) 
   2     10    11.327   152.873    0.32E-03    0.72E-03    0.11E-05
   2     10    11.327   151.010    0.32E-03    0.72E-03    0.11E-05
   0     11    11.327    72.114    0.43E-04    0.61E-04    0.13E-06
   0     11    11.327    44.596    0.40E-04    0.57E-04    0.12E-06
   1     10    11.327    13.742    0.16E-03    0.10E-03    0.19E-06
   1     10    11.327     8.461    0.12E-03    0.78E-04    0.15E-06
 Optimization of the real space projectors (new method)

 maximal supplied QI-value         = 25.13
 optimisation between [QCUT,QGAM] = [ 11.31, 22.87] = [ 35.82,146.48] Ry 
 Optimized for a Real-space Cutoff    1.27 Angstroem

   l    n(q)    QCUT    max X(q) W(low)/X(q) W(high)/X(q)  e(spline) 
   0      9    11.310    79.467    0.75E-04    0.16E-03    0.36E-06
   0      9    11.310    66.151    0.74E-04    0.16E-03    0.36E-06
   1      8    11.310    17.416    0.35E-03    0.12E-03    0.95E-06
   1      8    11.310    12.382    0.37E-03    0.13E-03    0.98E-06
  PAW_PBE Cu 22Jun2005                  :
 energy of atom  1       EATOM=-1390.9808
 kinetic energy error for atom=    0.0043 (will be added to EATOM!!)
  PAW_PBE Os 17Jan2003                  :
 energy of atom  2       EATOM= -417.5999
 kinetic energy error for atom=    0.0029 (will be added to EATOM!!)
  PAW_PBE N 08Apr2002                   :
 energy of atom  3       EATOM= -264.5486
 kinetic energy error for atom=    0.0138 (will be added to EATOM!!)
 
 
 POSCAR: Cu-Os-N2
  positions in direct lattice
  velocities in cartesian coordinates
 exchange correlation table for  LEXCH =        8
   RHO(1)=    0.500       N(1)  =     2000
   RHO(2)=  100.500       N(2)  =     4000

 VTST: version 3.2, (02/03/18)

 CHAIN: initializing optimizer
 
 OPT: Using VASP Conjugate-Gradient optimizer
 CHAIN: Read ICHAIN            0
 
 POSCAR: Cu-Os-N2
  positions in direct lattice
  velocities in cartesian coordinates
 


--------------------------------------------------------------------------------------------------------


 ion  position               nearest neighbor table
   1  0.000  0.000  0.252-   7 2.57   3 2.57   4 2.57   2 2.57   6 2.57   8 2.57  12 2.57  10 2.57
                            16 2.57
   2  0.333  0.000  0.252-   8 2.57   9 2.57   5 2.57   1 2.57   3 2.57  11 2.57   4 2.57  10 2.57
                            17 2.57
   3  0.667  0.000  0.252-   1 2.57   7 2.57   6 2.57   9 2.57   2 2.57  12 2.57   5 2.57  18 2.57
                            11 2.57
   4  0.000  0.333  0.252-   5 2.57   6 2.57   1 2.57   7 2.57   2 2.57  13 2.57   9 2.57  10 2.57
                            15 2.57
   5  0.333  0.333  0.252-   4 2.57   2 2.57   7 2.57  13 2.57   8 2.57   6 2.57   3 2.57  11 2.57
                            14 2.57
   6  0.667  0.333  0.252-   4 2.57   9 2.57  15 2.57   3 2.57   1 2.57   8 2.57  14 2.57   5 2.57
                            12 2.57
   7  0.000  0.667  0.252-   1 2.57   3 2.57  16 2.57  18 2.57   4 2.57   5 2.57   8 2.57   9 2.57
                            13 2.57
   8  0.333  0.667  0.252-   9 2.57   2 2.57  17 2.57   6 2.57   1 2.57   7 2.57   5 2.57  14 2.57
                            16 2.57
   9  0.667  0.667  0.252-   8 2.57   6 2.57   2 2.57  17 2.57   3 2.57   7 2.57   4 2.57  15 2.57
                            18 2.57
  10  0.111  0.111  0.351-  20 2.53  11 2.57  12 2.57  13 2.57   1 2.57   2 2.57   4 2.57  15 2.57
                            16 2.57  17 2.57  26 2.57  19 2.57
  11  0.444  0.111  0.351-  20 2.54  21 2.54  10 2.57  13 2.57   2 2.57  17 2.57  14 2.57  12 2.57
                             5 2.57   3 2.57  18 2.57  27 2.57
  12  0.778  0.111  0.351-  21 2.53  15 2.57  10 2.57  14 2.57  18 2.57   3 2.57   1 2.57  16 2.57
                            11 2.57   6 2.57  19 2.57  25 2.57
  13  0.111  0.444  0.351-  23 2.54  20 2.54  16 2.57  18 2.57  10 2.57  11 2.57  14 2.57   5 2.57
                             4 2.57   7 2.57  15 2.57  22 2.57
  14  0.444  0.444  0.351-  21 2.54  23 2.54  15 2.57  17 2.57  12 2.57  16 2.57  13 2.57  11 2.57
                             6 2.57   8 2.57   5 2.57  24 2.57
  15  0.778  0.444  0.351-  19 2.56  14 2.57  17 2.57  12 2.57   6 2.57  18 2.57  10 2.57   9 2.57
                            13 2.57   4 2.57  24 2.57  22 2.57
  16  0.111  0.778  0.351-  23 2.53  18 2.57  13 2.57   7 2.57  14 2.57  17 2.57  12 2.57  10 2.57
                             8 2.57   1 2.57  25 2.57  26 2.57
  17  0.444  0.778  0.351-  26 2.56  14 2.57  15 2.57   8 2.57   9 2.57  11 2.57  16 2.57  18 2.57
                            10 2.57   2 2.57  27 2.57  24 2.57
  18  0.778  0.778  0.351-  25 2.56  16 2.57  13 2.57   7 2.57  15 2.57  12 2.57  17 2.57   9 2.57
                             3 2.57  11 2.57  22 2.57  27 2.57
  19  0.888  0.223  0.449-  21 2.55  20 2.55  28 2.55  22 2.56  24 2.56  15 2.56  12 2.57  10 2.57
                            32 2.57  31 2.57  25 2.57  26 2.57
  20  0.221  0.221  0.448-  10 2.53  36 2.53  11 2.54  13 2.54  26 2.55  19 2.55  27 2.57  22 2.57
                            23 2.59  21 2.59  29 2.60  31 2.60
  21  0.558  0.221  0.448-  12 2.53  36 2.53  14 2.54  11 2.54  19 2.55  25 2.55  24 2.57  27 2.57
                            20 2.59  23 2.59  32 2.60  30 2.60
  22  0.888  0.556  0.449-  35 2.55  24 2.55  27 2.55  19 2.56  25 2.56  18 2.57  15 2.57  23 2.57
                            20 2.57  13 2.57  31 2.58  33 2.58
  23  0.221  0.558  0.448-  16 2.53  36 2.53  13 2.54  14 2.54  25 2.55  26 2.55  22 2.57  24 2.57
                            20 2.59  21 2.59  33 2.60  34 2.60
  24  0.556  0.556  0.449-  35 2.55  22 2.55  27 2.55  19 2.56  26 2.56  15 2.57  17 2.57  21 2.57
                            23 2.57  14 2.57  32 2.58  34 2.58
  25  0.888  0.888  0.449-  21 2.55  23 2.55  28 2.55  22 2.56  27 2.56  18 2.56  16 2.57  12 2.57
                            33 2.57  30 2.57  19 2.57  26 2.57
  26  0.223  0.888  0.449-  20 2.55  23 2.55  28 2.55  27 2.56  24 2.56  17 2.56  10 2.57  16 2.57
                            29 2.57  34 2.57  25 2.57  19 2.57
  27  0.556  0.888  0.449-  35 2.55  24 2.55  22 2.55  26 2.56  25 2.56  17 2.57  18 2.57  20 2.57
                            21 2.57  11 2.57  29 2.58  30 2.58
  28  0.000  0.000  0.547-  25 2.55  19 2.55  26 2.55  33 2.56  30 2.56  31 2.56  29 2.56  32 2.56
                            34 2.56
  29  0.333  0.000  0.548-  31 2.56  28 2.56  34 2.57  36 2.57  35 2.57  30 2.57  26 2.57  27 2.58
                            20 2.60
  30  0.667  0.000  0.548-  32 2.56  28 2.56  33 2.57  36 2.57  35 2.57  29 2.57  25 2.57  27 2.58
                            21 2.60
  31  0.000  0.333  0.548-  29 2.56  28 2.56  32 2.57  36 2.57  35 2.57  33 2.57  19 2.57  22 2.58
                            20 2.60
  32  0.667  0.333  0.548-  30 2.56  28 2.56  31 2.57  36 2.57  35 2.57  34 2.57  19 2.57  24 2.58
                            21 2.60
  33  0.000  0.667  0.548-  34 2.56  28 2.56  30 2.57  36 2.57  35 2.57  31 2.57  25 2.57  22 2.58
                            23 2.60
  34  0.333  0.667  0.548-  33 2.56  28 2.56  29 2.57  36 2.57  35 2.57  32 2.57  26 2.57  24 2.58
                            23 2.60
  35  0.667  0.667  0.547-  24 2.55  27 2.55  22 2.55  34 2.57  32 2.57  29 2.57  30 2.57  33 2.57
                            31 2.57
  36  0.333  0.333  0.544-  37 2.40  38 2.40  23 2.53  20 2.53  21 2.53  31 2.57  29 2.57  33 2.57
                            34 2.57  32 2.57  30 2.57
  37  0.261  0.330  0.654-  38 1.14  36 2.40
  38  0.409  0.330  0.654-  37 1.14  36 2.40
 
  LATTYP: Found a hexagonal cell.
 ALAT       =     7.6967864036
 C/A-ratio  =     2.7653617908
  
  Lattice vectors:
  
 A1 = (  -3.8483927580,  -6.6656128093,   0.0000000000)
 A2 = (   7.6967864037,   0.0000000000,   0.0000000000)
 A3 = (   0.0000000000,   0.0000000000,  21.2843990326)


Analysis of symmetry for initial positions (statically):
=====================================================================
 Subroutine PRICEL returns:
 Original cell was already a primitive cell.
 

 Routine SETGRP: Setting up the symmetry group for a 
 hexagonal supercell.


 Subroutine GETGRP returns: Found  2 space group operations
 (whereof  2 operations were pure point group operations)
 out of a pool of 24 trial point group operations.


The static configuration has the point symmetry C_1h.


Analysis of symmetry for dynamics (positions and initial velocities):
=====================================================================
 Subroutine PRICEL returns:
 Original cell was already a primitive cell.
 

 Routine SETGRP: Setting up the symmetry group for a 
 hexagonal supercell.


 Subroutine GETGRP returns: Found  2 space group operations
 (whereof  2 operations were pure point group operations)
 out of a pool of 24 trial point group operations.


The dynamic configuration has the point symmetry C_1h.


Analysis of constrained symmetry for selective dynamics:
=====================================================================
 Subroutine PRICEL returns:
 Original cell was already a primitive cell.
 

 Routine SETGRP: Setting up the symmetry group for a 
 hexagonal supercell.


 Subroutine GETGRP returns: Found  2 space group operations
 (whereof  2 operations were pure point group operations)
 out of a pool of 24 trial point group operations.


The constrained configuration has the point symmetry C_1h.


 Subroutine INISYM returns: Found  2 space group operations
 (whereof  2 operations are pure point group operations),
 and found     1 'primitive' translations


----------------------------------------------------------------------------------------

                                     Primitive cell                                     

  volume of cell :    1091.9705

  direct lattice vectors                    reciprocal lattice vectors
     7.696786404  0.000000000  0.000000000     0.129924354 -0.075011849  0.000000000
     3.848392758  6.665612809  0.000000000     0.000000000  0.150023716  0.000000000
     0.000000000  0.000000000 21.284399033     0.000000000  0.000000000  0.046982769

  length of vectors
     7.696786404  7.696786404 21.284399033     0.150023716  0.150023716  0.046982769

  position of ions in fractional coordinates (direct lattice)
     0.000000000  0.000000000  0.252370745
     0.333333343  0.000000000  0.252370745
     0.666666687  0.000000000  0.252370745
     1.000000000  0.333333343  0.252370745
     0.333333313  0.333333343  0.252370745
     0.666666687  0.333333343  0.252370745
     1.000000000  0.666666687  0.252370745
     0.333333373  0.666666687  0.252370745
     0.666666627  0.666666687  0.252370745
     0.111111119  0.111111112  0.350790262
     0.444444418  0.111111112  0.350790262
     0.777777791  0.111111112  0.350790262
     0.111111119  0.444444448  0.350790262
     0.444444478  0.444444448  0.350790262
     0.777777731  0.444444448  0.350790262
     0.111111112  0.777777731  0.350790262
     0.444444478  0.777777731  0.350790262
     0.777777851  0.777777731  0.350790262
     0.888489608  0.223020800  0.449343033
     0.221224753  0.221224738  0.447740870
     0.557550555  0.221224738  0.447740870
     0.887835629  0.556082155  0.449402378
     0.221224723  0.557550495  0.447740870
     0.556082215  0.556082155  0.449402378
     0.888489608  0.888489608  0.449343033
     0.223020815  0.888489608  0.449343033
     0.556082155  0.887835629  0.449402378
     0.000000000  0.000000000  0.546965684
     0.332662001  0.000362845  0.548408402
     0.666975184  0.000362845  0.548408402
     0.000362845  0.332662001  0.548408402
     0.666975184  0.332662001  0.548408402
     0.000362845  0.666975184  0.548408402
     0.332662031  0.666975184  0.548408402
     0.666666627  0.666666687  0.546895864
     0.333333313  0.333333343  0.543862794
     0.260729171  0.329808781  0.653527611
     0.409462017  0.329808781  0.653527611

  ion indices of the primitive-cell ions
   primitive index   ion index
                 1           1
                 2           2
                 3           3
                 4           4
                 5           5
                 6           6
                 7           7
                 8           8
                 9           9
                10          10
                11          11
                12          12
                13          13
                14          14
                15          15
                16          16
                17          17
                18          18
                19          19
                20          20
                21          21
                22          22
                23          23
                24          24
                25          25
                26          26
                27          27
                28          28
                29          29
                30          30
                31          31
                32          32
                33          33
                34          34
                35          35
                36          36
                37          37
                38          38

----------------------------------------------------------------------------------------

 
 
 KPOINTS: Automatic mesh                          

Automatic generation of k-mesh.
 Grid dimensions read from file:
 generate k-points for:    8    8    1

 Generating k-lattice:

  Cartesian coordinates                     Fractional coordinates (reciprocal lattice)
     0.016240544 -0.009376481  0.000000000     0.125000000 -0.000000000  0.000000000
     0.000000000  0.018752964  0.000000000     0.000000000  0.125000000  0.000000000
     0.000000000  0.000000000  0.046982769     0.000000000  0.000000000  1.000000000

  Length of vectors
     0.018752964  0.018752964  0.046982769

  Shift w.r.t. Gamma in fractional coordinates (k-lattice)
     0.000000000  0.000000000  0.000000000

 TETIRR: Found    100 inequivalent tetrahedra from      384
 
 Subroutine IBZKPT returns following result:
 ===========================================
 
 Found     21 irreducible k-points:
 
 Following reciprocal coordinates:
            Coordinates               Weight
  0.000000  0.000000  0.000000      1.000000
  0.125000 -0.000000  0.000000      4.000000
  0.000000  0.125000  0.000000      2.000000
  0.250000 -0.000000  0.000000      4.000000
  0.000000  0.250000  0.000000      2.000000
  0.375000 -0.000000  0.000000      4.000000
  0.000000  0.375000  0.000000      2.000000
  0.500000 -0.000000  0.000000      2.000000
  0.000000  0.500000  0.000000      1.000000
  0.250000  0.125000  0.000000      2.000000
  0.125000  0.250000  0.000000      4.000000
  0.375000  0.125000  0.000000      4.000000
  0.250000  0.375000  0.000000      4.000000
 -0.125000  0.250000  0.000000      4.000000
  0.500000  0.125000  0.000000      4.000000
  0.375000  0.500000  0.000000      4.000000
 -0.125000  0.375000  0.000000      4.000000
  0.500000  0.250000  0.000000      2.000000
  0.250000  0.500000  0.000000      4.000000
 -0.375000  0.250000  0.000000      4.000000
 -0.250000  0.375000  0.000000      2.000000
 
 Following cartesian coordinates:
            Coordinates               Weight
  0.000000  0.000000  0.000000      1.000000
  0.016241 -0.009376  0.000000      4.000000
  0.000000  0.018753  0.000000      2.000000
  0.032481 -0.018753  0.000000      4.000000
  0.000000  0.037506  0.000000      2.000000
  0.048722 -0.028129  0.000000      4.000000
  0.000000  0.056259  0.000000      2.000000
  0.064962 -0.037506  0.000000      2.000000
  0.000000  0.075012  0.000000      1.000000
  0.032481  0.000000  0.000000      2.000000
  0.016241  0.028129  0.000000      4.000000
  0.048722 -0.009376  0.000000      4.000000
  0.032481  0.037506  0.000000      4.000000
 -0.016241  0.046882  0.000000      4.000000
  0.064962 -0.018753  0.000000      4.000000
  0.048722  0.046882  0.000000      4.000000
 -0.016241  0.065635  0.000000      4.000000
  0.064962  0.000000  0.000000      2.000000
  0.032481  0.056259  0.000000      4.000000
 -0.048722  0.065635  0.000000      4.000000
 -0.032481  0.075012  0.000000      2.000000
 


--------------------------------------------------------------------------------------------------------




 Dimension of arrays:
   k-points           NKPTS =     21   k-points in BZ     NKDIM =     21   number of bands    NBANDS=    252
   number of dos      NEDOS =    301   number of ions     NIONS =     38
   non local maximal  LDIM  =      6   non local SUM 2l+1 LMDIM =     18
   total plane-waves  NPLWV = 211680
   max r-space proj   IRMAX =   3157   max aug-charges    IRDMAX=  11646
   dimension x,y,z NGX =    42 NGY =   42 NGZ =  120
   dimension x,y,z NGXF=    84 NGYF=   84 NGZF=  240
   support grid    NGXF=    84 NGYF=   84 NGZF=  240
   ions per type =              35   1   2
   NGX,Y,Z   is equivalent  to a cutoff of   9.07,  9.07,  9.37 a.u.
   NGXF,Y,Z  is equivalent  to a cutoff of  18.14, 18.14, 18.75 a.u.

 SYSTEM =  unknown system                          
 POSCAR =  Cu-Os-N2                                

 Startparameter for this run:
   NWRITE =      2    write-flag & timer
   PREC   = normal    normal or accurate (medium, high low for compatibility)
   ISTART =      0    job   : 0-new  1-cont  2-samecut
   ICHARG =     11    charge: 1-file 2-atom 10-const
   ISPIN  =      1    spin polarized calculation?
   LNONCOLLINEAR =      F non collinear calculations
   LSORBIT =      F    spin-orbit coupling
   INIWAV =      1    electr: 0-lowe 1-rand  2-diag
   LASPH  =      F    aspherical Exc in radial PAW
   METAGGA=      F    non-selfconsistent MetaGGA calc.

 Electronic Relaxation 1
   ENCUT  =  500.0 eV  36.75 Ry    6.06 a.u.  14.03 14.03 38.81*2*pi/ulx,y,z
   ENINI  =  500.0     initial cutoff
   ENAUG  =  627.1 eV  augmentation charge cutoff
   NELM   =    150;   NELMIN=  2; NELMDL= -5     # of ELM steps 
   EDIFF  = 0.1E-04   stopping-criterion for ELM
   LREAL  =      T    real-space projection
   NLSPLINE    = F    spline interpolate recip. space projectors
   LCOMPAT=      F    compatible to vasp.4.4
   GGA_COMPAT  = T    GGA compatible to vasp.4.4-vasp.4.6
   LMAXPAW     = -100 max onsite density
   LMAXMIX     =    2 max onsite mixed and CHGCAR
   VOSKOWN=      0    Vosko Wilk Nusair interpolation
   ROPT   =   -0.00050  -0.00050  -0.00050
 Ionic relaxation
   EDIFFG = -.1E-01   stopping-criterion for IOM
   NSW    =      0    number of steps for IOM
   NBLOCK =      1;   KBLOCK =      1    inner block; outer block 
   IBRION =     -1    ionic relax: 0-MD 1-quasi-New 2-CG
   NFREE  =      1    steps in history (QN), initial steepest desc. (CG)
   ISIF   =      2    stress and relaxation
   IWAVPR =     10    prediction:  0-non 1-charg 2-wave 3-comb
   ISYM   =      2    0-nonsym 1-usesym 2-fastsym
   LCORR  =      T    Harris-Foulkes like correction to forces

   POTIM  = 0.5000    time-step for ionic-motion
   TEIN   =    0.0    initial temperature
   TEBEG  =    0.0;   TEEND  =   0.0 temperature during run
   SMASS  =  -3.00    Nose mass-parameter (am)
   estimated Nose-frequenzy (Omega)   =  0.10E-29 period in steps = 0.13E+47 mass=  -0.135E-26a.u.
   SCALEE = 1.0000    scale energy and forces
   NPACO  =    256;   APACO  = 16.0  distance and # of slots for P.C.
   PSTRESS=    0.0 pullay stress

  Mass of Ions in am
   POMASS =  63.55190.20 14.00
  Ionic Valenz
   ZVAL   =  11.00  8.00  5.00
  Atomic Wigner-Seitz radii
   RWIGS  =  -1.00 -1.00 -1.00
  virtual crystal weights 
   VCA    =   1.00  1.00  1.00
   NELECT =     403.0000    total number of electrons
   NUPDOWN=      -1.0000    fix difference up-down

 DOS related values:
   EMIN   =  10.00;   EMAX   =-10.00  energy-range for DOS
   EFERMI =   0.00
   ISMEAR =    -5;   SIGMA  =   0.10  broadening in eV -4-tet -1-fermi 0-gaus

 Electronic relaxation 2 (details)
   IALGO  =     68    algorithm
   LDIAG  =      T    sub-space diagonalisation (order eigenvalues)
   LSUBROT=      F    optimize rotation matrix (better conditioning)
   TURBO    =      0    0=normal 1=particle mesh
   IRESTART =      0    0=no restart 2=restart with 2 vectors
   NREBOOT  =      0    no. of reboots
   NMIN     =      0    reboot dimension
   EREF     =   0.00    reference energy to select bands
   IMIX   =      4    mixing-type and parameters
     AMIX     =   0.40;   BMIX     =  1.00
     AMIX_MAG =   1.60;   BMIX_MAG =  1.00
     AMIN     =   0.10
     WC   =   100.;   INIMIX=   1;  MIXPRE=   1;  MAXMIX= -45

 Intra band minimization:
   WEIMIN = 0.0000     energy-eigenvalue tresh-hold
   EBREAK =  0.99E-08  absolut break condition
   DEPER  =   0.30     relativ break condition  

   TIME   =   0.40     timestep for ELM

  volume/ion in A,a.u.               =      28.74       193.92
  Fermi-wavevector in a.u.,A,eV,Ry     =   1.174283  2.219074 18.761634  1.378941
  Thomas-Fermi vector in A             =   2.310683
 
 Write flags
   LWAVE        =      F    write WAVECAR
   LDOWNSAMPLE  =      F    k-point downsampling of WAVECAR
   LCHARG       =      F    write CHGCAR
   LVTOT        =      F    write LOCPOT, total local potential
   LVHAR        =      F    write LOCPOT, Hartree potential only
   LELF         =      F    write electronic localiz. function (ELF)
   LORBIT       =     10    0 simple, 1 ext, 2 COOP (PROOUT), +10 PAW based schemes


 Dipole corrections
   LMONO  =      F    monopole corrections only (constant potential shift)
   LDIPOL =      F    correct potential (dipole corrections)
   IDIPOL =      0    1-x, 2-y, 3-z, 4-all directions 
   EPSILON=  1.0000000 bulk dielectric constant

 Exchange correlation treatment:
   GGA     =    --    GGA type
   LEXCH   =     8    internal setting for exchange type
   VOSKOWN=      0    Vosko Wilk Nusair interpolation
   LHFCALC =     F    Hartree Fock is set to
   LHFONE  =     F    Hartree Fock one center treatment
   AEXX    =    0.0000 exact exchange contribution

 Linear response parameters
   LEPSILON=     F    determine dielectric tensor
   LRPA    =     F    only Hartree local field effects (RPA)
   LNABLA  =     F    use nabla operator in PAW spheres
   LVEL    =     F    velocity operator in full k-point grid
   LINTERFAST=   F  fast interpolation
   KINTER  =     0    interpolate to denser k-point grid
   CSHIFT  =0.1000    complex shift for real part using Kramers Kronig
   OMEGAMAX=  -1.0    maximum frequency
   DEG_THRESHOLD= 0.2000000E-02 threshold for treating states as degnerate
   RTIME   =   -0.100 relaxation time in fs
  (WPLASMAI=    0.000 imaginary part of plasma frequency in eV, 0.658/RTIME)
   DFIELD  = 0.0000000 0.0000000 0.0000000 field for delta impulse in time
 
 Orbital magnetization related:
   ORBITALMAG=     F  switch on orbital magnetization
   LCHIMAG   =     F  perturbation theory with respect to B field
   DQ        =  0.001000  dq finite difference perturbation B field
   LLRAUG    =     F  two centre corrections for induced B field



--------------------------------------------------------------------------------------------------------


 Static calculation
 charge density and potential remain constant during run
 non-spin polarized calculation
 RMM-DIIS sequential band-by-band and
  variant of blocked Davidson during initial phase
 perform sub-space diagonalisation
    before iterative eigenvector-optimisation
 no mixing
 using additional bands           50
 real space projection scheme for non local part
 use partial core corrections
 calculate Harris-corrections to forces 
   (improved forces if not selfconsistent)
 use gradient corrections 
 WARNING: stress and forces are not correct
  (second derivative of E(xc) not defined)
 use of overlap-Matrix (Vanderbilt PP)
 Fermi weights with tetrahedron method with Bloechl corrections


--------------------------------------------------------------------------------------------------------


  energy-cutoff  :      500.00
  volume of cell :     1091.97
      direct lattice vectors                 reciprocal lattice vectors
     7.696786404  0.000000000  0.000000000     0.129924354 -0.075011849  0.000000000
     3.848392758  6.665612809  0.000000000     0.000000000  0.150023716  0.000000000
     0.000000000  0.000000000 21.284399033     0.000000000  0.000000000  0.046982769

  length of vectors
     7.696786404  7.696786404 21.284399033     0.150023716  0.150023716  0.046982769


 
 k-points in units of 2pi/SCALE and weight: Automatic mesh                          
   0.00000000  0.00000000  0.00000000       0.016
   0.01624054 -0.00937648  0.00000000       0.062
   0.00000000  0.01875296  0.00000000       0.031
   0.03248109 -0.01875296  0.00000000       0.062
   0.00000000  0.03750593  0.00000000       0.031
   0.04872163 -0.02812944  0.00000000       0.062
   0.00000000  0.05625889  0.00000000       0.031
   0.06496218 -0.03750592  0.00000000       0.031
   0.00000000  0.07501186  0.00000000       0.016
   0.03248109  0.00000000  0.00000000       0.031
   0.01624054  0.02812945  0.00000000       0.062
   0.04872163 -0.00937648  0.00000000       0.062
   0.03248109  0.03750593  0.00000000       0.062
  -0.01624054  0.04688241  0.00000000       0.062
   0.06496218 -0.01875296  0.00000000       0.062
   0.04872163  0.04688241  0.00000000       0.062
  -0.01624054  0.06563537  0.00000000       0.062
   0.06496218  0.00000000  0.00000000       0.031
   0.03248109  0.05625890  0.00000000       0.062
  -0.04872163  0.06563537  0.00000000       0.062
  -0.03248109  0.07501186  0.00000000       0.031
 
 k-points in reciprocal lattice and weights: Automatic mesh                          
   0.00000000  0.00000000  0.00000000       0.016
   0.12500000 -0.00000000  0.00000000       0.062
   0.00000000  0.12500000  0.00000000       0.031
   0.25000000 -0.00000000  0.00000000       0.062
   0.00000000  0.25000000  0.00000000       0.031
   0.37500000 -0.00000000  0.00000000       0.062
   0.00000000  0.37500000  0.00000000       0.031
   0.50000000 -0.00000000  0.00000000       0.031
   0.00000000  0.50000000  0.00000000       0.016
   0.25000000  0.12500000  0.00000000       0.031
   0.12500000  0.25000000  0.00000000       0.062
   0.37500000  0.12500000  0.00000000       0.062
   0.25000000  0.37500000  0.00000000       0.062
  -0.12500000  0.25000000  0.00000000       0.062
   0.50000000  0.12500000  0.00000000       0.062
   0.37500000  0.50000000  0.00000000       0.062
  -0.12500000  0.37500000  0.00000000       0.062
   0.50000000  0.25000000  0.00000000       0.031
   0.25000000  0.50000000  0.00000000       0.062
  -0.37500000  0.25000000  0.00000000       0.062
  -0.25000000  0.37500000  0.00000000       0.031
 
 position of ions in fractional coordinates (direct lattice) 
   0.00000000  0.00000000  0.25237075
   0.33333334  0.00000000  0.25237075
   0.66666669  0.00000000  0.25237075
   0.00000000  0.33333334  0.25237075
   0.33333331  0.33333334  0.25237075
   0.66666669  0.33333334  0.25237075
   0.00000000  0.66666669  0.25237075
   0.33333337  0.66666669  0.25237075
   0.66666663  0.66666669  0.25237075
   0.11111112  0.11111111  0.35079026
   0.44444442  0.11111111  0.35079026
   0.77777779  0.11111111  0.35079026
   0.11111112  0.44444445  0.35079026
   0.44444448  0.44444445  0.35079026
   0.77777773  0.44444445  0.35079026
   0.11111111  0.77777773  0.35079026
   0.44444448  0.77777773  0.35079026
   0.77777785  0.77777773  0.35079026
   0.88848961  0.22302080  0.44934303
   0.22122475  0.22122474  0.44774087
   0.55755055  0.22122474  0.44774087
   0.88783563  0.55608216  0.44940238
   0.22122472  0.55755049  0.44774087
   0.55608222  0.55608216  0.44940238
   0.88848961  0.88848961  0.44934303
   0.22302082  0.88848961  0.44934303
   0.55608216  0.88783563  0.44940238
   0.00000000  0.00000000  0.54696568
   0.33266200  0.00036284  0.54840840
   0.66697518  0.00036284  0.54840840
   0.00036284  0.33266200  0.54840840
   0.66697518  0.33266200  0.54840840
   0.00036284  0.66697518  0.54840840
   0.33266203  0.66697518  0.54840840
   0.66666663  0.66666669  0.54689586
   0.33333331  0.33333334  0.54386279
   0.26072917  0.32980878  0.65352761
   0.40946202  0.32980878  0.65352761
 
 position of ions in cartesian coordinates  (Angst):
   0.00000000  0.00000000  5.37155964
   2.56559554  0.00000000  5.37155964
   5.13119109  0.00000000  5.37155964
   1.28279762  2.22187100  5.37155964
   3.84839293  2.22187100  5.37155964
   6.41398872  2.22187100  5.37155964
   2.56559525  4.44374201  5.37155964
   5.13119102  4.44374201  5.37155964
   7.69678588  4.44374201  5.37155964
   1.28279775  0.74062365  7.46635991
   3.84839295  0.74062365  7.46635991
   6.41398873  0.74062365  7.46635991
   2.56559535  2.96249461  7.46635991
   5.13119101  2.96249461  7.46635991
   7.69678586  2.96249461  7.46635991
   3.84839268  5.18436521  7.46635991
   6.41398840  5.18436521  7.46635991
   8.97958418  5.18436521  7.46635991
   7.69678637  1.48657030  9.56399641
   2.55407935  1.47459845  9.52989534
   5.14270721  1.47459845  9.52989534
   8.97350374  3.70662834  9.56525955
   3.84839272  3.71641572  9.52989534
   6.42006857  3.70662834  9.56525955
  10.25777171  5.92232771  9.56399641
   5.13580055  5.92232771  9.56399641
   7.69678578  5.91796854  9.56525955
   0.00000000  0.00000000 11.64183588
   2.56182473  0.00241858 11.67254326
   5.13496190  0.00241858 11.67254326
   1.28300677  2.21739609 11.67254326
   6.41377957  2.21739609 11.67254326
   2.56957521  4.44579833 11.67254326
   5.12721107  4.44579833 11.67254326
   7.69678588  4.44374201 11.64034980
   3.84839293  2.22187100 11.57579272
   3.27601046  2.19837764 13.90994245
   4.42077541  2.19837764 13.90994245
 


--------------------------------------------------------------------------------------------------------


 k-point   1 :   0.0000 0.0000 0.0000  plane waves:   27671
 k-point   2 :   0.1250-0.0000 0.0000  plane waves:   27649
 k-point   3 :   0.0000 0.1250 0.0000  plane waves:   27649
 k-point   4 :   0.2500-0.0000 0.0000  plane waves:   27714
 k-point   5 :   0.0000 0.2500 0.0000  plane waves:   27714
 k-point   6 :   0.3750-0.0000 0.0000  plane waves:   27740
 k-point   7 :   0.0000 0.3750 0.0000  plane waves:   27740
 k-point   8 :   0.5000-0.0000 0.0000  plane waves:   27782
 k-point   9 :   0.0000 0.5000 0.0000  plane waves:   27782
 k-point  10 :   0.2500 0.1250 0.0000  plane waves:   27698
 k-point  11 :   0.1250 0.2500 0.0000  plane waves:   27698
 k-point  12 :   0.3750 0.1250 0.0000  plane waves:   27702
 k-point  13 :   0.2500 0.3750 0.0000  plane waves:   27702
 k-point  14 :  -0.1250 0.2500 0.0000  plane waves:   27702
 k-point  15 :   0.5000 0.1250 0.0000  plane waves:   27747
 k-point  16 :   0.3750 0.5000 0.0000  plane waves:   27747
 k-point  17 :  -0.1250 0.3750 0.0000  plane waves:   27747
 k-point  18 :   0.5000 0.2500 0.0000  plane waves:   27734
 k-point  19 :   0.2500 0.5000 0.0000  plane waves:   27734
 k-point  20 :  -0.3750 0.2500 0.0000  plane waves:   27782
 k-point  21 :  -0.2500 0.3750 0.0000  plane waves:   27782

 maximum and minimum number of plane-waves per node :     27782    27649

 maximum number of plane-waves:     27782
 maximum index in each direction: 
   IXMAX=   14   IYMAX=   14   IZMAX=   38
   IXMIN=  -14   IYMIN=  -14   IZMIN=  -38


 serial   3D FFT for wavefunctions
 parallel 3D FFT for charge:
    minimum data exchange during FFTs selected (reduces bandwidth)


 total amount of memory used by VASP MPI-rank0   150081. kBytes
=======================================================================

   base      :      30000. kBytes
   nonlr-proj:      18074. kBytes
   fftplans  :       2916. kBytes
   grid      :      12390. kBytes
   one-center:        590. kBytes
   wavefun   :      86111. kBytes
 
     INWAV:  cpu time    0.0000: real time    0.0000
 initial charge density was supplied:
 number of electron     402.9999924 magnetization 
 keeping initial charge density in first step


--------------------------------------------------------------------------------------------------------


 Maximum index for non-local projection operator         3029
 Maximum index for augmentation-charges          547 (set IRDMAX)


--------------------------------------------------------------------------------------------------------


 First call to EWALD:  gamma=   0.172
 Maximum number of real-space cells 4x 4x 2
 Maximum number of reciprocal cells 2x 2x 5

    FEWALD:  cpu time    0.0014: real time    0.0014


--------------------------------------- Iteration      1(   1)  ---------------------------------------


    POTLOK:  cpu time    0.0287: real time    0.0291
    SETDIJ:  cpu time    0.0044: real time    0.0044
     EDDAV:  cpu time   12.0250: real time   12.0266
 BZINTS: Fermi energy:   14.408086;  403.000000 electrons
         Band energy: 0.271851E+04;  BLOECHL correction:   -0.033219
       DOS:  cpu time    0.0313: real time    0.0313
    --------------------------------------------
      LOOP:  cpu time   12.0894: real time   12.0915

 eigenvalue-minimisations  : 10584
 total energy-change (2. order) : 0.3673232E+04  (-0.1734520E+05)
 number of electron     402.9999924 magnetization 
 augmentation part      402.9999924 magnetization 

 Free energy of the ion-electron system (eV)
  ---------------------------------------------------
  alpha Z        PSCENC =       924.62031111
  Ewald energy   TEWEN  =    145066.62341242
  -Hartree energ DENC   =   -192511.38781383
  -exchange      EXHF   =         0.00000000
  -V(xc)+E(xc)   XCENC  =      1565.83670234
  PAW double counting   =     47224.45287721   -50946.26579533
  entropy T*S    EENTRO =         0.00000000
  eigenvalues    EBANDS =      2718.50647442
  atomic energy  EATOM  =     49630.84580644
  Solvation  Ediel_sol  =         0.00000000
  ---------------------------------------------------
  free energy    TOTEN  =      3673.23197477 eV

  energy without entropy =     3673.23197477  energy(sigma->0) =     3673.23197477


--------------------------------------------------------------------------------------------------------




--------------------------------------- Iteration      1(   2)  ---------------------------------------


     EDDAV:  cpu time   12.0012: real time   12.0014
 BZINTS: Fermi energy:    3.627483;  403.000000 electrons
         Band energy:-0.571278E+03;  BLOECHL correction:   -0.019233
       DOS:  cpu time    0.0305: real time    0.0305
    --------------------------------------------
      LOOP:  cpu time   12.0317: real time   12.0319

 eigenvalue-minimisations  : 10584
 total energy-change (2. order) :-0.3289785E+04  (-0.3165580E+04)
 number of electron     402.9999924 magnetization 
 augmentation part      402.9999924 magnetization 

 Free energy of the ion-electron system (eV)
  ---------------------------------------------------
  alpha Z        PSCENC =       924.62031111
  Ewald energy   TEWEN  =    145066.62341242
  -Hartree energ DENC   =   -192511.38781383
  -exchange      EXHF   =         0.00000000
  -V(xc)+E(xc)   XCENC  =      1565.83670234
  PAW double counting   =     47224.45287721   -50946.26579533
  entropy T*S    EENTRO =         0.00000000
  eigenvalues    EBANDS =      -571.27826866
  atomic energy  EATOM  =     49630.84580644
  Solvation  Ediel_sol  =         0.00000000
  ---------------------------------------------------
  free energy    TOTEN  =       383.44723169 eV

  energy without entropy =      383.44723169  energy(sigma->0) =      383.44723169


--------------------------------------------------------------------------------------------------------




--------------------------------------- Iteration      1(   3)  ---------------------------------------


     EDDAV:  cpu time   13.0990: real time   13.0991
 BZINTS: Fermi energy:    0.642615;  403.000000 electrons
         Band energy:-0.106097E+04;  BLOECHL correction:   -0.022054
       DOS:  cpu time    0.0289: real time    0.0289
    --------------------------------------------
      LOOP:  cpu time   13.1279: real time   13.1280

 eigenvalue-minimisations  : 11760
 total energy-change (2. order) :-0.4896949E+03  (-0.4629386E+03)
 number of electron     402.9999924 magnetization 
 augmentation part      402.9999924 magnetization 

 Free energy of the ion-electron system (eV)
  ---------------------------------------------------
  alpha Z        PSCENC =       924.62031111
  Ewald energy   TEWEN  =    145066.62341242
  -Hartree energ DENC   =   -192511.38781383
  -exchange      EXHF   =         0.00000000
  -V(xc)+E(xc)   XCENC  =      1565.83670234
  PAW double counting   =     47224.45287721   -50946.26579533
  entropy T*S    EENTRO =         0.00000000
  eigenvalues    EBANDS =     -1060.97318419
  atomic energy  EATOM  =     49630.84580644
  Solvation  Ediel_sol  =         0.00000000
  ---------------------------------------------------
  free energy    TOTEN  =      -106.24768384 eV

  energy without entropy =     -106.24768384  energy(sigma->0) =     -106.24768384


--------------------------------------------------------------------------------------------------------




--------------------------------------- Iteration      1(   4)  ---------------------------------------


     EDDAV:  cpu time   16.8744: real time   16.8746
 BZINTS: Fermi energy:    0.256618;  403.000000 electrons
         Band energy:-0.110189E+04;  BLOECHL correction:   -0.052250
       DOS:  cpu time    0.0296: real time    0.0296
    --------------------------------------------
      LOOP:  cpu time   16.9041: real time   16.9043

 eigenvalue-minimisations  : 15904
 total energy-change (2. order) :-0.4092048E+02  (-0.3982919E+02)
 number of electron     402.9999924 magnetization 
 augmentation part      402.9999924 magnetization 

 Free energy of the ion-electron system (eV)
  ---------------------------------------------------
  alpha Z        PSCENC =       924.62031111
  Ewald energy   TEWEN  =    145066.62341242
  -Hartree energ DENC   =   -192511.38781383
  -exchange      EXHF   =         0.00000000
  -V(xc)+E(xc)   XCENC  =      1565.83670234
  PAW double counting   =     47224.45287721   -50946.26579533
  entropy T*S    EENTRO =         0.00000000
  eigenvalues    EBANDS =     -1101.89366671
  atomic energy  EATOM  =     49630.84580644
  Solvation  Ediel_sol  =         0.00000000
  ---------------------------------------------------
  free energy    TOTEN  =      -147.16816636 eV

  energy without entropy =     -147.16816636  energy(sigma->0) =     -147.16816636


--------------------------------------------------------------------------------------------------------




--------------------------------------- Iteration      1(   5)  ---------------------------------------


     EDDAV:  cpu time   13.8153: real time   13.8154
 BZINTS: Fermi energy:    0.248869;  403.000000 electrons
         Band energy:-0.110275E+04;  BLOECHL correction:   -0.052581
       DOS:  cpu time    0.0297: real time    0.0297
    --------------------------------------------
      LOOP:  cpu time   13.8450: real time   13.8452

 eigenvalue-minimisations  : 12572
 total energy-change (2. order) :-0.8562488E+00  (-0.8539287E+00)
 number of electron     402.9999924 magnetization 
 augmentation part      402.9999924 magnetization 

 Free energy of the ion-electron system (eV)
  ---------------------------------------------------
  alpha Z        PSCENC =       924.62031111
  Ewald energy   TEWEN  =    145066.62341242
  -Hartree energ DENC   =   -192511.38781383
  -exchange      EXHF   =         0.00000000
  -V(xc)+E(xc)   XCENC  =      1565.83670234
  PAW double counting   =     47224.45287721   -50946.26579533
  entropy T*S    EENTRO =         0.00000000
  eigenvalues    EBANDS =     -1102.74991548
  atomic energy  EATOM  =     49630.84580644
  Solvation  Ediel_sol  =         0.00000000
  ---------------------------------------------------
  free energy    TOTEN  =      -148.02441513 eV

  energy without entropy =     -148.02441513  energy(sigma->0) =     -148.02441513


--------------------------------------------------------------------------------------------------------




--------------------------------------- Iteration      1(   6)  ---------------------------------------


    EDDIAG:  cpu time    2.2242: real time    2.2246
  RMM-DIIS:  cpu time    6.5155: real time    6.5155
    ORTHCH:  cpu time    0.4380: real time    0.4380
 BZINTS: Fermi energy:    0.248839;  403.000000 electrons
         Band energy:-0.110276E+04;  BLOECHL correction:   -0.052581
       DOS:  cpu time    0.0304: real time    0.0304
    --------------------------------------------
      LOOP:  cpu time    9.2081: real time    9.2085

 eigenvalue-minimisations  : 11420
 total energy-change (2. order) :-0.1236615E-01  (-0.1236623E-01)
 number of electron     402.9999924 magnetization 
 augmentation part      402.9999924 magnetization 

 Free energy of the ion-electron system (eV)
  ---------------------------------------------------
  alpha Z        PSCENC =       924.62031111
  Ewald energy   TEWEN  =    145066.62341242
  -Hartree energ DENC   =   -192511.38781383
  -exchange      EXHF   =         0.00000000
  -V(xc)+E(xc)   XCENC  =      1565.83670234
  PAW double counting   =     47224.45287721   -50946.26579533
  entropy T*S    EENTRO =         0.00000000
  eigenvalues    EBANDS =     -1102.76228163
  atomic energy  EATOM  =     49630.84580644
  Solvation  Ediel_sol  =         0.00000000
  ---------------------------------------------------
  free energy    TOTEN  =      -148.03678128 eV

  energy without entropy =     -148.03678128  energy(sigma->0) =     -148.03678128


--------------------------------------------------------------------------------------------------------




--------------------------------------- Iteration      1(   7)  ---------------------------------------


    EDDIAG:  cpu time    2.2255: real time    2.2257
  RMM-DIIS:  cpu time    8.9926: real time    8.9926
    ORTHCH:  cpu time    0.4366: real time    0.4366
 BZINTS: Fermi energy:    0.248828;  403.000000 electrons
         Band energy:-0.110277E+04;  BLOECHL correction:   -0.052582
       DOS:  cpu time    0.0303: real time    0.0303
    --------------------------------------------
      LOOP:  cpu time   11.6850: real time   11.6852

 eigenvalue-minimisations  : 16054
 total energy-change (2. order) :-0.5233045E-02  (-0.5115634E-02)
 number of electron     402.9999924 magnetization 
 augmentation part      402.9999924 magnetization 

 Free energy of the ion-electron system (eV)
  ---------------------------------------------------
  alpha Z        PSCENC =       924.62031111
  Ewald energy   TEWEN  =    145066.62341242
  -Hartree energ DENC   =   -192511.38781383
  -exchange      EXHF   =         0.00000000
  -V(xc)+E(xc)   XCENC  =      1565.83670234
  PAW double counting   =     47224.45287721   -50946.26579533
  entropy T*S    EENTRO =         0.00000000
  eigenvalues    EBANDS =     -1102.76751468
  atomic energy  EATOM  =     49630.84580644
  Solvation  Ediel_sol  =         0.00000000
  ---------------------------------------------------
  free energy    TOTEN  =      -148.04201432 eV

  energy without entropy =     -148.04201432  energy(sigma->0) =     -148.04201432


--------------------------------------------------------------------------------------------------------




--------------------------------------- Iteration      1(   8)  ---------------------------------------


    EDDIAG:  cpu time    2.2252: real time    2.2253
  RMM-DIIS:  cpu time    7.7431: real time    7.7431
    ORTHCH:  cpu time    0.4371: real time    0.4371
 BZINTS: Fermi energy:    0.248827;  403.000000 electrons
         Band energy:-0.110277E+04;  BLOECHL correction:   -0.052582
       DOS:  cpu time    0.0284: real time    0.0284
    --------------------------------------------
      LOOP:  cpu time   10.4339: real time   10.4339

 eigenvalue-minimisations  : 13872
 total energy-change (2. order) :-0.3785671E-03  (-0.4166526E-03)
 number of electron     402.9999924 magnetization 
 augmentation part      402.9999924 magnetization 

 Free energy of the ion-electron system (eV)
  ---------------------------------------------------
  alpha Z        PSCENC =       924.62031111
  Ewald energy   TEWEN  =    145066.62341242
  -Hartree energ DENC   =   -192511.38781383
  -exchange      EXHF   =         0.00000000
  -V(xc)+E(xc)   XCENC  =      1565.83670234
  PAW double counting   =     47224.45287721   -50946.26579533
  entropy T*S    EENTRO =         0.00000000
  eigenvalues    EBANDS =     -1102.76789325
  atomic energy  EATOM  =     49630.84580644
  Solvation  Ediel_sol  =         0.00000000
  ---------------------------------------------------
  free energy    TOTEN  =      -148.04239289 eV

  energy without entropy =     -148.04239289  energy(sigma->0) =     -148.04239289


--------------------------------------------------------------------------------------------------------




--------------------------------------- Iteration      1(   9)  ---------------------------------------


    EDDIAG:  cpu time    2.2247: real time    2.2247
  RMM-DIIS:  cpu time    8.9994: real time    8.9994
    ORTHCH:  cpu time    0.4366: real time    0.4366
 BZINTS: Fermi energy:    0.248827;  403.000000 electrons
         Band energy:-0.110277E+04;  BLOECHL correction:   -0.052582
       DOS:  cpu time    0.0271: real time    0.0271
    --------------------------------------------
      LOOP:  cpu time   11.6877: real time   11.6878

 eigenvalue-minimisations  : 15740
 total energy-change (2. order) :-0.6941319E-04  (-0.6933844E-04)
 number of electron     402.9999924 magnetization 
 augmentation part      402.9999924 magnetization 

 Free energy of the ion-electron system (eV)
  ---------------------------------------------------
  alpha Z        PSCENC =       924.62031111
  Ewald energy   TEWEN  =    145066.62341242
  -Hartree energ DENC   =   -192511.38781383
  -exchange      EXHF   =         0.00000000
  -V(xc)+E(xc)   XCENC  =      1565.83670234
  PAW double counting   =     47224.45287721   -50946.26579533
  entropy T*S    EENTRO =         0.00000000
  eigenvalues    EBANDS =     -1102.76796266
  atomic energy  EATOM  =     49630.84580644
  Solvation  Ediel_sol  =         0.00000000
  ---------------------------------------------------
  free energy    TOTEN  =      -148.04246231 eV

  energy without entropy =     -148.04246231  energy(sigma->0) =     -148.04246231


--------------------------------------------------------------------------------------------------------




--------------------------------------- Iteration      1(  10)  ---------------------------------------


    EDDIAG:  cpu time    2.2220: real time    2.2250
  RMM-DIIS:  cpu time    5.6654: real time    5.6654
    ORTHCH:  cpu time    0.4365: real time    0.4364
 BZINTS: Fermi energy:    0.248827;  403.000000 electrons
         Band energy:-0.110277E+04;  BLOECHL correction:   -0.052582
       DOS:  cpu time    0.0303: real time    0.0303
    --------------------------------------------
      LOOP:  cpu time    8.3541: real time    8.3571

 eigenvalue-minimisations  :  9206
 total energy-change (2. order) :-0.5518494E-05  (-0.5659962E-05)
 number of electron     402.9999924 magnetization 
 augmentation part      402.9999924 magnetization 

 Free energy of the ion-electron system (eV)
  ---------------------------------------------------
  alpha Z        PSCENC =       924.62031111
  Ewald energy   TEWEN  =    145066.62341242
  -Hartree energ DENC   =   -192511.38781383
  -exchange      EXHF   =         0.00000000
  -V(xc)+E(xc)   XCENC  =      1565.83670234
  PAW double counting   =     47224.45287721   -50946.26579533
  entropy T*S    EENTRO =         0.00000000
  eigenvalues    EBANDS =     -1102.76796818
  atomic energy  EATOM  =     49630.84580644
  Solvation  Ediel_sol  =         0.00000000
  ---------------------------------------------------
  free energy    TOTEN  =      -148.04246782 eV

  energy without entropy =     -148.04246782  energy(sigma->0) =     -148.04246782


--------------------------------------------------------------------------------------------------------




 average (electrostatic) potential at core
  the test charge radii are     0.9430  1.1957  0.7089
  (the norm of the test charge is              1.0000)
       1 -70.7615       2 -70.7140       3 -70.7139       4 -70.7178       5 -70.7353
       6 -70.7174       7 -70.7113       8 -70.7110       9 -70.7345      10 -71.0100
      11 -70.9485      12 -71.0098      13 -70.9510      14 -70.9506      15 -70.9808
      16 -71.0064      17 -70.9785      18 -70.9785      19 -70.9467      20 -71.0558
      21 -71.0555      22 -70.9376      23 -71.0622      24 -70.9374      25 -70.9354
      26 -70.9356      27 -70.9296      28 -70.7001      29 -70.7281      30 -70.7280
      31 -70.7305      32 -70.7303      33 -70.7259      34 -70.7257      35 -70.6950
      36 -51.3551      37 -71.1272      38 -71.1272
 
 
 
 E-fermi :   0.2488     XC(G=0):  -6.0635     alpha+bet : -5.4371

 Fermi energy:         0.2488268159

 k-point     1 :       0.0000    0.0000    0.0000
  band No.  band energies     occupation 
      1     -22.9726      2.00000
      2      -9.0607      2.00000
      3      -8.5845      2.00000
      4      -7.6365      2.00000
      5      -7.0717      2.00000
      6      -6.6298      2.00000
      7      -5.7577      2.00000
      8      -5.5804      2.00000
      9      -5.5780      2.00000
     10      -5.5383      2.00000
     11      -5.5345      2.00000
     12      -5.5284      2.00000
     13      -5.5235      2.00000
     14      -5.2522      2.00000
     15      -4.8397      2.00000
     16      -4.8361      2.00000
     17      -4.7965      2.00000
     18      -4.7815      2.00000
     19      -4.7779      2.00000
     20      -4.7724      2.00000
     21      -4.7213      2.00000
     22      -4.2152      2.00000
     23      -4.2057      2.00000
     24      -4.0923      2.00000
     25      -4.0665      2.00000
     26      -4.0662      2.00000
     27      -4.0639      2.00000
     28      -3.8375      2.00000
     29      -3.7944      2.00000
     30      -3.7930      2.00000
     31      -3.7755      2.00000
     32      -3.7746      2.00000
     33      -3.7688      2.00000
     34      -3.6920      2.00000
     35      -3.6865      2.00000
     36      -3.6182      2.00000
     37      -3.6084      2.00000
     38      -3.6083      2.00000
     39      -3.6027      2.00000
     40      -3.5937      2.00000
     41      -3.5889      2.00000
     42      -3.5873      2.00000
     43      -3.5659      2.00000
     44      -3.5613      2.00000
     45      -3.5542      2.00000
     46      -3.4914      2.00000
     47      -3.4874      2.00000
     48      -3.4709      2.00000
     49      -3.4705      2.00000
     50      -3.3640      2.00000
     51      -3.3340      2.00000
     52      -3.3171      2.00000
     53      -3.3102      2.00000
     54      -3.2829      2.00000
     55      -3.2818      2.00000
     56      -3.2792      2.00000
     57      -3.2587      2.00000
     58      -3.2296      2.00000
     59      -3.2019      2.00000
     60      -2.9548      2.00000
     61      -2.9447      2.00000
     62      -2.9269      2.00000
     63      -2.9258      2.00000
     64      -2.9252      2.00000
     65      -2.9112      2.00000
     66      -2.8280      2.00000
     67      -2.8270      2.00000
     68      -2.8147      2.00000
     69      -2.8144      2.00000
     70      -2.8135      2.00000
     71      -2.8004      2.00000
     72      -2.7979      2.00000
     73      -2.7835      2.00000
     74      -2.7613      2.00000
     75      -2.7610      2.00000
     76      -2.7556      2.00000
     77      -2.7074      2.00000
     78      -2.6748      2.00000
     79      -2.6746      2.00000
     80      -2.6259      2.00000
     81      -2.6248      2.00000
     82      -2.5935      2.00000
     83      -2.5901      2.00000
     84      -2.5882      2.00000
     85      -2.5724      2.00000
     86      -2.5684      2.00000
     87      -2.5676      2.00000
     88      -2.5054      2.00000
     89      -2.5029      2.00000
     90      -2.4881      2.00000
     91      -2.4755      2.00000
     92      -2.4667      2.00000
     93      -2.4627      2.00000
     94      -2.4597      2.00000
     95      -2.4555      2.00000
     96      -2.4494      2.00000
     97      -2.4486      2.00000
     98      -2.4283      2.00000
     99      -2.4249      2.00000
    100      -2.4111      2.00000
    101      -2.4105      2.00000
    102      -2.3974      2.00000
    103      -2.3765      2.00000
    104      -2.3742      2.00000
    105      -2.3322      2.00000
    106      -2.3297      2.00000
    107      -2.3253      2.00000
    108      -2.3182      2.00000
    109      -2.3102      2.00000
    110      -2.3079      2.00000
    111      -2.3057      2.00000
    112      -2.2820      2.00000
    113      -2.0871      2.00000
    114      -2.0785      2.00000
    115      -2.0769      2.00000
    116      -2.0736      2.00000
    117      -2.0717      2.00000
    118      -2.0628      2.00000
    119      -2.0618      2.00000
    120      -2.0606      2.00000
    121      -2.0604      2.00000
    122      -2.0581      2.00000
    123      -2.0506      2.00000
    124      -2.0444      2.00000
    125      -2.0333      2.00000
    126      -2.0146      2.00000
    127      -1.8833      2.00000
    128      -1.8829      2.00000
    129      -1.8814      2.00000
    130      -1.8740      2.00000
    131      -1.8703      2.00000
    132      -1.8592      2.00000
    133      -1.8496      2.00000
    134      -1.8451      2.00000
    135      -1.8448      2.00000
    136      -1.8201      2.00000
    137      -1.8162      2.00000
    138      -1.8101      2.00000
    139      -1.7769      2.00000
    140      -1.7598      2.00000
    141      -1.7597      2.00000
    142      -1.7472      2.00000
    143      -1.7438      2.00000
    144      -1.7436      2.00000
    145      -1.7066      2.00000
    146      -1.7042      2.00000
    147      -1.6357      2.00000
    148      -1.6356      2.00000
    149      -1.6272      2.00000
    150      -1.6245      2.00000
    151      -1.6146      2.00000
    152      -1.6128      2.00000
    153      -1.6031      2.00000
    154      -1.6026      2.00000
    155      -1.5856      2.00000
    156      -1.5758      2.00000
    157      -1.5754      2.00000
    158      -1.5699      2.00000
    159      -1.5112      2.00000
    160      -1.4926      2.00000
    161      -1.4899      2.00000
    162      -1.4893      2.00000
    163      -1.4839      2.00000
    164      -1.4804      2.00000
    165      -1.4755      2.00000
    166      -1.4740      2.00000
    167      -1.4628      2.00000
    168      -1.4612      2.00000
    169      -1.4568      2.00000
    170      -1.4448      2.00000
    171      -1.4391      2.00000
    172      -1.4351      2.00000
    173      -1.4345      2.00000
    174      -1.4322      2.00000
    175      -1.4314      2.00000
    176      -1.4189      2.00000
    177      -1.4080      2.00000
    178      -1.4066      2.00000
    179      -1.4054      2.00000
    180      -1.4046      2.00000
    181      -1.4045      2.00000
    182      -1.4013      2.00000
    183      -1.4005      2.00000
    184      -1.3969      2.00000
    185      -1.3936      2.00000
    186      -1.3936      2.00000
    187      -1.3805      2.00000
    188      -1.3553      2.00000
    189      -1.3524      2.00000
    190      -1.2948      2.00000
    191      -1.2934      2.00000
    192      -1.2853      2.00000
    193      -1.2749      2.00000
    194      -1.2739      2.00000
    195      -1.2735      2.00000
    196      -0.8281      2.00000
    197      -0.5934      2.00000
    198      -0.5796      2.00000
    199      -0.3428      2.00000
    200      -0.2661      2.00000
    201      -0.2236      2.00000
    202      -0.0891      2.00000
    203       0.0433      2.00000
    204       0.0619      2.00000
    205       0.1249      2.02016
    206       0.1399      1.21771
    207       0.1833      0.52970
    208       1.0016      0.00000
    209       1.9769      0.00000
    210       2.2182      0.00000
    211       2.2323      0.00000
    212       2.6021      0.00000
    213       2.6064      0.00000
    214       2.6784      0.00000
    215       2.8588      0.00000
    216       3.2080      0.00000
    217       3.6469      0.00000
    218       3.8354      0.00000
    219       3.9307      0.00000
    220       3.9415      0.00000
    221       4.0979      0.00000
    222       4.2019      0.00000
    223       4.5956      0.00000
    224       4.6660      0.00000
    225       4.7408      0.00000
    226       4.7488      0.00000
    227       4.7538      0.00000
    228       4.7936      0.00000
    229       4.8502      0.00000
    230       5.0329      0.00000
    231       5.0890      0.00000
    232       5.2641      0.00000
    233       5.3773      0.00000
    234       5.4004      0.00000
    235       5.4371      0.00000
    236       5.7698      0.00000
    237       6.0707      0.00000
    238       6.2760      0.00000
    239       6.5760      0.00000
    240       6.5887      0.00000
    241       6.8382      0.00000
    242       6.8668      0.00000
    243       7.0204      0.00000
    244       7.0831      0.00000
    245       7.1609      0.00000
    246       7.1876      0.00000
    247       7.2950      0.00000
    248       7.3354      0.00000
    249       7.6208      0.00000
    250       7.6510      0.00000
    251       7.6865      0.00000
    252       7.7536      0.00000

 k-point     2 :       0.1250   -0.0000    0.0000
  band No.  band energies     occupation 
      1     -22.9726      2.00000
      2      -9.0614      2.00000
      3      -8.5300      2.00000
      4      -7.6158      2.00000
      5      -7.0418      2.00000
      6      -6.6303      2.00000
      7      -6.1071      2.00000
      8      -5.7978      2.00000
      9      -5.7804      2.00000
     10      -5.7133      2.00000
     11      -5.2968      2.00000
     12      -5.2594      2.00000
     13      -5.2214      2.00000
     14      -5.1309      2.00000
     15      -5.0652      2.00000
     16      -4.9268      2.00000
     17      -4.8874      2.00000
     18      -4.7627      2.00000
     19      -4.6581      2.00000
     20      -4.6141      2.00000
     21      -4.5736      2.00000
     22      -4.2246      2.00000
     23      -4.1891      2.00000
     24      -4.1125      2.00000
     25      -4.0712      2.00000
     26      -4.0523      2.00000
     27      -4.0444      2.00000
     28      -3.8641      2.00000
     29      -3.8200      2.00000
     30      -3.8034      2.00000
     31      -3.7707      2.00000
     32      -3.7551      2.00000
     33      -3.7487      2.00000
     34      -3.7301      2.00000
     35      -3.7274      2.00000
     36      -3.7089      2.00000
     37      -3.6968      2.00000
     38      -3.6635      2.00000
     39      -3.6386      2.00000
     40      -3.6224      2.00000
     41      -3.5801      2.00000
[...]
  0.000   0.000   0.000   0.000   0.000   0.000   0.000   0.000   0.000   0.000   0.000   0.000   0.000   0.000   0.000   0.000
  0.000   0.000   0.000   0.000   0.000   0.000   0.000   0.000   0.000   0.000   0.000   0.000   0.000   0.000   0.000   0.000
  0.000   0.000   0.000   0.000   0.000   0.000   0.000   0.000   0.000   0.000   1.000   0.000   0.000   0.000   0.000   0.000
  0.000   0.000   0.000   0.000   0.000   0.000   0.000   0.000   0.000   0.000   0.000   0.000   0.000   0.000   0.000   0.000
  0.000   0.000   0.000   0.000   0.000   0.000   0.000   0.000   0.000   0.000   0.000   0.000   0.000   0.000   0.000   0.000
  0.000   0.000   0.000   0.000   0.000   0.000   0.000   0.000   0.000   0.000   0.000   0.000   0.000   0.000   0.000   0.000
  0.000   0.000   0.000   0.000   0.000   0.000   0.000   0.000   0.000   0.000   0.000   0.000   0.000   0.000   0.000   0.000
  0.000   0.000   0.000   0.000   0.000   0.000   0.000   0.000   0.000   0.000   0.000   0.000   0.000   0.000   0.000   0.000
  0.000   0.000   0.000   0.000   0.000   0.000   0.000   0.000   0.000   0.000   0.000   0.000   0.000   0.000   0.000   0.000
  0.000   0.000   0.000   0.000   0.000   0.000   0.000   0.000   0.000   0.000   0.000   0.000   0.000   0.000   0.000   0.000


------------------------ aborting loop because EDIFF is reached ----------------------------------------





 total charge

# of ion       s       p       d       tot
------------------------------------------
    1        0.448   0.284   9.188   9.920
    2        0.450   0.285   9.186   9.921
    3        0.450   0.285   9.186   9.921
    4        0.450   0.285   9.186   9.921
    5        0.446   0.288   9.180   9.915
    6        0.450   0.285   9.186   9.921
    7        0.450   0.284   9.186   9.921
    8        0.450   0.284   9.186   9.921
    9        0.447   0.283   9.190   9.920
   10        0.442   0.373   9.173   9.988
   11        0.444   0.364   9.185   9.994
   12        0.442   0.373   9.173   9.988
   13        0.444   0.365   9.185   9.994
   14        0.444   0.365   9.185   9.994
   15        0.437   0.369   9.179   9.984
   16        0.442   0.373   9.173   9.988
   17        0.437   0.369   9.179   9.984
   18        0.437   0.369   9.179   9.984
   19        0.440   0.368   9.182   9.990
   20        0.455   0.401   9.163  10.020
   21        0.455   0.401   9.163  10.020
   22        0.430   0.370   9.184   9.984
   23        0.455   0.405   9.160  10.020
   24        0.430   0.370   9.184   9.984
   25        0.442   0.368   9.181   9.991
   26        0.442   0.368   9.181   9.991
   27        0.431   0.369   9.185   9.985
   28        0.448   0.289   9.191   9.928
   29        0.459   0.310   9.179   9.947
   30        0.459   0.310   9.179   9.947
   31        0.454   0.310   9.179   9.944
   32        0.454   0.310   9.179   9.944
   33        0.458   0.310   9.178   9.947
   34        0.458   0.310   9.178   9.947
   35        0.440   0.293   9.190   9.923
   36        0.606   0.470   6.088   7.164
   37        1.358   2.445   0.000   3.803
   38        1.358   2.445   0.000   3.803
--------------------------------------------------
tot         18.943  17.107 327.410 363.460
 
    CHARGE:  cpu time    0.4174: real time    0.4175
    FORLOC:  cpu time    0.0075: real time    0.0075
    FORNL :  cpu time    2.4347: real time    2.4349
    STRESS:  cpu time    7.2370: real time    7.2372
    FORCOR:  cpu time    0.0282: real time    0.0282
    FORHAR:  cpu time    0.0116: real time    0.0117
    OFIELD:  cpu time    0.0001: real time    0.0001

  FORCE on cell =-STRESS in cart. coord.  units (eV):
  Direction    XX          YY          ZZ          XY          YZ          ZX
  --------------------------------------------------------------------------------------
  Alpha Z   924.62031   924.62031   924.62031
  Ewald  171210.22294170897.86061************     0.00040     1.28002     0.00017
  Hartree184245.67766184135.41037************     0.00004     1.64043     0.00006
  E(xc)   -2325.03034 -2326.26566 -2329.93373    -0.00026    -0.00458    -0.00004
  Local  ************************368305.21255     0.02009    -3.07945    -0.00074
  n-local  -807.30733  -796.16090  -815.18361     1.90654     0.10528     0.06423
  augment  3325.64340  3325.16513  3346.20001    -0.01840     0.00210     0.00035
  Kinetic  3426.59036  3442.60837  3466.79483     1.55770     0.22872    -0.17223
  Fock        0.00000     0.00000     0.00000     0.00000     0.00000     0.00000
  -------------------------------------------------------------------------------------
  Total      -4.68057    -4.83577     1.04453     0.00000     0.17253    -0.00000
  in kB      -6.86749    -7.09521     1.53257     0.00000     0.25314    -0.00000
  external pressure =       -4.14 kB  Pullay stress =        0.00 kB


 VOLUME and BASIS-vectors are now :
 -----------------------------------------------------------------------------
  energy-cutoff  :      500.00
  volume of cell :     1091.97
      direct lattice vectors                 reciprocal lattice vectors
     7.696786404  0.000000000  0.000000000     0.129924354 -0.075011849  0.000000000
     3.848392758  6.665612809  0.000000000     0.000000000  0.150023716  0.000000000
     0.000000000  0.000000000 21.284399033     0.000000000  0.000000000  0.046982769

  length of vectors
     7.696786404  7.696786404 21.284399033     0.150023716  0.150023716  0.046982769


 FORCES acting on ions
    electron-ion (+dipol)            ewald-force                    non-local-force                 convergence-correction
 -----------------------------------------------------------------------------------------------
   -.407E-04 0.255E-01 0.350E+04   0.580E-04 -.137E-01 -.349E+04   -.531E-09 0.797E-02 -.311E+01   -.344E-03 -.220E-01 -.360E+00
   -.998E-01 0.280E+00 0.350E+04   0.192E-01 -.181E+00 -.349E+04   0.332E-01 -.453E-01 -.177E+01   0.557E-01 -.344E-01 -.286E+00
   0.999E-01 0.280E+00 0.350E+04   -.193E-01 -.181E+00 -.349E+04   -.332E-01 -.453E-01 -.177E+01   -.549E-01 -.318E-01 -.285E+00
   0.147E+00 -.233E+00 0.350E+04   -.136E+00 0.104E+00 -.349E+04   0.121E-01 0.442E-01 -.183E+01   0.273E-03 0.786E-01 -.289E+00
   -.620E-04 -.655E-01 0.350E+04   0.116E-03 0.406E-02 -.349E+04   -.137E-08 0.206E-01 -.170E+01   0.122E-01 0.410E-01 -.153E+00
   -.147E+00 -.233E+00 0.350E+04   0.136E+00 0.104E+00 -.349E+04   -.121E-01 0.442E-01 -.183E+01   -.189E-02 0.798E-01 -.288E+00
   0.219E+00 -.354E-01 0.350E+04   -.155E+00 0.769E-01 -.349E+04   -.329E-01 -.158E-01 -.175E+01   -.135E-01 -.394E-01 -.295E+00
   -.219E+00 -.354E-01 0.350E+04   0.154E+00 0.769E-01 -.349E+04   0.329E-01 -.158E-01 -.175E+01   0.169E-01 -.408E-01 -.295E+00
   -.143E-03 0.268E-01 0.350E+04   0.263E-03 0.971E-02 -.349E+04   0.703E-09 -.106E-01 -.250E+01   -.132E-01 -.264E-01 -.327E+00
   0.345E+01 0.201E+01 0.121E+04   -.292E+01 -.177E+01 -.121E+04   -.604E+00 -.284E+00 -.126E+01   0.754E-01 0.531E-01 -.311E+00
   -.926E-04 0.103E+01 0.121E+04   0.190E-03 -.150E+01 -.121E+04   -.164E-07 0.246E+00 -.470E+00   0.121E-01 0.147E+00 -.257E+00
   -.345E+01 0.201E+01 0.121E+04   0.292E+01 -.177E+01 -.121E+04   0.604E+00 -.284E+00 -.126E+01   -.771E-01 0.544E-01 -.311E+00
   0.836E+00 -.529E+00 0.121E+04   -.122E+01 0.792E+00 -.121E+04   0.199E+00 -.175E+00 -.487E+00   0.135E+00 -.497E-01 -.279E+00
   -.836E+00 -.529E+00 0.121E+04   0.122E+01 0.792E+00 -.121E+04   -.199E+00 -.175E+00 -.487E+00   -.111E+00 -.510E-01 -.280E+00
   -.143E-03 -.446E+00 0.121E+04   0.299E-03 0.155E+00 -.121E+04   -.130E-07 0.195E+00 -.909E+00   -.358E-02 0.775E-01 -.355E+00
   -.921E-04 -.398E+01 0.121E+04   0.186E-03 0.337E+01 -.121E+04   -.471E-07 0.707E+00 -.131E+01   -.507E-03 -.118E+00 -.305E+00
   -.265E+00 0.199E+00 0.121E+04   0.641E-01 -.296E-01 -.121E+04   0.137E+00 -.112E+00 -.833E+00   0.417E-01 -.477E-01 -.343E+00
   0.265E+00 0.199E+00 0.121E+04   -.644E-01 -.296E-01 -.121E+04   -.137E+00 -.112E+00 -.833E+00   -.404E-01 -.447E-01 -.341E+00
   -.619E-04 -.127E+00 -.110E+04   0.687E-04 0.271E-01 0.110E+04   -.416E-08 0.625E-01 0.921E+00   -.110E-01 0.253E-01 -.298E+00
   -.236E+02 -.132E+02 -.110E+04   0.247E+02 0.139E+02 0.110E+04   -.121E+01 -.729E+00 -.110E+01   0.127E+00 0.361E-01 -.296E+00
   0.236E+02 -.132E+02 -.110E+04   -.247E+02 0.139E+02 0.110E+04   0.121E+01 -.729E+00 -.110E+01   -.146E+00 0.355E-01 -.297E+00
   -.170E+02 0.921E+01 -.110E+04   0.162E+02 -.864E+01 0.110E+04   0.787E+00 -.533E+00 0.944E+00   0.123E+00 -.559E-01 -.314E+00
   -.901E-04 0.263E+02 -.110E+04   0.145E-03 -.277E+02 0.110E+04   -.990E-07 0.149E+01 -.127E+01   0.117E-05 -.920E-01 -.293E+00
   0.170E+02 0.921E+01 -.110E+04   -.162E+02 -.864E+01 0.110E+04   -.787E+00 -.533E+00 0.944E+00   -.123E+00 -.572E-01 -.314E+00
   0.263E+00 0.583E+00 -.110E+04   -.232E+00 -.570E+00 0.110E+04   0.235E-02 0.374E-01 0.801E+00   -.378E-01 -.465E-01 -.285E+00
   -.263E+00 0.583E+00 -.110E+04   0.232E+00 -.570E+00 0.110E+04   -.235E-02 0.374E-01 0.801E+00   0.166E-01 -.473E-01 -.285E+00
   -.112E-03 -.195E+02 -.110E+04   0.242E-03 0.183E+02 0.110E+04   -.695E-07 0.104E+01 0.907E+00   0.931E-03 0.163E+00 -.297E+00
   -.436E-04 0.354E+01 -.336E+04   0.355E-04 -.349E+01 0.336E+04   0.266E-08 -.400E-01 0.215E+01   -.164E-03 -.411E-01 0.276E+00
   -.646E+01 -.269E+00 -.335E+04   0.693E+01 0.406E+00 0.335E+04   -.601E+00 -.365E+00 0.169E+01   0.470E-01 0.387E-01 0.258E+00
   0.646E+01 -.269E+00 -.335E+04   -.693E+01 0.406E+00 0.335E+04   0.601E+00 -.365E+00 0.169E+01   -.461E-01 0.402E-01 0.257E+00
   -.289E+01 -.324E+01 -.334E+04   0.304E+01 0.348E+01 0.334E+04   -.413E+00 -.226E+00 0.250E+01   0.716E-01 0.857E-02 0.266E+00
   0.289E+01 -.324E+01 -.334E+04   -.304E+01 0.347E+01 0.334E+04   0.413E+00 -.226E+00 0.250E+01   -.720E-01 0.942E-02 0.265E+00
   -.324E+01 0.419E+01 -.335E+04   0.337E+01 -.459E+01 0.335E+04   -.250E+00 0.598E+00 0.164E+01   0.373E-01 -.300E-01 0.257E+00
   0.324E+01 0.420E+01 -.335E+04   -.337E+01 -.459E+01 0.335E+04   0.250E+00 0.598E+00 0.164E+01   -.345E-01 -.309E-01 0.257E+00
   -.159E-03 -.269E+01 -.337E+04   0.256E-03 0.260E+01 0.337E+04   -.629E-08 0.944E-01 0.258E+01   -.127E-01 0.139E-01 0.330E+00
   -.434E-04 -.163E+01 -.226E+04   0.102E-03 0.169E+01 0.226E+04   -.278E-08 0.417E-01 0.386E+01   0.133E-02 -.701E-02 0.237E-01
   0.221E+03 -.322E+00 -.167E+04   -.263E+03 0.312E+00 0.167E+04   0.426E+02 0.652E-02 -.642E+01   0.592E-02 0.180E-03 0.780E-01
   -.221E+03 -.322E+00 -.167E+04   0.263E+03 0.312E+00 0.167E+04   -.426E+02 0.652E-02 -.642E+01   -.569E-02 0.217E-03 0.778E-01
 -----------------------------------------------------------------------------------------------
   -.864E-04 -.249E+00 0.223E+02   0.227E-12 0.470E-12 -.955E-11   -.172E-07 0.258E+00 -.166E+02   -.256E-01 -.112E-01 -.569E+01
 
 
 POSITION                                       TOTAL-FORCE (eV/Angst)
 -----------------------------------------------------------------------------------
      0.00000      0.00000      5.37156         0.000000     -0.002138      0.017990
      2.56560      0.00000      5.37156         0.007845      0.020264      0.071815
      5.13119      0.00000      5.37156        -0.007845      0.020264      0.071815
      1.28280      2.22187      5.37156         0.024599     -0.005075      0.066962
      3.84839      2.22187      5.37156        -0.000000      0.000244      0.019963
      6.41399      2.22187      5.37156        -0.024599     -0.005075      0.066962
      2.56560      4.44374      5.37156         0.016343     -0.014340      0.067205
      5.13119      4.44374      5.37156        -0.016343     -0.014340      0.067205
      7.69679      4.44374      5.37156         0.000000     -0.000387      0.022997
      1.28280      0.74062      7.46636         0.007299      0.009886     -0.047683
      3.84839      0.74062      7.46636         0.000000     -0.082142     -0.124560
      6.41399      0.74062      7.46636        -0.007299      0.009886     -0.047683
      2.56560      2.96249      7.46636        -0.064978      0.037546     -0.112171
      5.13119      2.96249      7.46636         0.064978      0.037546     -0.112171
      7.69679      2.96249      7.46636         0.000000     -0.019173      0.016836
      3.84839      5.18437      7.46636         0.000000     -0.020446     -0.037375
      6.41399      5.18437      7.46636        -0.022016      0.011979      0.026378
      8.97958      5.18437      7.46636         0.022016      0.011979      0.026378
      7.69679      1.48657      9.56400         0.000000     -0.011617      0.024331
      2.55408      1.47460      9.52990         0.032742     -0.010233     -0.104324
      5.14271      1.47460      9.52990        -0.032742     -0.010233     -0.104324
      8.97350      3.70663      9.56526         0.036271     -0.019312      0.006577
      3.84839      3.71642      9.52990         0.000000     -0.051178     -0.072199
      6.42007      3.70663      9.56526        -0.036271     -0.019312      0.006577
     10.25777      5.92233      9.56400         0.005954      0.003353     -0.006798
      5.13580      5.92233      9.56400        -0.005954      0.003353     -0.006798
      7.69679      5.91797      9.56526        -0.000000      0.034760     -0.009399
      0.00000      0.00000     11.64184         0.000000     -0.031542     -0.050624
      2.56182      0.00242     11.67254        -0.080670     -0.188525     -0.147022
      5.13496      0.00242     11.67254         0.080670     -0.188525     -0.147022
      1.28301      2.21740     11.67254        -0.195148      0.017677     -0.109336
      6.41378      2.21740     11.67254         0.195148      0.017677     -0.109336
      2.56958      4.44580     11.67254        -0.087861      0.171717     -0.134876
      5.12721      4.44580     11.67254         0.087861      0.171717     -0.134876
      7.69679      4.44374     11.64035        -0.000000      0.025157     -0.030753
      3.84839      2.22187     11.57579        -0.000000      0.095941      1.101016
      3.27601      2.19838     13.90994         0.003284     -0.003677     -0.015839
      4.42078      2.19838     13.90994        -0.003284     -0.003677     -0.015839
 -----------------------------------------------------------------------------------
    total drift:                               -0.025697     -0.002505     -0.009961


--------------------------------------------------------------------------------------------------------



  FREE ENERGIE OF THE ION-ELECTRON SYSTEM (eV)
  ---------------------------------------------------
  free  energy   TOTEN  =      -148.04246782 eV

  energy  without entropy=     -148.04246782  energy(sigma->0) =     -148.04246782
 


--------------------------------------------------------------------------------------------------------


    POTLOK:  cpu time    0.0281: real time    0.0281


--------------------------------------------------------------------------------------------------------


 stress matrix after NEB project (eV)
     -4.68057      0.00000     -0.00000
      0.00000     -4.83577      0.17253
     -0.00000      0.17253      1.04453
  FORCES: max atom, RMS     0.016589    0.003806
  FORCE total and by dimension    0.023460    0.015839
  Stress total and by dimension    6.814908    4.835772
     LOOP+:  cpu time  129.6171: real time  129.6287
 -----------------------------------------------------------------------------
|                                                                             |
|           W    W    AA    RRRRR   N    N  II  N    N   GGGG   !!!           |
|           W    W   A  A   R    R  NN   N  II  NN   N  G    G  !!!           |
|           W    W  A    A  R    R  N N  N  II  N N  N  G       !!!           |
|           W WW W  AAAAAA  RRRRR   N  N N  II  N  N N  G  GGG   !            |
|           WW  WW  A    A  R   R   N   NN  II  N   NN  G    G                |
|           W    W  A    A  R    R  N    N  II  N    N   GGGG   !!!           |
|                                                                             |
|     Tetrahedron method does not include variations of the Fermi             |
|     occupations, so forces and stress will be inaccurate. We suggest        |
|     using a different smearing scheme ISMEAR = 1 or 2 for metals in         |
|     relaxations.                                                            |
|                                                                             |
 -----------------------------------------------------------------------------

    4ORBIT:  cpu time    0.0000: real time    0.0000



 total charge

# of ion       s       p       d       tot
------------------------------------------
    1        0.448   0.284   9.188   9.920
    2        0.450   0.285   9.186   9.921
    3        0.450   0.285   9.186   9.921
    4        0.450   0.285   9.186   9.921
    5        0.446   0.288   9.180   9.915
    6        0.450   0.285   9.186   9.921
    7        0.450   0.284   9.186   9.921
    8        0.450   0.284   9.186   9.921
    9        0.447   0.283   9.190   9.920
   10        0.442   0.373   9.173   9.988
   11        0.444   0.364   9.185   9.994
   12        0.442   0.373   9.173   9.988
   13        0.444   0.365   9.185   9.994
   14        0.444   0.365   9.185   9.994
   15        0.437   0.369   9.179   9.984
   16        0.442   0.373   9.173   9.988
   17        0.437   0.369   9.179   9.984
   18        0.437   0.369   9.179   9.984
   19        0.440   0.368   9.182   9.990
   20        0.455   0.401   9.163  10.020
   21        0.455   0.401   9.163  10.020
   22        0.430   0.370   9.184   9.984
   23        0.455   0.405   9.160  10.020
   24        0.430   0.370   9.184   9.984
   25        0.442   0.368   9.181   9.991
   26        0.442   0.368   9.181   9.991
   27        0.431   0.369   9.185   9.985
   28        0.448   0.289   9.191   9.928
   29        0.459   0.310   9.179   9.947
   30        0.459   0.310   9.179   9.947
   31        0.454   0.310   9.179   9.944
   32        0.454   0.310   9.179   9.944
   33        0.458   0.310   9.178   9.947
   34        0.458   0.310   9.178   9.947
   35        0.440   0.293   9.190   9.923
   36        0.606   0.470   6.088   7.164
   37        1.358   2.445   0.000   3.803
   38        1.358   2.445   0.000   3.803
--------------------------------------------------
tot         18.943  17.107 327.410 363.460
 
 BZINTS: Fermi energy:    0.248827;  403.000000 electrons
         Band energy:-0.110277E+04;  BLOECHL correction:   -0.052582

 total amount of memory used by VASP MPI-rank0   150081. kBytes
=======================================================================

   base      :      30000. kBytes
   nonlr-proj:      18074. kBytes
   fftplans  :       2916. kBytes
   grid      :      12390. kBytes
   one-center:        590. kBytes
   wavefun   :      86111. kBytes
 
  
  
 General timing and accounting informations for this job:
 ========================================================
  
                  Total CPU time used (sec):      140.766
                            User time (sec):      135.365
                          System time (sec):        5.402
                         Elapsed time (sec):      141.161
  
                   Maximum memory used (kb):      396328.
                   Average memory used (kb):          N/A
  
                          Minor page faults:        91194
                          Major page faults:            0
                 Voluntary context switches:         7469
