PROCAR new format
# of k-points:   10         # of bands:  252         # of ions:   39

 k-point     1 :    0.00000000 0.00000000 0.00000000     weight = 0.01562500

band     1 # energy  -24.91501629 # occ.  2.00000000
 
ion      s      p      d    tot
    1  0.000  0.000  0.000  0.000
    2  0.000  0.000  0.000  0.000
    3  0.000  0.000  0.000  0.000
    4  0.000  0.000  0.000  0.000
    5  0.000  0.000  0.000  0.000
    6  0.000  0.000  0.000  0.000
    7  0.000  0.000  0.000  0.000
    8  0.000  0.000  0.000  0.000
    9  0.000  0.000  0.000  0.000
   10  0.000  0.000  0.000  0.000
   11  0.000  0.000  0.000  0.000
   12  0.000  0.000  0.000  0.000
   13  0.000  0.000  0.000  0.000
   14  0.000  0.000  0.000  0.000
   15  0.000  0.000  0.000  0.000
   16  0.000  0.000  0.000  0.000
   17  0.000  0.000  0.000  0.000
   18  0.000  0.000  0.000  0.000
   19  0.000  0.000  0.000  0.000
   20  0.000  0.000  0.000  0.000
   21  0.000  0.000  0.000  0.000
   22  0.000  0.000  0.000  0.000
   23  0.000  0.000  0.000  0.000
   24  0.000  0.000  0.000  0.000
   25  0.000  0.000  0.000  0.000
   26  0.000  0.000  0.000  0.000
   27  0.000  0.000  0.000  0.000
   28  0.000  0.000  0.000  0.000
   29  0.000  0.000  0.000  0.000
   30  0.000  0.000  0.000  0.000
   31  0.000  0.000  0.000  0.000
   32  0.000  0.000  0.000  0.000
   33  0.000  0.000  0.000  0.000
   34  0.000  0.000  0.000  0.000
   35  0.000  0.000  0.000  0.000
   36  0.000  0.000  0.000  0.000
   37  0.079  0.058  0.000  0.137
   38  0.724  0.008  0.000  0.732
   39  0.060  0.013  0.000  0.072
tot    0.863  0.079  0.000  0.942
 
band     2 # energy  -15.58755332 # occ.  2.00000000
 
ion      s      p      d    tot
    1  0.000  0.000  0.000  0.000
    2  0.000  0.000  0.000  0.000
    3  0.000  0.000  0.000  0.000
    4  0.000  0.000  0.000  0.000
    5  0.000  0.000  0.000  0.000
    6  0.000  0.000  0.000  0.000
    7  0.000  0.000  0.000  0.000
    8  0.000  0.000  0.000  0.000
    9  0.000  0.000  0.000  0.000
   10  0.000  0.000  0.000  0.000
   11  0.000  0.000  0.000  0.000
   12  0.000  0.000  0.000  0.000
   13  0.000  0.000  0.000  0.000
   14  0.000  0.000  0.000  0.000
   15  0.000  0.000  0.000  0.000
   16  0.000  0.000  0.000  0.000
   17  0.000  0.000  0.000  0.000
   18  0.000  0.000  0.000  0.000
   19  0.000  0.000  0.000  0.000
   20  0.000  0.000  0.000  0.000
   21  0.000  0.000  0.000  0.000
   22  0.000  0.000  0.000  0.000
   23  0.000  0.000  0.000  0.000
   24  0.000  0.000  0.000  0.000
   25  0.000  0.000  0.000  0.000
   26  0.000  0.000  0.000  0.000
   27  0.000  0.000  0.000  0.000
   28  0.000  0.000  0.000  0.000
   29  0.000  0.000  0.000  0.000
   30  0.000  0.000  0.000  0.000
   31  0.000  0.000  0.000  0.000
   32  0.000  0.000  0.000  0.000
   33  0.000  0.000  0.000  0.000
   34  0.000  0.000  0.000  0.000
   35  0.000  0.000  0.000  0.000
   36  0.003  0.003  0.002  0.008
   37  0.159  0.049  0.000  0.209
   38  0.019  0.521  0.000  0.540
   39  0.200  0.032  0.000  0.232
tot    0.381  0.605  0.002  0.989
 
band     3 # energy   -8.95641374 # occ.  2.00000000
 
ion      s      p      d    tot
    1  0.003  0.000  0.000  0.004
    2  0.003  0.000  0.000  0.003
    3  0.003  0.000  0.000  0.003
    4  0.003  0.000  0.000  0.003
    5  0.003  0.000  0.000  0.004
    6  0.003  0.000  0.000  0.003
    7  0.003  0.000  0.000  0.003
    8  0.003  0.000  0.000  0.003
    9  0.003  0.000  0.000  0.003
   10  0.013  0.000  0.000  0.014
   11  0.014  0.000  0.000  0.014
   12  0.013  0.000  0.000  0.014
   13  0.014  0.000  0.000  0.014
   14  0.014  0.000  0.000  0.014
   15  0.013  0.000  0.000  0.013
   16  0.013  0.000  0.000  0.014
   17  0.013  0.000  0.000  0.013
   18  0.013  0.000  0.000  0.013
   19  0.017  0.000  0.000  0.017
   20  0.023  0.000  0.000  0.023
   21  0.023  0.000  0.000  0.023
   22  0.017  0.000  0.000  0.018
   23  0.023  0.000  0.000  0.023
   24  0.017  0.000  0.000  0.018
   25  0.017  0.000  0.000  0.017
   26  0.017  0.000  0.000  0.017
   27  0.017  0.000  0.000  0.018
   28  0.006  0.001  0.000  0.007
   29  0.010  0.001  0.000  0.010
   30  0.010  0.001  0.000  0.010
   31  0.010  0.001  0.000  0.010
   32  0.010  0.001  0.000  0.010
   33  0.010  0.001  0.000  0.010
   34  0.010  0.001  0.000  0.010
   35  0.006  0.001  0.000  0.007
   36  0.074  0.014  0.043  0.130
   37  0.055  0.055  0.000  0.110
   38  0.004  0.017  0.000  0.021
   39  0.005  0.000  0.000  0.005
tot    0.528  0.096  0.045  0.670
 
band     4 # energy   -8.45886651 # occ.  2.00000000
 
ion      s      p      d    tot
    1  0.006  0.001  0.000  0.006
    2  0.006  0.001  0.000  0.006
    3  0.006  0.001  0.000  0.006
    4  0.006  0.001  0.000  0.006
    5  0.006  0.001  0.000  0.006
    6  0.006  0.001  0.000  0.006
    7  0.006  0.001  0.000  0.006
    8  0.006  0.001  0.000  0.006
    9  0.006  0.001  0.000  0.007
   10  0.015  0.000  0.000  0.015
   11  0.014  0.000  0.000  0.014
   12  0.015  0.000  0.000  0.015
   13  0.014  0.000  0.000  0.014
   14  0.014  0.000  0.000  0.014
   15  0.015  0.000  0.000  0.015
   16  0.015  0.000  0.000  0.015
   17  0.015  0.000  0.000  0.015
   18  0.015  0.000  0.000  0.015
   19  0.006  0.000  0.000  0.007
   20  0.002  0.002  0.001  0.004
   21  0.002  0.002  0.001  0.004
   22  0.006  0.001  0.000  0.006
   23  0.002  0.002  0.001  0.004
   24  0.006  0.001  0.000  0.006
   25  0.006  0.000  0.000  0.007
   26  0.006  0.000  0.000  0.007
   27  0.006  0.001  0.000  0.006
   28  0.000  0.000  0.000  0.000
   29  0.000  0.001  0.001  0.002
   30  0.000  0.001  0.001  0.002
   31  0.000  0.001  0.001  0.002
   32  0.000  0.001  0.001  0.002
   33  0.000  0.001  0.001  0.002
   34  0.000  0.001  0.001  0.002
   35  0.000  0.000  0.000  0.000
   36  0.077  0.051  0.099  0.228
   37  0.119  0.111  0.000  0.230
   38  0.008  0.032  0.000  0.040
   39  0.009  0.001  0.000  0.010
tot    0.442  0.213  0.107  0.763
 
band     5 # energy   -7.69205591 # occ.  2.00000000
 
ion      s      p      d    tot
    1  0.000  0.000  0.000  0.000
    2  0.000  0.000  0.000  0.000
    3  0.000  0.000  0.000  0.000
    4  0.000  0.000  0.000  0.000
    5  0.000  0.000  0.000  0.000
    6  0.000  0.000  0.000  0.000
    7  0.000  0.000  0.000  0.000
    8  0.000  0.000  0.000  0.000
    9  0.000  0.000  0.000  0.000
   10  0.000  0.000  0.000  0.000
   11  0.000  0.000  0.000  0.000
   12  0.000  0.000  0.000  0.000
   13  0.000  0.000  0.000  0.000
   14  0.000  0.000  0.000  0.000
   15  0.000  0.000  0.000  0.000
   16  0.000  0.000  0.000  0.000
   17  0.000  0.000  0.000  0.000
   18  0.000  0.000  0.000  0.000
   19  0.000  0.000  0.000  0.000
   20  0.000  0.000  0.000  0.000
   21  0.000  0.000  0.000  0.000
   22  0.000  0.000  0.000  0.000
   23  0.000  0.000  0.000  0.000
   24  0.000  0.000  0.000  0.000
   25  0.000  0.000  0.000  0.000
   26  0.000  0.000  0.000  0.000
   27  0.000  0.000  0.000  0.000
   28  0.000  0.000  0.000  0.000
   29  0.001  0.000  0.000  0.001
   30  0.000  0.000  0.000  0.000
   31  0.001  0.000  0.000  0.001
   32  0.001  0.000  0.000  0.001
   33  0.000  0.000  0.000  0.000
   34  0.001  0.000  0.000  0.001
   35  0.000  0.000  0.000  0.000
   36  0.000  0.003  0.013  0.017
   37  0.000  0.116  0.000  0.116
   38  0.000  0.533  0.000  0.533
   39  0.000  0.007  0.000  0.007
tot    0.003  0.661  0.015  0.679
 
band     6 # energy   -7.69185413 # occ.  2.00000000
 
ion      s      p      d    tot
    1  0.000  0.000  0.000  0.000
    2  0.000  0.000  0.000  0.000
    3  0.000  0.000  0.000  0.000
    4  0.000  0.000  0.000  0.000
    5  0.000  0.000  0.000  0.000
    6  0.000  0.000  0.000  0.000
    7  0.000  0.000  0.000  0.000
    8  0.000  0.000  0.000  0.000
    9  0.000  0.000  0.000  0.000
   10  0.000  0.000  0.000  0.000
   11  0.000  0.000  0.000  0.000
   12  0.000  0.000  0.000  0.000
   13  0.000  0.000  0.000  0.000
   14  0.000  0.000  0.000  0.000
   15  0.000  0.000  0.000  0.000
   16  0.000  0.000  0.000  0.000
   17  0.000  0.000  0.000  0.000
   18  0.000  0.000  0.000  0.000
   19  0.000  0.000  0.000  0.000
   20  0.000  0.000  0.000  0.000
   21  0.000  0.000  0.000  0.000
   22  0.000  0.000  0.000  0.000
   23  0.000  0.000  0.000  0.000
   24  0.000  0.000  0.000  0.000
   25  0.000  0.000  0.000  0.000
   26  0.000  0.000  0.000  0.000
   27  0.000  0.000  0.000  0.000
   28  0.000  0.000  0.000  0.000
   29  0.000  0.000  0.000  0.001
   30  0.001  0.000  0.000  0.002
   31  0.000  0.000  0.000  0.001
   32  0.000  0.000  0.000  0.001
   33  0.001  0.000  0.000  0.002
   34  0.000  0.000  0.000  0.001
   35  0.000  0.000  0.000  0.000
   36  0.000  0.003  0.013  0.017
   37  0.000  0.116  0.000  0.116
   38  0.000  0.533  0.000  0.533
   39  0.000  0.007  0.000  0.007
tot    0.003  0.661  0.015  0.679
 
band     7 # energy   -7.34320253 # occ.  2.00000000
 
ion      s      p      d    tot
    1  0.017  0.001  0.001  0.019
    2  0.017  0.001  0.001  0.019
    3  0.017  0.001  0.001  0.019
    4  0.017  0.001  0.001  0.019
    5  0.017  0.001  0.001  0.019
    6  0.017  0.001  0.001  0.019
    7  0.017  0.001  0.001  0.019
    8  0.017  0.001  0.001  0.019
    9  0.017  0.001  0.001  0.018
   10  0.006  0.003  0.000  0.009
   11  0.007  0.002  0.000  0.010
   12  0.006  0.003  0.000  0.009
   13  0.007  0.002  0.000  0.010
   14  0.007  0.002  0.000  0.010
   15  0.006  0.003  0.001  0.009
   16  0.006  0.003  0.000  0.009
   17  0.006  0.003  0.001  0.009
   18  0.006  0.003  0.001  0.009
   19  0.016  0.002  0.001  0.018
   20  0.009  0.001  0.001  0.012
   21  0.009  0.001  0.001  0.012
   22  0.015  0.002  0.001  0.018
   23  0.009  0.001  0.001  0.012
   24  0.015  0.002  0.001  0.018
   25  0.016  0.002  0.001  0.018
   26  0.016  0.002  0.001  0.018
   27  0.015  0.002  0.001  0.018
   28  0.018  0.001  0.000  0.020
   29  0.013  0.002  0.000  0.015
   30  0.013  0.002  0.000  0.015
   31  0.013  0.002  0.000  0.015
   32  0.013  0.002  0.000  0.015
   33  0.013  0.002  0.000  0.015
   34  0.013  0.002  0.000  0.015
   35  0.018  0.001  0.000  0.020
   36  0.000  0.016  0.033  0.049
   37  0.023  0.019  0.000  0.042
   38  0.001  0.004  0.000  0.005
   39  0.001  0.000  0.000  0.001
tot    0.473  0.093  0.055  0.620
 
band     8 # energy   -5.84603034 # occ.  2.00000000
 
ion      s      p      d    tot
    1  0.014  0.000  0.004  0.019
    2  0.010  0.001  0.005  0.016
    3  0.010  0.001  0.005  0.016
    4  0.010  0.001  0.005  0.016
    5  0.000  0.001  0.006  0.008
    6  0.010  0.001  0.005  0.016
    7  0.010  0.001  0.005  0.016
    8  0.010  0.001  0.005  0.016
    9  0.027  0.000  0.002  0.029
   10  0.002  0.003  0.005  0.010
   11  0.023  0.006  0.001  0.030
   12  0.002  0.003  0.005  0.010
   13  0.023  0.006  0.001  0.030
   14  0.023  0.006  0.001  0.030
   15  0.001  0.002  0.007  0.010
   16  0.002  0.003  0.005  0.010
   17  0.001  0.002  0.007  0.010
   18  0.001  0.002  0.007  0.010
   19  0.000  0.002  0.007  0.009
   20  0.026  0.006  0.002  0.034
   21  0.026  0.006  0.002  0.034
   22  0.000  0.005  0.004  0.009
   23  0.026  0.006  0.002  0.034
   24  0.000  0.005  0.004  0.009
   25  0.000  0.002  0.007  0.009
   26  0.000  0.002  0.007  0.009
   27  0.000  0.005  0.004  0.009
   28  0.020  0.000  0.002  0.023
   29  0.011  0.001  0.006  0.017
   30  0.011  0.001  0.006  0.017
   31  0.011  0.001  0.006  0.017
   32  0.011  0.001  0.006  0.017
   33  0.011  0.001  0.006  0.017
   34  0.011  0.001  0.006  0.017
   35  0.026  0.000  0.003  0.029
   36  0.000  0.002  0.014  0.016
   37  0.000  0.000  0.000  0.000
   38  0.000  0.000  0.000  0.000
   39  0.000  0.000  0.000  0.000
tot    0.370  0.085  0.176  0.631
 
band     9 # energy   -5.81089091 # occ.  2.00000000
 
ion      s      p      d    tot
    1  0.000  0.002  0.005  0.007
    2  0.009  0.002  0.002  0.013
    3  0.000  0.001  0.002  0.003
    4  0.008  0.002  0.002  0.013
    5  0.000  0.003  0.005  0.008
    6  0.006  0.002  0.002  0.010
    7  0.000  0.001  0.002  0.003
    8  0.007  0.002  0.002  0.011
    9  0.000  0.000  0.002  0.002
   10  0.047  0.005  0.003  0.054
   11  0.013  0.008  0.006  0.027
   12  0.010  0.001  0.014  0.025
   13  0.010  0.009  0.006  0.025
   14  0.046  0.001  0.006  0.054
   15  0.000  0.007  0.005  0.012
   16  0.013  0.001  0.013  0.028
   17  0.000  0.008  0.005  0.012
   18  0.000  0.001  0.005  0.006
   19  0.003  0.010  0.003  0.015
   20  0.064  0.003  0.005  0.073
   21  0.014  0.005  0.011  0.030
   22  0.005  0.002  0.012  0.019
   23  0.018  0.005  0.011  0.034
   24  0.023  0.004  0.002  0.029
   25  0.010  0.000  0.006  0.016
   26  0.002  0.011  0.003  0.015
   27  0.006  0.002  0.011  0.020
   28  0.000  0.001  0.003  0.004
   29  0.010  0.003  0.003  0.016
   30  0.001  0.001  0.002  0.004
   31  0.010  0.003  0.003  0.015
   32  0.005  0.002  0.002  0.009
   33  0.001  0.001  0.002  0.004
   34  0.006  0.002  0.002  0.010
   35  0.000  0.000  0.004  0.004
   36  0.000  0.005  0.006  0.011
   37  0.000  0.000  0.000  0.000
   38  0.000  0.000  0.000  0.000
   39  0.000  0.000  0.000  0.000
tot    0.347  0.117  0.179  0.642
 
band    10 # energy   -5.81085458 # occ.  2.00000000
 
ion      s      p      d    tot
    1  0.000  0.002  0.005  0.007
    2  0.001  0.001  0.002  0.004
    3  0.010  0.002  0.002  0.015
    4  0.002  0.001  0.002  0.005
    5  0.000  0.003  0.005  0.008
    6  0.004  0.001  0.002  0.007
    7  0.010  0.002  0.002  0.015
    8  0.003  0.001  0.002  0.007
    9  0.000  0.000  0.002  0.002
   10  0.000  0.000  0.017  0.017
   11  0.033  0.004  0.006  0.044
   12  0.037  0.004  0.006  0.046
   13  0.036  0.003  0.006  0.046
   14  0.000  0.011  0.006  0.017
   15  0.000  0.004  0.005  0.008
   16  0.034  0.004  0.007  0.044
   17  0.000  0.003  0.005  0.008
   18  0.000  0.010  0.005  0.014
   19  0.007  0.004  0.005  0.016
   20  0.000  0.006  0.013  0.019
   21  0.050  0.004  0.007  0.061
   22  0.018  0.004  0.005  0.027
   23  0.046  0.004  0.007  0.058
   24  0.000  0.002  0.014  0.016
   25  0.000  0.013  0.002  0.015
   26  0.008  0.003  0.005  0.016
   27  0.017  0.004  0.006  0.026
   28  0.000  0.001  0.003  0.004
   29  0.000  0.001  0.002  0.003
   30  0.010  0.002  0.003  0.015
   31  0.001  0.001  0.002  0.004
   32  0.006  0.002  0.003  0.010
   33  0.010  0.002  0.003  0.015
   34  0.005  0.002  0.003  0.009
   35  0.000  0.000  0.004  0.004
   36  0.000  0.005  0.006  0.011
   37  0.000  0.000  0.000  0.000
   38  0.000  0.000  0.000  0.000
   39  0.000  0.000  0.000  0.000
tot    0.347  0.117  0.179  0.642
 
band    11 # energy   -5.79935364 # occ.  2.00000000
 
ion      s      p      d    tot
    1  0.021  0.003  0.001  0.025
    2  0.000  0.002  0.004  0.006
    3  0.000  0.002  0.004  0.006
    4  0.000  0.002  0.004  0.006
    5  0.001  0.000  0.000  0.001
    6  0.000  0.002  0.004  0.006
    7  0.000  0.002  0.004  0.006
    8  0.000  0.002  0.004  0.006
    9  0.010  0.002  0.000  0.012
   10  0.030  0.005  0.006  0.041
   11  0.004  0.000  0.011  0.016
   12  0.029  0.005  0.006  0.041
   13  0.004  0.000  0.011  0.016
   14  0.004  0.000  0.011  0.016
   15  0.014  0.008  0.003  0.025
   16  0.029  0.005  0.006  0.041
   17  0.014  0.008  0.003  0.025
   18  0.014  0.008  0.003  0.025
   19  0.022  0.009  0.002  0.033
   20  0.000  0.002  0.010  0.012
   21  0.000  0.002  0.010  0.012
   22  0.026  0.003  0.009  0.037
   23  0.000  0.002  0.010  0.012
   24  0.025  0.003  0.009  0.037
   25  0.021  0.009  0.002  0.032
   26  0.022  0.009  0.002  0.033
   27  0.026  0.003  0.009  0.037
   28  0.018  0.003  0.000  0.022
   29  0.000  0.002  0.004  0.006
   30  0.000  0.002  0.004  0.006
   31  0.000  0.002  0.004  0.006
   32  0.000  0.002  0.004  0.006
   33  0.000  0.002  0.004  0.006
   34  0.000  0.002  0.004  0.006
   35  0.012  0.002  0.001  0.016
   36  0.000  0.000  0.000  0.000
   37  0.000  0.000  0.000  0.000
   38  0.000  0.000  0.000  0.000
   39  0.000  0.000  0.000  0.000
tot    0.346  0.115  0.178  0.639
 
band    12 # energy   -5.79233254 # occ.  2.00000000
 
ion      s      p      d    tot
    1  0.000  0.002  0.003  0.005
    2  0.009  0.002  0.002  0.014
    3  0.000  0.001  0.002  0.003
    4  0.009  0.002  0.002  0.013
    5  0.000  0.000  0.003  0.004
    6  0.006  0.002  0.003  0.011
    7  0.000  0.001  0.002  0.003
    8  0.007  0.002  0.003  0.012
    9  0.000  0.003  0.006  0.009
   10  0.000  0.014  0.002  0.015
   11  0.012  0.004  0.005  0.021
   12  0.012  0.003  0.006  0.021
   13  0.012  0.004  0.005  0.021
   14  0.000  0.003  0.013  0.016
   15  0.046  0.004  0.007  0.057
   16  0.011  0.004  0.005  0.021
   17  0.049  0.004  0.007  0.060
   18  0.000  0.004  0.014  0.018
   19  0.038  0.004  0.007  0.048
   20  0.000  0.008  0.006  0.015
   21  0.001  0.003  0.005  0.009
   22  0.031  0.003  0.006  0.041
   23  0.001  0.004  0.005  0.009
   24  0.000  0.012  0.005  0.017
   25  0.000  0.000  0.017  0.017
   26  0.041  0.004  0.006  0.050
   27  0.029  0.004  0.006  0.040
   28  0.000  0.002  0.005  0.007
   29  0.009  0.002  0.002  0.014
   30  0.001  0.001  0.002  0.004
   31  0.009  0.002  0.003  0.014
   32  0.004  0.001  0.002  0.008
   33  0.001  0.001  0.002  0.004
   34  0.005  0.002  0.002  0.008
   35  0.000  0.003  0.004  0.007
   36  0.000  0.000  0.002  0.002
   37  0.000  0.000  0.000  0.000
   38  0.000  0.000  0.000  0.000
   39  0.000  0.000  0.000  0.000
tot    0.345  0.116  0.178  0.639
 
band    13 # energy   -5.79230365 # occ.  2.00000000
 
ion      s      p      d    tot
    1  0.000  0.002  0.003  0.005
    2  0.001  0.001  0.002  0.005
    3  0.010  0.003  0.003  0.016
    4  0.002  0.001  0.002  0.005
    5  0.000  0.000  0.003  0.004
    6  0.004  0.001  0.002  0.008
    7  0.010  0.003  0.003  0.015
    8  0.004  0.001  0.002  0.007
    9  0.000  0.003  0.006  0.009
   10  0.015  0.000  0.007  0.022
   11  0.004  0.003  0.010  0.017
   12  0.004  0.011  0.003  0.017
   13  0.004  0.003  0.010  0.017
   14  0.016  0.004  0.003  0.023
   15  0.018  0.004  0.012  0.033
   16  0.004  0.010  0.003  0.017
   17  0.015  0.004  0.012  0.031
   18  0.063  0.004  0.004  0.072
   19  0.014  0.002  0.013  0.029
   20  0.001  0.002  0.004  0.007
   21  0.000  0.007  0.006  0.013
   22  0.009  0.009  0.005  0.024
   23  0.000  0.007  0.006  0.013
   24  0.041  0.001  0.007  0.048
   25  0.053  0.005  0.003  0.060
   26  0.012  0.001  0.014  0.027
   27  0.011  0.009  0.005  0.025
   28  0.000  0.002  0.005  0.007
   29  0.000  0.001  0.002  0.003
   30  0.009  0.002  0.002  0.014
   31  0.001  0.001  0.002  0.003
   32  0.006  0.002  0.002  0.010
   33  0.009  0.002  0.002  0.013
   34  0.005  0.002  0.002  0.009
   35  0.000  0.003  0.004  0.007
   36  0.000  0.000  0.002  0.002
   37  0.000  0.000  0.000  0.000
   38  0.000  0.000  0.000  0.000
   39  0.000  0.000  0.000  0.000
tot    0.345  0.116  0.178  0.639
 
band    14 # energy   -5.68817417 # occ.  2.00000000
 
ion      s      p      d    tot
    1  0.001  0.001  0.003  0.005
    2  0.006  0.002  0.007  0.015
    3  0.006  0.002  0.007  0.015
    4  0.006  0.002  0.007  0.015
    5  0.045  0.002  0.001  0.047
    6  0.006  0.002  0.007  0.015
    7  0.006  0.002  0.007  0.015
    8  0.006  0.002  0.007  0.015
    9  0.000  0.002  0.007  0.009
   10  0.007  0.004  0.007  0.018
   11  0.010  0.007  0.006  0.023
   12  0.007  0.004  0.007  0.018
   13  0.010  0.007  0.006  0.023
   14  0.010  0.007  0.006  0.023
   15  0.026  0.002  0.009  0.038
   16  0.007  0.004  0.007  0.018
   17  0.026  0.002  0.009  0.038
   18  0.026  0.002  0.009  0.038
   19  0.008  0.003  0.006  0.016
   20  0.010  0.003  0.006  0.018
   21  0.010  0.003  0.006  0.018
   22  0.005  0.006  0.004  0.015
   23  0.010  0.003  0.006  0.018
   24  0.005  0.006  0.004  0.015
   25  0.008  0.003  0.006  0.016
   26  0.008  0.003  0.006  0.016
   27  0.005  0.006  0.004  0.015
   28  0.003  0.000  0.005  0.008
   29  0.007  0.000  0.004  0.011
   30  0.007  0.000  0.004  0.011
   31  0.007  0.000  0.004  0.011
   32  0.007  0.000  0.004  0.011
   33  0.007  0.000  0.004  0.011
   34  0.007  0.000  0.004  0.011
   35  0.003  0.000  0.003  0.006
   36  0.006  0.008  0.019  0.033
   37  0.006  0.004  0.000  0.010
   38  0.000  0.001  0.000  0.001
   39  0.000  0.000  0.000  0.000
tot    0.339  0.103  0.215  0.657
 
band    15 # energy   -5.04403560 # occ.  2.00000000
 
ion      s      p      d    tot
    1  0.008  0.000  0.008  0.016
    2  0.004  0.001  0.009  0.014
    3  0.004  0.001  0.009  0.014
    4  0.004  0.001  0.009  0.014
    5  0.000  0.002  0.009  0.011
    6  0.004  0.001  0.009  0.014
    7  0.004  0.001  0.009  0.014
    8  0.004  0.001  0.009  0.014
    9  0.012  0.000  0.006  0.018
   10  0.005  0.000  0.025  0.030
   11  0.012  0.001  0.021  0.033
   12  0.005  0.000  0.025  0.030
   13  0.012  0.001  0.021  0.033
   14  0.012  0.001  0.020  0.033
   15  0.002  0.000  0.021  0.023
   16  0.005  0.000  0.025  0.030
   17  0.002  0.000  0.021  0.023
   18  0.002  0.000  0.021  0.023
   19  0.003  0.000  0.020  0.023
   20  0.012  0.001  0.024  0.038
   21  0.012  0.001  0.024  0.038
   22  0.003  0.000  0.024  0.027
   23  0.012  0.001  0.024  0.038
   24  0.003  0.000  0.024  0.027
   25  0.003  0.000  0.020  0.023
   26  0.003  0.000  0.020  0.023
   27  0.003  0.000  0.024  0.027
   28  0.007  0.000  0.006  0.014
   29  0.004  0.001  0.008  0.013
   30  0.004  0.001  0.008  0.013
   31  0.004  0.001  0.008  0.013
   32  0.004  0.001  0.008  0.013
   33  0.004  0.001  0.008  0.013
   34  0.004  0.001  0.008  0.013
   35  0.012  0.000  0.006  0.018
   36  0.000  0.003  0.011  0.015
   37  0.000  0.000  0.000  0.000
   38  0.000  0.000  0.000  0.000
   39  0.000  0.000  0.000  0.000
tot    0.200  0.020  0.551  0.772
 
band    16 # energy   -5.03041513 # occ.  2.00000000
 
ion      s      p      d    tot
    1  0.000  0.002  0.010  0.012
    2  0.007  0.002  0.005  0.015
    3  0.021  0.004  0.006  0.031
    4  0.003  0.002  0.005  0.011
    5  0.000  0.006  0.009  0.015
    6  0.004  0.002  0.005  0.011
    7  0.022  0.004  0.006  0.031
    8  0.008  0.002  0.005  0.015
    9  0.000  0.002  0.013  0.014
   10  0.000  0.001  0.016  0.017
   11  0.017  0.004  0.009  0.030
   12  0.008  0.003  0.012  0.022
   13  0.014  0.003  0.012  0.030
   14  0.000  0.001  0.027  0.028
   15  0.001  0.001  0.010  0.012
   16  0.010  0.003  0.010  0.024
   17  0.001  0.001  0.012  0.014
   18  0.000  0.004  0.020  0.024
   19  0.001  0.001  0.010  0.011
   20  0.000  0.001  0.030  0.032
   21  0.013  0.004  0.013  0.030
   22  0.008  0.003  0.012  0.022
   23  0.016  0.004  0.009  0.029
   24  0.000  0.001  0.015  0.016
   25  0.000  0.004  0.020  0.023
   26  0.001  0.001  0.012  0.014
   27  0.010  0.004  0.011  0.024
   28  0.000  0.001  0.011  0.013
   29  0.008  0.002  0.005  0.016
   30  0.021  0.004  0.005  0.031
   31  0.005  0.002  0.005  0.012
   32  0.003  0.002  0.005  0.010
   33  0.021  0.004  0.005  0.030
   34  0.006  0.002  0.005  0.013
   35  0.000  0.002  0.009  0.010
   36  0.000  0.008  0.006  0.014
   37  0.000  0.000  0.000  0.000
   38  0.000  0.001  0.000  0.001
   39  0.000  0.000  0.000  0.000
tot    0.228  0.097  0.381  0.707
 
band    17 # energy   -5.03040642 # occ.  2.00000000
 
ion      s      p      d    tot
    1  0.000  0.002  0.010  0.012
    2  0.015  0.003  0.005  0.023
    3  0.000  0.002  0.005  0.007
    4  0.018  0.003  0.005  0.027
    5  0.000  0.006  0.009  0.015
    6  0.018  0.003  0.006  0.027
    7  0.000  0.002  0.005  0.007
    8  0.014  0.003  0.006  0.023
    9  0.000  0.002  0.013  0.014
   10  0.011  0.004  0.009  0.025
   11  0.004  0.002  0.023  0.029
   12  0.004  0.002  0.014  0.020
   13  0.007  0.002  0.020  0.029
   14  0.021  0.005  0.005  0.030
   15  0.000  0.003  0.018  0.022
   16  0.002  0.001  0.015  0.018
   17  0.000  0.003  0.016  0.019
   18  0.001  0.000  0.008  0.010
   19  0.000  0.003  0.018  0.021
   20  0.019  0.005  0.005  0.029
   21  0.007  0.002  0.022  0.031
   22  0.004  0.002  0.013  0.019
   23  0.003  0.002  0.026  0.031
   24  0.011  0.004  0.010  0.025
   25  0.001  0.000  0.008  0.009
   26  0.000  0.002  0.016  0.018
   27  0.002  0.001  0.014  0.018
   28  0.000  0.001  0.011  0.013
   29  0.013  0.003  0.005  0.021
   30  0.000  0.002  0.005  0.007
   31  0.017  0.003  0.005  0.025
   32  0.019  0.003  0.005  0.027
   33  0.000  0.002  0.005  0.007
   34  0.015  0.003  0.005  0.024
   35  0.000  0.002  0.009  0.010
   36  0.000  0.008  0.006  0.014
   37  0.000  0.000  0.000  0.000
   38  0.000  0.001  0.000  0.001
   39  0.000  0.000  0.000  0.000
tot    0.228  0.097  0.381  0.707
 
band    18 # energy   -5.02768347 # occ.  2.00000000
 
ion      s      p      d    tot
    1  0.034  0.003  0.000  0.038
    2  0.000  0.003  0.010  0.014
    3  0.000  0.003  0.011  0.014
    4  0.000  0.003  0.010  0.014
    5  0.000  0.000  0.000  0.000
    6  0.000  0.003  0.010  0.014
    7  0.000  0.003  0.011  0.014
    8  0.000  0.003  0.010  0.014
    9  0.031  0.003  0.000  0.035
   10  0.009  0.004  0.011  0.024
   11  0.001  0.000  0.015  0.016
   12  0.009  0.004  0.011  0.023
   13  0.001  0.000  0.015  0.016
   14  0.001  0.000  0.014  0.016
   15  0.006  0.003  0.019  0.028
   16  0.009  0.004  0.011  0.023
   17  0.006  0.003  0.019  0.028
   18  0.006  0.003  0.018  0.028
   19  0.006  0.004  0.017  0.027
   20  0.000  0.000  0.016  0.016
   21  0.000  0.000  0.016  0.016
   22  0.011  0.003  0.010  0.025
   23  0.000  0.000  0.016  0.016
   24  0.011  0.003  0.010  0.025
   25  0.006  0.004  0.017  0.026
   26  0.006  0.004  0.017  0.027
   27  0.011  0.003  0.010  0.025
   28  0.035  0.003  0.000  0.038
   29  0.000  0.003  0.010  0.012
   30  0.000  0.003  0.010  0.012
   31  0.000  0.003  0.010  0.012
   32  0.000  0.003  0.010  0.012
   33  0.000  0.003  0.010  0.012
   34  0.000  0.003  0.010  0.012
   35  0.027  0.003  0.001  0.032
   36  0.000  0.000  0.000  0.000
   37  0.000  0.000  0.000  0.000
   38  0.000  0.000  0.000  0.000
   39  0.000  0.000  0.000  0.000
tot    0.228  0.093  0.384  0.705
 
band    19 # energy   -5.01401625 # occ.  2.00000000
 
ion      s      p      d    tot
    1  0.000  0.005  0.011  0.016
    2  0.005  0.002  0.005  0.013
    3  0.022  0.004  0.006  0.031
    4  0.005  0.002  0.005  0.012
    5  0.000  0.000  0.012  0.012
    6  0.006  0.002  0.005  0.013
    7  0.022  0.004  0.006  0.031
    8  0.006  0.002  0.005  0.014
    9  0.000  0.005  0.008  0.013
   10  0.010  0.002  0.005  0.017
   11  0.000  0.002  0.014  0.016
   12  0.003  0.003  0.023  0.028
   13  0.000  0.002  0.014  0.016
   14  0.002  0.001  0.010  0.013
   15  0.005  0.001  0.018  0.025
   16  0.002  0.003  0.023  0.028
   17  0.005  0.002  0.018  0.025
   18  0.020  0.006  0.007  0.033
   19  0.005  0.001  0.019  0.026
   20  0.002  0.001  0.010  0.014
   21  0.001  0.002  0.014  0.017
   22  0.003  0.003  0.021  0.026
   23  0.001  0.002  0.014  0.017
   24  0.011  0.002  0.006  0.018
   25  0.022  0.005  0.006  0.034
   26  0.006  0.001  0.019  0.026
   27  0.003  0.003  0.021  0.027
   28  0.000  0.005  0.008  0.012
   29  0.006  0.002  0.005  0.013
   30  0.020  0.004  0.005  0.029
   31  0.006  0.002  0.005  0.013
   32  0.004  0.002  0.005  0.011
   33  0.020  0.004  0.005  0.029
   34  0.004  0.002  0.005  0.012
   35  0.000  0.004  0.010  0.014
   36  0.000  0.000  0.008  0.008
   37  0.000  0.000  0.000  0.000
   38  0.000  0.000  0.000  0.000
   39  0.000  0.000  0.000  0.000
tot    0.226  0.094  0.384  0.703
 
band    20 # energy   -5.01399747 # occ.  2.00000000
 
ion      s      p      d    tot
    1  0.000  0.005  0.011  0.016
    2  0.017  0.003  0.005  0.025
    3  0.000  0.002  0.005  0.007
    4  0.017  0.003  0.005  0.026
    5  0.000  0.000  0.012  0.012
    6  0.016  0.003  0.006  0.025
    7  0.000  0.002  0.005  0.007
    8  0.016  0.003  0.006  0.024
    9  0.000  0.005  0.008  0.013
   10  0.000  0.003  0.029  0.032
   11  0.001  0.001  0.011  0.014
   12  0.007  0.002  0.011  0.021
   13  0.001  0.001  0.011  0.014
   14  0.000  0.002  0.015  0.017
   15  0.015  0.004  0.011  0.030
   16  0.008  0.002  0.011  0.021
   17  0.014  0.004  0.011  0.030
   18  0.000  0.000  0.022  0.022
   19  0.017  0.004  0.010  0.031
   20  0.000  0.003  0.016  0.018
   21  0.002  0.002  0.012  0.015
   22  0.008  0.002  0.011  0.021
   23  0.002  0.002  0.012  0.015
   24  0.000  0.003  0.026  0.029
   25  0.000  0.000  0.023  0.023
   26  0.017  0.004  0.011  0.031
   27  0.008  0.002  0.011  0.021
   28  0.000  0.005  0.008  0.012
   29  0.014  0.003  0.005  0.022
   30  0.000  0.002  0.005  0.007
   31  0.015  0.003  0.005  0.023
   32  0.016  0.003  0.005  0.024
   33  0.000  0.002  0.005  0.007
   34  0.016  0.003  0.005  0.024
   35  0.000  0.004  0.010  0.014
   36  0.000  0.000  0.008  0.008
   37  0.000  0.000  0.000  0.000
   38  0.000  0.000  0.000  0.000
   39  0.000  0.000  0.000  0.000