PROCAR new format
# of k-points:   10         # of bands:  252         # of ions:   36

 k-point     1 :    0.00000000 0.00000000 0.00000000     weight = 0.01562500

band     1 # energy   -8.75488079 # occ.  2.00000000
 
ion      s      p      d    tot
    1  0.006  0.001  0.000  0.007
    2  0.006  0.001  0.000  0.007
    3  0.006  0.001  0.000  0.007
    4  0.006  0.001  0.000  0.007
    5  0.006  0.001  0.000  0.007
    6  0.006  0.001  0.000  0.007
    7  0.006  0.001  0.000  0.007
    8  0.006  0.001  0.000  0.007
    9  0.006  0.001  0.000  0.007
   10  0.024  0.000  0.000  0.024
   11  0.024  0.000  0.000  0.025
   12  0.024  0.000  0.000  0.024
   13  0.024  0.000  0.000  0.025
   14  0.024  0.000  0.000  0.025
   15  0.024  0.000  0.000  0.024
   16  0.024  0.000  0.000  0.024
   17  0.024  0.000  0.000  0.024
   18  0.024  0.000  0.000  0.024
   19  0.024  0.000  0.000  0.024
   20  0.026  0.000  0.000  0.026
   21  0.026  0.000  0.000  0.026
   22  0.024  0.000  0.000  0.024
   23  0.026  0.000  0.000  0.026
   24  0.024  0.000  0.000  0.024
   25  0.024  0.000  0.000  0.024
   26  0.024  0.000  0.000  0.024
   27  0.024  0.000  0.000  0.024
   28  0.007  0.001  0.000  0.008
   29  0.007  0.001  0.000  0.008
   30  0.007  0.001  0.000  0.008
   31  0.007  0.001  0.000  0.008
   32  0.007  0.001  0.000  0.008
   33  0.007  0.001  0.000  0.008
   34  0.007  0.001  0.000  0.008
   35  0.007  0.001  0.000  0.008
   36  0.014  0.001  0.000  0.016
tot    0.567  0.016  0.001  0.584
 
band     2 # energy   -7.50125140 # occ.  2.00000000
 
ion      s      p      d    tot
    1  0.018  0.001  0.000  0.019
    2  0.017  0.001  0.000  0.019
    3  0.017  0.001  0.000  0.019
    4  0.017  0.001  0.000  0.019
    5  0.017  0.001  0.000  0.018
    6  0.017  0.001  0.000  0.019
    7  0.017  0.001  0.000  0.019
    8  0.017  0.001  0.000  0.019
    9  0.017  0.001  0.000  0.019
   10  0.011  0.002  0.001  0.013
   11  0.011  0.002  0.001  0.013
   12  0.011  0.002  0.001  0.013
   13  0.011  0.002  0.001  0.013
   14  0.011  0.002  0.001  0.013
   15  0.011  0.002  0.001  0.013
   16  0.011  0.002  0.001  0.013
   17  0.011  0.002  0.001  0.013
   18  0.011  0.002  0.001  0.013
   19  0.008  0.002  0.000  0.011
   20  0.009  0.003  0.000  0.012
   21  0.009  0.003  0.000  0.012
   22  0.009  0.002  0.000  0.011
   23  0.009  0.003  0.000  0.012
   24  0.009  0.002  0.000  0.011
   25  0.008  0.002  0.000  0.011
   26  0.008  0.002  0.000  0.011
   27  0.009  0.002  0.000  0.011
   28  0.018  0.001  0.001  0.019
   29  0.019  0.001  0.001  0.021
   30  0.019  0.001  0.001  0.021
   31  0.019  0.001  0.001  0.021
   32  0.019  0.001  0.001  0.021
   33  0.019  0.001  0.001  0.021
   34  0.019  0.001  0.001  0.021
   35  0.017  0.001  0.001  0.019
   36  0.035  0.001  0.002  0.038
tot    0.515  0.053  0.020  0.589
 
band     3 # energy   -5.90042626 # occ.  2.00000000
 
ion      s      p      d    tot
    1  0.016  0.000  0.006  0.022
    2  0.017  0.000  0.006  0.022
    3  0.017  0.000  0.006  0.022
    4  0.017  0.000  0.006  0.022
    5  0.016  0.000  0.006  0.022
    6  0.017  0.000  0.006  0.022
    7  0.017  0.000  0.006  0.022
    8  0.017  0.000  0.006  0.022
    9  0.019  0.000  0.005  0.024
   10  0.004  0.004  0.001  0.009
   11  0.003  0.004  0.002  0.009
   12  0.004  0.004  0.001  0.009
   13  0.003  0.004  0.002  0.009
   14  0.003  0.004  0.002  0.009
   15  0.002  0.004  0.002  0.007
   16  0.004  0.004  0.001  0.009
   17  0.002  0.004  0.002  0.007
   18  0.002  0.004  0.002  0.007
   19  0.007  0.003  0.003  0.013
   20  0.007  0.003  0.005  0.015
   21  0.007  0.003  0.005  0.015
   22  0.004  0.003  0.003  0.010
   23  0.007  0.003  0.005  0.015
   24  0.004  0.003  0.003  0.010
   25  0.007  0.003  0.003  0.013
   26  0.007  0.003  0.003  0.013
   27  0.004  0.003  0.003  0.010
   28  0.013  0.000  0.007  0.020
   29  0.018  0.000  0.008  0.026
   30  0.018  0.000  0.008  0.026
   31  0.018  0.000  0.008  0.026
   32  0.018  0.000  0.008  0.026
   33  0.018  0.000  0.008  0.026
   34  0.018  0.000  0.008  0.026
   35  0.015  0.000  0.006  0.021
   36  0.028  0.001  0.019  0.048
tot    0.394  0.063  0.181  0.638
 
band     4 # energy   -5.77949883 # occ.  2.00000000
 
ion      s      p      d    tot
    1  0.000  0.002  0.005  0.008
    2  0.009  0.002  0.002  0.014
    3  0.002  0.001  0.002  0.004
    4  0.009  0.002  0.002  0.014
    5  0.000  0.002  0.003  0.006
    6  0.003  0.001  0.002  0.006
    7  0.002  0.001  0.002  0.004
    8  0.003  0.001  0.002  0.006
    9  0.000  0.000  0.002  0.002
   10  0.058  0.005  0.004  0.066
   11  0.007  0.010  0.004  0.020
   12  0.014  0.002  0.012  0.029
   13  0.007  0.010  0.004  0.020
   14  0.026  0.000  0.007  0.033
   15  0.001  0.004  0.007  0.013
   16  0.014  0.002  0.012  0.029
   17  0.001  0.004  0.007  0.013
   18  0.006  0.003  0.003  0.011
   19  0.007  0.010  0.004  0.020
   20  0.066  0.004  0.006  0.076
   21  0.017  0.002  0.015  0.034
   22  0.001  0.005  0.007  0.014
   23  0.017  0.002  0.015  0.034
   24  0.006  0.003  0.003  0.012
   25  0.028  0.000  0.007  0.035
   26  0.007  0.010  0.004  0.020
   27  0.001  0.005  0.007  0.014
   28  0.000  0.003  0.004  0.006
   29  0.010  0.003  0.003  0.017
   30  0.004  0.001  0.003  0.008
   31  0.010  0.003  0.003  0.017
   32  0.001  0.001  0.003  0.005
   33  0.004  0.001  0.003  0.008
   34  0.001  0.001  0.003  0.005
   35  0.000  0.000  0.003  0.003
   36  0.000  0.005  0.016  0.020
tot    0.343  0.113  0.191  0.647
 
band     5 # energy   -5.77936056 # occ.  2.00000000
 
ion      s      p      d    tot
    1  0.000  0.002  0.005  0.008
    2  0.000  0.001  0.002  0.003
    3  0.008  0.002  0.002  0.012
    4  0.000  0.001  0.002  0.003
    5  0.000  0.002  0.003  0.005
    6  0.006  0.002  0.002  0.010
    7  0.008  0.002  0.002  0.012
    8  0.006  0.002  0.002  0.010
    9  0.000  0.000  0.002  0.002
   10  0.000  0.002  0.015  0.016
   11  0.020  0.004  0.006  0.029
   12  0.043  0.004  0.006  0.053
   13  0.020  0.004  0.006  0.029
   14  0.000  0.013  0.003  0.016
   15  0.004  0.003  0.004  0.012
   16  0.043  0.004  0.006  0.053
   17  0.005  0.003  0.004  0.012
   18  0.000  0.005  0.009  0.014
   19  0.021  0.003  0.006  0.030
   20  0.000  0.002  0.018  0.019
   21  0.050  0.003  0.009  0.062
   22  0.004  0.003  0.005  0.012
   23  0.050  0.003  0.009  0.062
   24  0.000  0.006  0.009  0.014
   25  0.000  0.013  0.003  0.015
   26  0.021  0.003  0.006  0.030
   27  0.004  0.003  0.005  0.012
   28  0.000  0.003  0.004  0.006
   29  0.000  0.001  0.003  0.004
   30  0.006  0.002  0.004  0.012
   31  0.000  0.001  0.003  0.004
   32  0.009  0.002  0.003  0.015
   33  0.006  0.002  0.004  0.012
   34  0.009  0.002  0.003  0.015
   35  0.000  0.000  0.003  0.003
   36  0.000  0.005  0.016  0.020
tot    0.343  0.113  0.191  0.647
 
band     6 # energy   -5.75949806 # occ.  2.00000000
 
ion      s      p      d    tot
    1  0.001  0.000  0.000  0.001
    2  0.000  0.002  0.004  0.005
    3  0.000  0.002  0.004  0.005
    4  0.000  0.002  0.004  0.005
    5  0.018  0.003  0.001  0.022
    6  0.000  0.002  0.004  0.005
    7  0.000  0.002  0.004  0.005
    8  0.000  0.002  0.004  0.005
    9  0.009  0.002  0.001  0.012
   10  0.001  0.004  0.008  0.013
   11  0.026  0.009  0.002  0.037
   12  0.001  0.004  0.008  0.013
   13  0.026  0.009  0.002  0.037
   14  0.026  0.009  0.002  0.037
   15  0.019  0.001  0.010  0.030
   16  0.001  0.004  0.008  0.013
   17  0.019  0.001  0.010  0.030
   18  0.019  0.001  0.010  0.030
   19  0.010  0.000  0.012  0.021
   20  0.031  0.008  0.005  0.043
   21  0.031  0.008  0.005  0.043
   22  0.008  0.007  0.004  0.019
   23  0.031  0.008  0.005  0.043
   24  0.008  0.007  0.004  0.019
   25  0.010  0.000  0.012  0.021
   26  0.010  0.000  0.012  0.021
   27  0.008  0.007  0.004  0.019
   28  0.004  0.001  0.000  0.006
   29  0.000  0.002  0.004  0.006
   30  0.000  0.002  0.004  0.006
   31  0.000  0.002  0.004  0.006
   32  0.000  0.002  0.004  0.006
   33  0.000  0.002  0.004  0.006
   34  0.000  0.002  0.004  0.006
   35  0.008  0.001  0.000  0.009
   36  0.035  0.005  0.002  0.042
tot    0.359  0.118  0.177  0.654
 
band     7 # energy   -5.73203356 # occ.  2.00000000
 
ion      s      p      d    tot
    1  0.000  0.001  0.002  0.003
    2  0.010  0.002  0.002  0.015
    3  0.002  0.001  0.002  0.005
    4  0.010  0.002  0.002  0.015
    5  0.000  0.001  0.004  0.005
    6  0.003  0.001  0.002  0.007
    7  0.002  0.001  0.002  0.005
    8  0.003  0.001  0.002  0.007
    9  0.000  0.003  0.005  0.008
   10  0.000  0.011  0.003  0.014
   11  0.027  0.003  0.005  0.036
   12  0.001  0.003  0.005  0.010
   13  0.026  0.003  0.005  0.035
   14  0.000  0.000  0.016  0.016
   15  0.040  0.004  0.006  0.050
   16  0.001  0.003  0.005  0.009
   17  0.039  0.004  0.006  0.049
   18  0.000  0.008  0.009  0.017
   19  0.026  0.003  0.005  0.035
   20  0.000  0.013  0.002  0.015
   21  0.002  0.004  0.005  0.011
   22  0.042  0.004  0.006  0.052
   23  0.002  0.004  0.005  0.011
   24  0.000  0.008  0.009  0.017
   25  0.000  0.000  0.016  0.016
   26  0.026  0.003  0.006  0.035
   27  0.043  0.004  0.006  0.052
   28  0.000  0.001  0.005  0.006
   29  0.012  0.003  0.003  0.017
   30  0.003  0.002  0.003  0.008
   31  0.012  0.003  0.003  0.017
   32  0.003  0.001  0.003  0.007
   33  0.003  0.002  0.003  0.008
   34  0.003  0.001  0.003  0.007
   35  0.000  0.004  0.005  0.009
   36  0.000  0.001  0.008  0.009
tot    0.342  0.116  0.179  0.637
 
band     8 # energy   -5.73190972 # occ.  2.00000000
 
ion      s      p      d    tot
    1  0.000  0.001  0.002  0.003
    2  0.000  0.001  0.002  0.003
    3  0.008  0.002  0.002  0.012
    4  0.000  0.001  0.002  0.003
    5  0.000  0.001  0.004  0.005
    6  0.007  0.002  0.002  0.011
    7  0.008  0.002  0.002  0.013
    8  0.007  0.002  0.002  0.011
    9  0.000  0.003  0.005  0.008
   10  0.002  0.001  0.005  0.008
   11  0.009  0.001  0.012  0.022
   12  0.000  0.009  0.003  0.013
   13  0.009  0.001  0.012  0.022
   14  0.035  0.005  0.002  0.042
   15  0.013  0.007  0.008  0.027
   16  0.000  0.009  0.003  0.013
   17  0.013  0.007  0.008  0.028
   18  0.053  0.002  0.005  0.061
   19  0.009  0.001  0.012  0.022
   20  0.003  0.001  0.006  0.009
   21  0.001  0.010  0.003  0.013
   22  0.014  0.007  0.008  0.029
   23  0.001  0.010  0.003  0.013
   24  0.056  0.002  0.005  0.064
   25  0.035  0.005  0.002  0.041
   26  0.009  0.001  0.012  0.023
   27  0.014  0.007  0.008  0.028
   28  0.000  0.001  0.005  0.006
   29  0.000  0.001  0.003  0.004
   30  0.009  0.002  0.003  0.013
   31  0.000  0.001  0.003  0.004
   32  0.009  0.003  0.003  0.015
   33  0.009  0.002  0.003  0.013
   34  0.009  0.003  0.003  0.015
   35  0.000  0.004  0.005  0.009
   36  0.000  0.001  0.008  0.009
tot    0.342  0.116  0.179  0.637
 
band     9 # energy   -5.72171050 # occ.  2.00000000
 
ion      s      p      d    tot
    1  0.023  0.003  0.001  0.027
    2  0.000  0.002  0.004  0.006
    3  0.000  0.002  0.004  0.006
    4  0.000  0.002  0.004  0.006
    5  0.001  0.000  0.001  0.002
    6  0.000  0.002  0.004  0.006
    7  0.000  0.002  0.004  0.006
    8  0.000  0.002  0.004  0.006
    9  0.009  0.002  0.000  0.011
   10  0.030  0.005  0.006  0.041
   11  0.005  0.000  0.012  0.017
   12  0.030  0.005  0.006  0.041
   13  0.005  0.000  0.012  0.017
   14  0.005  0.000  0.012  0.017
   15  0.013  0.008  0.003  0.024
   16  0.030  0.005  0.006  0.041
   17  0.013  0.008  0.003  0.024
   18  0.013  0.008  0.003  0.024
   19  0.021  0.009  0.002  0.032
   20  0.000  0.002  0.011  0.013
   21  0.000  0.002  0.011  0.013
   22  0.025  0.002  0.008  0.036
   23  0.000  0.002  0.011  0.013
   24  0.025  0.002  0.008  0.036
   25  0.021  0.009  0.002  0.032
   26  0.021  0.009  0.002  0.032
   27  0.025  0.002  0.008  0.036
   28  0.019  0.003  0.000  0.021
   29  0.000  0.002  0.004  0.006
   30  0.000  0.002  0.004  0.006
   31  0.000  0.002  0.004  0.006
   32  0.000  0.002  0.004  0.006
   33  0.000  0.002  0.004  0.006
   34  0.000  0.002  0.004  0.006
   35  0.012  0.002  0.001  0.016
   36  0.000  0.000  0.000  0.000
tot    0.344  0.114  0.180  0.638
 
band    10 # energy   -5.04282850 # occ.  2.00000000
 
ion      s      p      d    tot
    1  0.000  0.003  0.009  0.012
    2  0.017  0.003  0.005  0.025
    3  0.001  0.001  0.004  0.007
    4  0.017  0.003  0.005  0.025
    5  0.000  0.000  0.009  0.009
    6  0.010  0.003  0.005  0.017
    7  0.001  0.001  0.004  0.007
    8  0.010  0.003  0.005  0.017
    9  0.000  0.005  0.008  0.013
   10  0.000  0.005  0.015  0.020
   11  0.005  0.002  0.009  0.015
   12  0.005  0.002  0.008  0.015
   13  0.005  0.002  0.009  0.015
   14  0.000  0.002  0.014  0.016
   15  0.019  0.003  0.008  0.030
   16  0.005  0.002  0.008  0.015
   17  0.019  0.003  0.008  0.030
   18  0.000  0.001  0.020  0.021
   19  0.008  0.004  0.009  0.021
   20  0.000  0.003  0.022  0.025
   21  0.000  0.001  0.014  0.015
   22  0.009  0.003  0.008  0.020
   23  0.000  0.001  0.014  0.015
   24  0.000  0.001  0.027  0.028
   25  0.000  0.000  0.011  0.012
   26  0.008  0.004  0.009  0.021
   27  0.009  0.003  0.009  0.020
   28  0.000  0.004  0.008  0.012
   29  0.023  0.003  0.009  0.036
   30  0.001  0.002  0.011  0.014
   31  0.023  0.003  0.009  0.036
   32  0.016  0.002  0.010  0.027
   33  0.001  0.002  0.011  0.014
   34  0.016  0.002  0.010  0.027
   35  0.000  0.006  0.008  0.014
   36  0.000  0.000  0.039  0.039
tot    0.226  0.090  0.389  0.705
 
band    11 # energy   -5.04276711 # occ.  2.00000000
 
ion      s      p      d    tot
    1  0.000  0.003  0.009  0.012
    2  0.001  0.002  0.004  0.008
    3  0.018  0.003  0.005  0.026
    4  0.002  0.002  0.004  0.008
    5  0.000  0.000  0.009  0.009
    6  0.009  0.002  0.004  0.016
    7  0.018  0.003  0.005  0.026
    8  0.009  0.002  0.004  0.015
    9  0.000  0.005  0.008  0.013
   10  0.007  0.000  0.006  0.014
   11  0.002  0.002  0.012  0.016
   12  0.002  0.004  0.013  0.018
   13  0.002  0.002  0.012  0.016
   14  0.006  0.002  0.007  0.015
   15  0.006  0.001  0.016  0.024
   16  0.002  0.004  0.013  0.018
   17  0.006  0.001  0.016  0.024
   18  0.025  0.004  0.004  0.034
   19  0.003  0.001  0.011  0.015
   20  0.000  0.000  0.011  0.012
   21  0.000  0.002  0.019  0.021
   22  0.003  0.002  0.021  0.025
   23  0.000  0.002  0.019  0.021
   24  0.012  0.004  0.002  0.018
   25  0.010  0.005  0.008  0.024
   26  0.003  0.001  0.011  0.015
   27  0.003  0.002  0.021  0.025
   28  0.000  0.004  0.008  0.012
   29  0.003  0.002  0.010  0.016
   30  0.026  0.003  0.009  0.038
   31  0.003  0.002  0.010  0.016
   32  0.011  0.003  0.010  0.024
   33  0.026  0.003  0.009  0.038
   34  0.011  0.003  0.010  0.024
   35  0.000  0.006  0.008  0.014
   36  0.000  0.000  0.039  0.039
tot    0.226  0.090  0.389  0.705
 
band    12 # energy   -5.03547183 # occ.  2.00000000
 
ion      s      p      d    tot
    1  0.000  0.002  0.010  0.012
    2  0.005  0.001  0.010  0.016
    3  0.005  0.001  0.010  0.016
    4  0.005  0.001  0.010  0.016
    5  0.019  0.000  0.007  0.026
    6  0.005  0.001  0.010  0.016
    7  0.005  0.001  0.010  0.016
    8  0.005  0.001  0.010  0.016
    9  0.005  0.001  0.009  0.015
   10  0.012  0.000  0.022  0.034
   11  0.001  0.001  0.022  0.024
   12  0.012  0.000  0.022  0.034
   13  0.001  0.001  0.022  0.024
   14  0.001  0.001  0.022  0.024
   15  0.009  0.000  0.022  0.031
   16  0.012  0.000  0.022  0.034
   17  0.009  0.000  0.022  0.031
   18  0.009  0.000  0.022  0.031
   19  0.010  0.001  0.017  0.028
   20  0.002  0.000  0.028  0.030
   21  0.002  0.000  0.028  0.030
   22  0.004  0.000  0.016  0.020
   23  0.002  0.000  0.028  0.030
   24  0.004  0.000  0.016  0.019
   25  0.011  0.001  0.017  0.029
   26  0.010  0.001  0.017  0.028
   27  0.004  0.000  0.016  0.020
   28  0.001  0.002  0.006  0.008
   29  0.003  0.001  0.010  0.013
   30  0.003  0.001  0.010  0.013
   31  0.003  0.001  0.010  0.013
   32  0.003  0.001  0.010  0.013
   33  0.003  0.001  0.010  0.013
   34  0.003  0.001  0.010  0.013
   35  0.001  0.001  0.004  0.006
   36  0.022  0.000  0.012  0.035
tot    0.210  0.022  0.545  0.778
 
band    13 # energy   -4.99315138 # occ.  2.00000000
 
ion      s      p      d    tot
    1  0.022  0.001  0.001  0.024
    2  0.001  0.003  0.010  0.013
    3  0.001  0.003  0.010  0.013
    4  0.001  0.003  0.010  0.013
    5  0.026  0.005  0.003  0.034
    6  0.001  0.003  0.010  0.013
    7  0.001  0.003  0.010  0.013
    8  0.001  0.003  0.010  0.013
    9  0.008  0.000  0.000  0.009
   10  0.000  0.002  0.021  0.023
   11  0.017  0.004  0.011  0.032
   12  0.000  0.002  0.021  0.023
   13  0.017  0.004  0.011  0.032
   14  0.017  0.004  0.011  0.032
   15  0.001  0.001  0.012  0.013
   16  0.000  0.002  0.021  0.023
   17  0.001  0.001  0.012  0.013
   18  0.001  0.001  0.012  0.013
   19  0.002  0.002  0.010  0.014
   20  0.013  0.005  0.022  0.039
   21  0.013  0.005  0.022  0.039
   22  0.000  0.000  0.017  0.018
   23  0.013  0.005  0.022  0.039
   24  0.000  0.000  0.017  0.018
   25  0.002  0.002  0.010  0.014
   26  0.002  0.002  0.010  0.014
   27  0.000  0.000  0.017  0.018
   28  0.023  0.001  0.000  0.025
   29  0.001  0.003  0.010  0.014
   30  0.001  0.003  0.010  0.014
   31  0.001  0.003  0.010  0.014
   32  0.001  0.003  0.010  0.014
   33  0.001  0.003  0.010  0.014
   34  0.001  0.003  0.010  0.014
   35  0.008  0.000  0.001  0.010
   36  0.042  0.007  0.005  0.054
tot    0.238  0.085  0.411  0.734
 
band    14 # energy   -4.98023373 # occ.  2.00000000
 
ion      s      p      d    tot
    1  0.000  0.003  0.009  0.013
    2  0.021  0.004  0.006  0.031
    3  0.002  0.002  0.005  0.009
    4  0.021  0.004  0.006  0.030
    5  0.000  0.006  0.010  0.016
    6  0.010  0.003  0.006  0.019
    7  0.002  0.002  0.005  0.009
    8  0.010  0.003  0.006  0.019
    9  0.000  0.000  0.013  0.013
   10  0.019  0.005  0.008  0.032
   11  0.004  0.003  0.022  0.029
   12  0.005  0.001  0.018  0.023
   13  0.004  0.003  0.022  0.029
   14  0.017  0.003  0.005  0.025
   15  0.000  0.003  0.015  0.018
   16  0.005  0.001  0.017  0.024
   17  0.000  0.003  0.015  0.018
   18  0.000  0.000  0.009  0.009
   19  0.001  0.002  0.018  0.021
   20  0.021  0.006  0.004  0.031
   21  0.005  0.002  0.025  0.032
   22  0.001  0.002  0.012  0.014
   23  0.005  0.002  0.024  0.032
   24  0.006  0.003  0.009  0.018
   25  0.004  0.001  0.006  0.010
   26  0.001  0.002  0.018  0.021
   27  0.001  0.002  0.011  0.014
   28  0.000  0.003  0.010  0.013
   29  0.017  0.003  0.007  0.027
   30  0.001  0.001  0.005  0.007
   31  0.016  0.003  0.007  0.026
   32  0.010  0.002  0.007  0.019
   33  0.001  0.001  0.005  0.007
   34  0.010  0.003  0.007  0.019
   35  0.000  0.000  0.010  0.010
   36  0.000  0.009  0.014  0.023
tot    0.220  0.095  0.395  0.710
 
band    15 # energy   -4.98014495 # occ.  2.00000000
 
ion      s      p      d    tot
    1  0.000  0.003  0.009  0.013
    2  0.001  0.002  0.005  0.008
    3  0.020  0.004  0.006  0.030
    4  0.001  0.002  0.005  0.008
    5  0.000  0.006  0.010  0.016
    6  0.012  0.003  0.005  0.020
    7  0.020  0.004  0.006  0.030
    8  0.012  0.003  0.005  0.020
    9  0.000  0.000  0.013  0.013
   10  0.000  0.000  0.020  0.021
   11  0.013  0.003  0.011  0.027
   12  0.014  0.004  0.011  0.029
   13  0.013  0.003  0.011  0.026
   14  0.000  0.002  0.028  0.030
   15  0.000  0.001  0.011  0.012
   16  0.014  0.004  0.012  0.029
   17  0.000  0.001  0.011  0.012
   18  0.000  0.004  0.017  0.020
   19  0.003  0.001  0.010  0.014
   20  0.000  0.001  0.031  0.032
   21  0.016  0.004  0.011  0.031
   22  0.004  0.002  0.010  0.017
   23  0.016  0.004  0.011  0.031
   24  0.000  0.001  0.012  0.013
   25  0.000  0.003  0.022  0.025
   26  0.003  0.001  0.010  0.014
   27  0.004  0.002  0.010  0.017
   28  0.000  0.003  0.010  0.013
   29  0.002  0.001  0.006  0.009
   30  0.017  0.004  0.007  0.028
   31  0.002  0.001  0.006  0.009
   32  0.008  0.002  0.005  0.016
   33  0.017  0.004  0.007  0.028
   34  0.008  0.002  0.005  0.016
   35  0.000  0.000  0.010  0.010
   36  0.000  0.009  0.014  0.023
tot    0.220  0.095  0.395  0.710
 
band    16 # energy   -4.97012893 # occ.  2.00000000
 
ion      s      p      d    tot
    1  0.024  0.002  0.000  0.026
    2  0.000  0.003  0.010  0.013
    3  0.000  0.003  0.010  0.013
    4  0.000  0.003  0.010  0.013
    5  0.004  0.000  0.000  0.004
    6  0.000  0.003  0.010  0.013
    7  0.000  0.003  0.010  0.013
    8  0.000  0.003  0.010  0.013
    9  0.037  0.004  0.001  0.042
   10  0.007  0.002  0.010  0.019
   11  0.000  0.000  0.017  0.017
   12  0.007  0.002  0.010  0.019
   13  0.000  0.000  0.017  0.017
   14  0.000  0.000  0.017  0.017
   15  0.010  0.004  0.016  0.030
   16  0.007  0.002  0.010  0.019
   17  0.010  0.004  0.016  0.030
   18  0.010  0.004  0.016  0.030
   19  0.003  0.003  0.018  0.023
   20  0.001  0.000  0.013  0.015
   21  0.001  0.000  0.013  0.015
   22  0.013  0.004  0.011  0.028
   23  0.001  0.000  0.013  0.015
   24  0.013  0.004  0.011  0.028
   25  0.003  0.003  0.018  0.023
   26  0.003  0.003  0.018  0.023
   27  0.013  0.004  0.011  0.028
   28  0.026  0.002  0.000  0.029
   29  0.000  0.003  0.011  0.014
   30  0.000  0.003  0.011  0.014
   31  0.000  0.003  0.011  0.014
   32  0.000  0.003  0.011  0.014
   33  0.000  0.003  0.011  0.014
   34  0.000  0.003  0.011  0.014
   35  0.036  0.004  0.001  0.042
   36  0.003  0.000  0.000  0.003
tot    0.228  0.091  0.386  0.705
 
band    17 # energy   -4.42171577 # occ.  2.00000000
 
ion      s      p      d    tot
    1  0.000  0.001  0.027  0.028
    2  0.015  0.002  0.007  0.024
    3  0.007  0.001  0.007  0.015
    4  0.015  0.002  0.007  0.024
    5  0.000  0.001  0.012  0.013
    6  0.002  0.001  0.007  0.010
    7  0.007  0.001  0.007  0.015
    8  0.001  0.001  0.007  0.010
    9  0.000  0.003  0.004  0.008
   10  0.000  0.000  0.059  0.059
   11  0.000  0.003  0.015  0.019
   12  0.000  0.000  0.019  0.020
   13  0.000  0.003  0.015  0.019
   14  0.000  0.000  0.004  0.004
   15  0.000  0.005  0.015  0.020
   16  0.000  0.000  0.019  0.019
   17  0.000  0.005  0.015  0.020
   18  0.000  0.000  0.029  0.029
   19  0.005  0.003  0.011  0.019
   20  0.000  0.000  0.065  0.066
   21  0.000  0.000  0.028  0.028
   22  0.003  0.002  0.015  0.020
   23  0.000  0.000  0.027  0.028
   24  0.000  0.000  0.012  0.012
   25  0.000  0.000  0.018  0.018
   26  0.005  0.003  0.011  0.019
   27  0.003  0.002  0.015  0.020
   28  0.000  0.001  0.005  0.006
   29  0.008  0.000  0.021  0.029
   30  0.000  0.001  0.018  0.019
   31  0.008  0.000  0.021  0.029
   32  0.010  0.000  0.019  0.029
   33  0.000  0.001  0.018  0.019
   34  0.010  0.000  0.019  0.029
   35  0.000  0.001  0.007  0.008
   36  0.000  0.000  0.060  0.060
tot    0.097  0.043  0.669  0.810
 
band    18 # energy   -4.42164191 # occ.  2.00000000
 
ion      s      p      d    tot
    1  0.000  0.001  0.027  0.028
    2  0.001  0.001  0.007  0.009
    3  0.009  0.001  0.007  0.017
    4  0.001  0.001  0.007  0.009
    5  0.000  0.001  0.012  0.013
    6  0.014  0.001  0.007  0.023
    7  0.009  0.001  0.007  0.017
    8  0.014  0.001  0.007  0.023
    9  0.000  0.003  0.004  0.008
   10  0.000  0.000  0.006  0.006
   11  0.000  0.001  0.008  0.009
   12  0.000  0.000  0.046  0.046
   13  0.000  0.001  0.008  0.009
   14  0.000  0.005  0.019  0.023
   15  0.000  0.002  0.024  0.026
   16  0.000  0.000  0.046  0.046
   17  0.000  0.002  0.024  0.026
   18  0.000  0.006  0.010  0.017
   19  0.002  0.001  0.016  0.018
   20  0.000  0.000  0.015  0.016
   21  0.000  0.000  0.053  0.053
   22  0.001  0.001  0.013  0.015
   23  0.000  0.000  0.053  0.053
   24  0.004  0.002  0.016  0.022
   25  0.007  0.003  0.009  0.019
   26  0.002  0.001  0.016  0.018
   27  0.001  0.001  0.013  0.015
   28  0.000  0.001  0.005  0.006
   29  0.004  0.001  0.018  0.022
   30  0.012  0.000  0.021  0.033
   31  0.004  0.001  0.018  0.022
   32  0.002  0.001  0.019  0.022
   33  0.012  0.000  0.021  0.033
   34  0.002  0.001  0.019  0.022
   35  0.000  0.001  0.007  0.008
   36  0.000  0.000  0.060  0.060
tot    0.097  0.043  0.669  0.810
 
band    19 # energy   -4.32036458 # occ.  2.00000000
 
ion      s      p      d    tot
    1  0.023  0.001  0.000  0.024
    2  0.000  0.001  0.017  0.018
    3  0.000  0.001  0.017  0.018
    4  0.000  0.001  0.017  0.018
    5  0.022  0.001  0.002  0.024
    6  0.000  0.001  0.017  0.018
    7  0.000  0.001  0.017  0.018
    8  0.000  0.001  0.017  0.018
    9  0.000  0.000  0.000  0.000
   10  0.000  0.002  0.030  0.031
   11  0.000  0.003  0.033  0.037
   12  0.000  0.002  0.030  0.031
   13  0.000  0.003  0.033  0.037
   14  0.000  0.003  0.033  0.037
   15  0.000  0.000  0.004  0.004
   16  0.000  0.002  0.030  0.031
   17  0.000  0.000  0.004  0.004
   18  0.000  0.000  0.004  0.004
   19  0.001  0.002  0.012  0.015
   20  0.001  0.003  0.038  0.042
   21  0.001  0.003  0.038  0.042
   22  0.000  0.001  0.016  0.016
   23  0.001  0.003  0.038  0.042
   24  0.000  0.001  0.016  0.016
   25  0.001  0.002  0.012  0.015
   26  0.001  0.002  0.012  0.015
   27  0.000  0.001  0.016  0.016
   28  0.004  0.000  0.004  0.008
   29  0.000  0.002  0.024  0.026
   30  0.000  0.002  0.024  0.026
   31  0.000  0.002  0.024  0.026
   32  0.000  0.002  0.024  0.026
   33  0.000  0.002  0.024  0.026
   34  0.000  0.002  0.024  0.026
   35  0.016  0.000  0.001  0.018
   36  0.032  0.000  0.005  0.037
tot    0.107  0.052  0.654  0.813
 
band    20 # energy   -4.28424355 # occ.  2.00000000
 
ion      s      p      d    tot
    1  0.007  0.000  0.001  0.009
    2  0.000  0.001  0.017  0.018
    3  0.000  0.001  0.017  0.018
    4  0.000  0.001  0.017  0.018
    5  0.007  0.000  0.000  0.007
    6  0.000  0.001  0.017  0.018
    7  0.000  0.001  0.017  0.018
    8  0.000  0.001  0.017  0.018
    9  0.028  0.001  0.001  0.031
   10  0.001  0.002  0.016  0.018
   11  0.000  0.000  0.011  0.011
   12  0.001  0.002  0.016  0.018
   13  0.000  0.000  0.011  0.011
   14  0.000  0.000  0.011  0.011
   15  0.000  0.003  0.037  0.041
   16  0.001  0.002  0.016  0.018
   17  0.000  0.003  0.038  0.041
   18  0.000  0.003  0.038  0.041
   19  0.000  0.002  0.032  0.034
   20  0.000  0.000  0.011  0.011
   21  0.000  0.000  0.011  0.011
   22  0.001  0.003  0.028  0.032
   23  0.000  0.000  0.011  0.011
   24  0.001  0.003  0.028  0.032
   25  0.000  0.002  0.032  0.034
   26  0.000  0.002  0.032  0.034
   27  0.001  0.003  0.028  0.032
   28  0.025  0.001  0.002  0.028
   29  0.000  0.001  0.024  0.025
   30  0.000  0.001  0.023  0.025
   31  0.000  0.001  0.024  0.025
   32  0.000  0.001  0.024  0.025
   33  0.000  0.001  0.023  0.025
   34  0.000  0.001  0.024  0.025
   35  0.021  0.000  0.004  0.025
   36  0.001  0.000  0.001  0.002
tot    0.097  0.050  0.656  0.802
 
band    21 # energy   -4.27671527 # occ.  2.00000000
 
ion      s      p      d    tot
    1  0.000  0.002  0.001  0.004
    2  0.014  0.001  0.010  0.025
    3  0.008  0.001  0.009  0.018
    4  0.014  0.001  0.010  0.025
    5  0.000  0.002  0.021  0.023
    6  0.001  0.001  0.009  0.011
    7  0.008  0.001  0.009  0.018
    8  0.001  0.001  0.009  0.011
    9  0.000  0.000  0.031  0.031
   10  0.001  0.007  0.021  0.029
   11  0.000  0.001  0.040  0.040
   12  0.000  0.002  0.011  0.013
   13  0.000  0.001  0.040  0.040
   14  0.001  0.002  0.004  0.007
   15  0.000  0.000  0.030  0.030
   16  0.000  0.002  0.011  0.013
   17  0.000  0.000  0.030  0.030
   18  0.000  0.001  0.011  0.013
   19  0.000  0.000  0.045  0.046
   20  0.002  0.007  0.023  0.031
   21  0.000  0.002  0.016  0.018
   22  0.000  0.001  0.023  0.024
   23  0.000  0.002  0.016  0.018
   24  0.000  0.002  0.014  0.017
   25  0.001  0.001  0.003  0.005
   26  0.000  0.000  0.045  0.046
   27  0.000  0.001  0.023  0.024
   28  0.000  0.002  0.031  0.033
   29  0.013  0.001  0.013  0.027
   30  0.000  0.001  0.011  0.012
   31  0.013  0.001  0.013  0.027
   32  0.011  0.001  0.012  0.023
   33  0.000  0.001  0.011  0.012
   34  0.011  0.001  0.012  0.023
   35  0.000  0.000  0.030  0.031
   36  0.000  0.004  0.000  0.004
tot    0.099  0.053  0.648  0.801
 
band    22 # energy   -4.27660849 # occ.  2.00000000
 
ion      s      p      d    tot
    1  0.000  0.002  0.001  0.004
    2  0.001  0.001  0.009  0.011
    3  0.007  0.001  0.010  0.018
    4  0.001  0.001  0.009  0.011
    5  0.000  0.002  0.021  0.023
    6  0.014  0.001  0.010  0.025
    7  0.007  0.001  0.010  0.018
    8  0.014  0.001  0.010  0.025
    9  0.000  0.000  0.031  0.031
   10  0.000  0.000  0.008  0.008
   11  0.001  0.002  0.016  0.019
   12  0.001  0.005  0.018  0.024
   13  0.001  0.002  0.016  0.018
   14  0.000  0.000  0.051  0.051
   15  0.000  0.001  0.018  0.019
   16  0.001  0.005  0.018  0.024