PROCAR new format
# of k-points:   10         # of bands:  252         # of ions:   38

 k-point     1 :    0.00000000 0.00000000 0.00000000     weight = 0.01562500

band     1 # energy  -19.50958122 # occ.  2.00000000
 
ion      s      p      d    tot
    1  0.000  0.000  0.000  0.000
    2  0.000  0.000  0.000  0.000
    3  0.000  0.000  0.000  0.000
    4  0.000  0.000  0.000  0.000
    5  0.000  0.000  0.000  0.000
    6  0.000  0.000  0.000  0.000
    7  0.000  0.000  0.000  0.000
    8  0.000  0.000  0.000  0.000
    9  0.000  0.000  0.000  0.000
   10  0.000  0.000  0.000  0.000
   11  0.000  0.000  0.000  0.000
   12  0.000  0.000  0.000  0.000
   13  0.000  0.000  0.000  0.000
   14  0.000  0.000  0.000  0.000
   15  0.000  0.000  0.000  0.000
   16  0.000  0.000  0.000  0.000
   17  0.000  0.000  0.000  0.000
   18  0.000  0.000  0.000  0.000
   19  0.000  0.000  0.000  0.000
   20  0.000  0.000  0.000  0.000
   21  0.000  0.000  0.000  0.000
   22  0.000  0.000  0.000  0.000
   23  0.000  0.000  0.000  0.000
   24  0.000  0.000  0.000  0.000
   25  0.000  0.000  0.000  0.000
   26  0.000  0.000  0.000  0.000
   27  0.000  0.000  0.000  0.000
   28  0.000  0.000  0.000  0.000
   29  0.000  0.000  0.000  0.000
   30  0.000  0.000  0.000  0.000
   31  0.000  0.000  0.000  0.000
   32  0.000  0.000  0.000  0.000
   33  0.000  0.000  0.000  0.000
   34  0.000  0.000  0.000  0.000
   35  0.000  0.000  0.000  0.000
   36  0.009  0.011  0.013  0.033
   37  0.743  0.016  0.000  0.759
   38  0.117  0.024  0.000  0.140
tot    0.868  0.051  0.013  0.932
 
band     2 # energy   -7.95087793 # occ.  2.00000000
 
ion      s      p      d    tot
    1  0.000  0.000  0.000  0.000
    2  0.000  0.000  0.000  0.000
    3  0.000  0.000  0.000  0.000
    4  0.000  0.000  0.000  0.000
    5  0.000  0.000  0.000  0.000
    6  0.000  0.000  0.000  0.000
    7  0.000  0.000  0.000  0.000
    8  0.000  0.000  0.000  0.000
    9  0.000  0.000  0.000  0.000
   10  0.000  0.000  0.000  0.000
   11  0.000  0.000  0.000  0.000
   12  0.000  0.000  0.000  0.000
   13  0.000  0.000  0.000  0.000
   14  0.000  0.000  0.000  0.000
   15  0.000  0.000  0.000  0.000
   16  0.000  0.000  0.000  0.000
   17  0.000  0.000  0.000  0.000
   18  0.000  0.000  0.000  0.000
   19  0.000  0.000  0.000  0.000
   20  0.001  0.000  0.001  0.001
   21  0.001  0.000  0.001  0.001
   22  0.000  0.000  0.000  0.000
   23  0.001  0.000  0.001  0.001
   24  0.000  0.000  0.000  0.000
   25  0.000  0.000  0.000  0.000
   26  0.000  0.000  0.000  0.000
   27  0.000  0.000  0.000  0.000
   28  0.000  0.000  0.000  0.000
   29  0.000  0.000  0.000  0.001
   30  0.000  0.000  0.000  0.001
   31  0.000  0.000  0.000  0.001
   32  0.000  0.000  0.000  0.001
   33  0.000  0.000  0.000  0.001
   34  0.000  0.000  0.000  0.001
   35  0.000  0.000  0.000  0.000
   36  0.049  0.035  0.094  0.177
   37  0.027  0.534  0.000  0.561
   38  0.178  0.018  0.000  0.196
tot    0.258  0.588  0.099  0.945
 
band     3 # energy   -6.08213618 # occ.  2.00000000
 
ion      s      p      d    tot
    1  0.006  0.001  0.000  0.007
    2  0.006  0.001  0.000  0.007
    3  0.006  0.001  0.000  0.007
    4  0.006  0.001  0.000  0.007
    5  0.006  0.001  0.000  0.007
    6  0.006  0.001  0.000  0.007
    7  0.006  0.001  0.000  0.007
    8  0.006  0.001  0.000  0.007
    9  0.006  0.001  0.000  0.007
   10  0.024  0.000  0.000  0.024
   11  0.024  0.000  0.000  0.025
   12  0.024  0.000  0.000  0.024
   13  0.024  0.000  0.000  0.025
   14  0.024  0.000  0.000  0.025
   15  0.024  0.000  0.000  0.025
   16  0.024  0.000  0.000  0.024
   17  0.024  0.000  0.000  0.025
   18  0.024  0.000  0.000  0.025
   19  0.022  0.000  0.000  0.023
   20  0.023  0.000  0.000  0.024
   21  0.023  0.000  0.000  0.024
   22  0.023  0.000  0.000  0.023
   23  0.023  0.000  0.000  0.023
   24  0.023  0.000  0.000  0.023
   25  0.022  0.000  0.000  0.023
   26  0.022  0.000  0.000  0.023
   27  0.023  0.000  0.000  0.023
   28  0.005  0.001  0.000  0.006
   29  0.005  0.001  0.000  0.005
   30  0.005  0.001  0.000  0.005
   31  0.005  0.001  0.000  0.005
   32  0.005  0.001  0.000  0.005
   33  0.005  0.001  0.000  0.005
   34  0.005  0.001  0.000  0.005
   35  0.005  0.001  0.000  0.006
   36  0.002  0.002  0.001  0.004
   37  0.000  0.002  0.000  0.003
   38  0.001  0.000  0.000  0.001
tot    0.520  0.016  0.008  0.544
 
band     4 # energy   -5.21161038 # occ.  2.00000000
 
ion      s      p      d    tot
    1  0.008  0.000  0.000  0.009
    2  0.008  0.000  0.000  0.008
    3  0.008  0.000  0.000  0.008
    4  0.008  0.000  0.000  0.008
    5  0.007  0.000  0.000  0.008
    6  0.008  0.000  0.000  0.008
    7  0.008  0.000  0.000  0.008
    8  0.008  0.000  0.000  0.008
    9  0.008  0.000  0.000  0.008
   10  0.011  0.001  0.015  0.027
   11  0.010  0.001  0.015  0.026
   12  0.011  0.001  0.015  0.027
   13  0.010  0.001  0.015  0.026
   14  0.010  0.001  0.015  0.026
   15  0.010  0.001  0.015  0.026
   16  0.011  0.001  0.015  0.027
   17  0.010  0.001  0.015  0.026
   18  0.010  0.001  0.015  0.026
   19  0.013  0.001  0.018  0.032
   20  0.013  0.001  0.020  0.034
   21  0.013  0.001  0.020  0.034
   22  0.014  0.001  0.017  0.032
   23  0.013  0.001  0.020  0.034
   24  0.014  0.001  0.017  0.032
   25  0.013  0.001  0.018  0.032
   26  0.013  0.001  0.018  0.032
   27  0.014  0.001  0.017  0.032
   28  0.007  0.000  0.000  0.007
   29  0.006  0.000  0.000  0.006
   30  0.006  0.000  0.000  0.006
   31  0.006  0.000  0.000  0.006
   32  0.006  0.000  0.000  0.006
   33  0.006  0.000  0.000  0.006
   34  0.006  0.000  0.000  0.006
   35  0.006  0.000  0.000  0.007
   36  0.002  0.001  0.001  0.004
   37  0.000  0.001  0.000  0.002
   38  0.000  0.000  0.000  0.000
tot    0.328  0.026  0.307  0.661
 
band     5 # energy   -4.93383613 # occ.  2.00000000
 
ion      s      p      d    tot
    1  0.017  0.000  0.028  0.045
    2  0.017  0.000  0.027  0.044
    3  0.017  0.000  0.027  0.044
    4  0.017  0.000  0.027  0.044
    5  0.016  0.000  0.027  0.043
    6  0.017  0.000  0.027  0.043
    7  0.017  0.000  0.027  0.044
    8  0.017  0.000  0.027  0.043
    9  0.017  0.000  0.027  0.044
   10  0.000  0.001  0.022  0.023
   11  0.001  0.001  0.022  0.023
   12  0.000  0.001  0.022  0.023
   13  0.001  0.001  0.022  0.023
   14  0.001  0.001  0.022  0.023
   15  0.001  0.001  0.023  0.024
   16  0.000  0.001  0.022  0.023
   17  0.001  0.001  0.023  0.024
   18  0.001  0.001  0.023  0.024
   19  0.000  0.000  0.006  0.006
   20  0.000  0.000  0.008  0.008
   21  0.000  0.000  0.008  0.008
   22  0.000  0.000  0.009  0.009
   23  0.000  0.000  0.008  0.008
   24  0.000  0.000  0.009  0.009
   25  0.000  0.000  0.006  0.006
   26  0.000  0.000  0.006  0.006
   27  0.000  0.000  0.009  0.009
   28  0.005  0.000  0.005  0.010
   29  0.005  0.000  0.005  0.010
   30  0.005  0.000  0.005  0.010
   31  0.005  0.000  0.005  0.010
   32  0.005  0.000  0.005  0.010
   33  0.005  0.000  0.005  0.010
   34  0.005  0.000  0.005  0.010
   35  0.006  0.000  0.006  0.011
   36  0.002  0.000  0.002  0.004
   37  0.000  0.000  0.000  0.000
   38  0.000  0.000  0.000  0.000
tot    0.196  0.007  0.558  0.760
 
band     6 # energy   -4.82285972 # occ.  2.00000000
 
ion      s      p      d    tot
    1  0.003  0.001  0.004  0.008
    2  0.000  0.000  0.004  0.004
    3  0.000  0.000  0.004  0.004
    4  0.000  0.000  0.004  0.004
    5  0.000  0.000  0.000  0.000
    6  0.000  0.000  0.004  0.004
    7  0.000  0.000  0.004  0.004
    8  0.000  0.000  0.004  0.004
    9  0.002  0.001  0.004  0.007
   10  0.003  0.000  0.058  0.061
   11  0.003  0.001  0.017  0.021
   12  0.003  0.000  0.058  0.061
   13  0.003  0.001  0.017  0.021
   14  0.003  0.001  0.017  0.021
   15  0.013  0.001  0.024  0.038
   16  0.003  0.000  0.058  0.061
   17  0.013  0.001  0.024  0.038
   18  0.013  0.001  0.024  0.038
   19  0.000  0.001  0.031  0.032
   20  0.009  0.000  0.058  0.066
   21  0.009  0.000  0.057  0.066
   22  0.011  0.001  0.011  0.023
   23  0.009  0.000  0.057  0.066
   24  0.011  0.001  0.011  0.023
   25  0.000  0.001  0.031  0.032
   26  0.000  0.001  0.031  0.032
   27  0.011  0.001  0.011  0.023
   28  0.000  0.000  0.001  0.001
   29  0.000  0.000  0.005  0.005
   30  0.000  0.000  0.005  0.005
   31  0.000  0.000  0.005  0.005
   32  0.000  0.000  0.005  0.005
   33  0.000  0.000  0.005  0.005
   34  0.000  0.000  0.005  0.005
   35  0.001  0.001  0.002  0.004
   36  0.002  0.002  0.000  0.004
   37  0.000  0.001  0.000  0.001
   38  0.000  0.000  0.000  0.000
tot    0.123  0.018  0.664  0.805
 
band     7 # energy   -4.81257357 # occ.  2.00000000
 
ion      s      p      d    tot
    1  0.001  0.000  0.001  0.002
    2  0.000  0.000  0.006  0.006
    3  0.000  0.000  0.006  0.006
    4  0.000  0.000  0.006  0.006
    5  0.006  0.001  0.003  0.010
    6  0.000  0.000  0.006  0.006
    7  0.000  0.000  0.006  0.006
    8  0.000  0.000  0.006  0.006
    9  0.001  0.000  0.004  0.005
   10  0.009  0.001  0.003  0.014
   11  0.012  0.000  0.041  0.053
   12  0.009  0.001  0.003  0.013
   13  0.012  0.000  0.041  0.053
   14  0.011  0.000  0.041  0.053
   15  0.000  0.000  0.047  0.048
   16  0.009  0.001  0.003  0.013
   17  0.000  0.000  0.047  0.048
   18  0.000  0.000  0.048  0.048
   19  0.014  0.001  0.019  0.034
   20  0.004  0.001  0.019  0.023
   21  0.003  0.001  0.018  0.023
   22  0.002  0.000  0.060  0.063
   23  0.003  0.001  0.018  0.023
   24  0.002  0.000  0.060  0.063
   25  0.014  0.001  0.019  0.034
   26  0.014  0.001  0.019  0.034
   27  0.002  0.000  0.060  0.063
   28  0.004  0.001  0.004  0.009
   29  0.000  0.000  0.004  0.004
   30  0.000  0.000  0.004  0.004
   31  0.000  0.000  0.004  0.004
   32  0.000  0.000  0.004  0.004
   33  0.000  0.000  0.004  0.004
   34  0.000  0.000  0.004  0.004
   35  0.003  0.001  0.006  0.009
   36  0.000  0.000  0.000  0.000
   37  0.000  0.000  0.000  0.000
   38  0.000  0.000  0.000  0.000
tot    0.136  0.017  0.645  0.798
 
band     8 # energy   -4.80898054 # occ.  2.00000000
 
ion      s      p      d    tot
    1  0.000  0.000  0.000  0.000
    2  0.001  0.000  0.005  0.006
    3  0.002  0.001  0.006  0.008
    4  0.001  0.000  0.005  0.005
    5  0.000  0.000  0.006  0.006
    6  0.000  0.000  0.003  0.003
    7  0.002  0.001  0.006  0.008
    8  0.000  0.000  0.003  0.003
    9  0.000  0.000  0.009  0.009
   10  0.002  0.000  0.035  0.037
   11  0.004  0.000  0.077  0.081
   12  0.000  0.001  0.025  0.027
   13  0.004  0.000  0.076  0.080
   14  0.016  0.001  0.004  0.021
   15  0.007  0.001  0.039  0.046
   16  0.000  0.001  0.025  0.027
   17  0.007  0.001  0.038  0.046
   18  0.028  0.001  0.024  0.052
   19  0.003  0.000  0.043  0.046
   20  0.001  0.000  0.029  0.030
   21  0.000  0.001  0.025  0.026
   22  0.005  0.001  0.027  0.033
   23  0.000  0.001  0.025  0.026
   24  0.019  0.001  0.020  0.040
   25  0.012  0.001  0.006  0.019
   26  0.003  0.000  0.043  0.046
   27  0.005  0.001  0.027  0.033
   28  0.000  0.000  0.005  0.005
   29  0.001  0.000  0.003  0.004
   30  0.000  0.000  0.002  0.002
   31  0.001  0.000  0.003  0.004
   32  0.002  0.000  0.003  0.005
   33  0.000  0.000  0.002  0.002
   34  0.002  0.000  0.003  0.005
   35  0.000  0.000  0.007  0.008
   36  0.000  0.000  0.000  0.000
   37  0.000  0.000  0.000  0.000
   38  0.000  0.000  0.000  0.000
tot    0.125  0.017  0.660  0.802
 
band     9 # energy   -4.80896467 # occ.  2.00000000
 
ion      s      p      d    tot
    1  0.000  0.000  0.000  0.000
    2  0.001  0.001  0.004  0.006
    3  0.000  0.000  0.003  0.003
    4  0.001  0.001  0.004  0.006
    5  0.000  0.000  0.006  0.006
    6  0.002  0.001  0.006  0.008
    7  0.000  0.000  0.003  0.003
    8  0.002  0.001  0.006  0.008
    9  0.000  0.000  0.009  0.009
   10  0.000  0.001  0.022  0.023
   11  0.012  0.001  0.028  0.040
   12  0.001  0.000  0.032  0.033
   13  0.012  0.001  0.029  0.041
   14  0.000  0.000  0.100  0.100
   15  0.021  0.001  0.029  0.050
   16  0.001  0.000  0.032  0.034
   17  0.020  0.001  0.029  0.050
   18  0.000  0.001  0.043  0.044
   19  0.009  0.001  0.018  0.028
   20  0.000  0.001  0.024  0.025
   21  0.001  0.000  0.028  0.029
   22  0.014  0.001  0.023  0.038
   23  0.001  0.000  0.028  0.029
   24  0.000  0.001  0.029  0.030
   25  0.000  0.000  0.056  0.056
   26  0.009  0.001  0.019  0.028
   27  0.014  0.001  0.023  0.038
   28  0.000  0.000  0.005  0.005
   29  0.001  0.000  0.003  0.004
   30  0.002  0.000  0.004  0.006
   31  0.001  0.000  0.003  0.004
   32  0.000  0.000  0.002  0.003
   33  0.002  0.000  0.004  0.006
   34  0.000  0.000  0.002  0.003
   35  0.000  0.000  0.007  0.008
   36  0.000  0.000  0.000  0.000
   37  0.000  0.000  0.000  0.000
   38  0.000  0.000  0.000  0.000
tot    0.125  0.017  0.660  0.802
 
band    10 # energy   -4.80564644 # occ.  2.00000000
 
ion      s      p      d    tot
    1  0.000  0.000  0.009  0.010
    2  0.001  0.000  0.004  0.005
    3  0.001  0.001  0.005  0.007
    4  0.001  0.000  0.004  0.005
    5  0.000  0.000  0.005  0.005
    6  0.000  0.000  0.003  0.003
    7  0.002  0.001  0.005  0.007
    8  0.000  0.000  0.003  0.003
    9  0.000  0.000  0.001  0.001
   10  0.000  0.000  0.069  0.069
   11  0.010  0.001  0.029  0.039
   12  0.018  0.001  0.022  0.041
   13  0.010  0.001  0.030  0.040
   14  0.000  0.002  0.011  0.013
   15  0.001  0.000  0.029  0.030
   16  0.018  0.001  0.024  0.042
   17  0.001  0.000  0.028  0.029
   18  0.000  0.000  0.059  0.059
   19  0.006  0.001  0.027  0.034
   20  0.000  0.001  0.067  0.068
   21  0.018  0.001  0.023  0.043
   22  0.003  0.000  0.028  0.031
   23  0.018  0.001  0.025  0.044
   24  0.000  0.000  0.065  0.066
   25  0.000  0.002  0.012  0.013
   26  0.006  0.001  0.027  0.034
   27  0.003  0.000  0.029  0.032
   28  0.000  0.000  0.002  0.002
   29  0.000  0.000  0.003  0.004
   30  0.000  0.000  0.002  0.002
   31  0.000  0.000  0.003  0.004
   32  0.001  0.000  0.005  0.006
   33  0.000  0.000  0.002  0.002
   34  0.001  0.000  0.005  0.006
   35  0.000  0.000  0.002  0.002
   36  0.000  0.000  0.001  0.002
   37  0.000  0.000  0.000  0.000
   38  0.000  0.000  0.000  0.000
tot    0.121  0.017  0.667  0.805
 
band    11 # energy   -4.80564386 # occ.  2.00000000
 
ion      s      p      d    tot
    1  0.000  0.000  0.009  0.010
    2  0.001  0.000  0.004  0.005
    3  0.000  0.000  0.003  0.003
    4  0.001  0.000  0.004  0.005
    5  0.000  0.000  0.005  0.005
    6  0.002  0.000  0.005  0.007
    7  0.000  0.000  0.003  0.003
    8  0.002  0.000  0.005  0.007
    9  0.000  0.000  0.001  0.001
   10  0.024  0.001  0.008  0.032
   11  0.003  0.001  0.018  0.023
   12  0.006  0.000  0.054  0.060
   13  0.003  0.001  0.017  0.021
   14  0.013  0.000  0.035  0.049
   15  0.000  0.000  0.048  0.049
   16  0.006  0.000  0.053  0.059
   17  0.000  0.000  0.049  0.050
   18  0.002  0.000  0.018  0.020
   19  0.002  0.001  0.017  0.021
   20  0.024  0.001  0.010  0.035
   21  0.006  0.001  0.054  0.060
   22  0.001  0.000  0.054  0.055
   23  0.006  0.001  0.052  0.059
   24  0.004  0.000  0.016  0.020
   25  0.008  0.000  0.032  0.041
   26  0.002  0.001  0.017  0.020
   27  0.001  0.000  0.052  0.054
   28  0.000  0.000  0.002  0.002
   29  0.001  0.000  0.003  0.004
   30  0.001  0.000  0.005  0.006
   31  0.001  0.000  0.004  0.005
   32  0.000  0.000  0.002  0.002
   33  0.001  0.000  0.005  0.006
   34  0.000  0.000  0.002  0.002
   35  0.000  0.000  0.002  0.002
   36  0.000  0.000  0.001  0.002
   37  0.000  0.000  0.000  0.000
   38  0.000  0.000  0.000  0.000
tot    0.121  0.017  0.667  0.805
 
band    12 # energy   -4.78899738 # occ.  2.00000000
 
ion      s      p      d    tot
    1  0.000  0.001  0.014  0.016
    2  0.000  0.000  0.009  0.010
    3  0.000  0.000  0.009  0.010
    4  0.000  0.000  0.009  0.010
    5  0.000  0.000  0.003  0.003
    6  0.000  0.000  0.009  0.010
    7  0.000  0.000  0.009  0.010
    8  0.000  0.000  0.009  0.010
    9  0.008  0.001  0.001  0.010
   10  0.006  0.000  0.035  0.041
   11  0.000  0.000  0.060  0.060
   12  0.006  0.000  0.035  0.041
   13  0.000  0.000  0.060  0.060
   14  0.000  0.000  0.061  0.061
   15  0.003  0.000  0.014  0.017
   16  0.006  0.000  0.035  0.041
   17  0.003  0.000  0.014  0.017
   18  0.003  0.000  0.014  0.017
   19  0.002  0.000  0.007  0.009
   20  0.001  0.000  0.041  0.042
   21  0.001  0.000  0.041  0.042
   22  0.002  0.000  0.045  0.047
   23  0.001  0.000  0.041  0.042
   24  0.002  0.000  0.046  0.047
   25  0.002  0.000  0.007  0.009
   26  0.002  0.000  0.007  0.009
   27  0.002  0.000  0.045  0.047
   28  0.008  0.001  0.000  0.009
   29  0.001  0.000  0.011  0.013
   30  0.001  0.000  0.011  0.013
   31  0.001  0.000  0.011  0.013
   32  0.001  0.000  0.011  0.013
   33  0.001  0.000  0.011  0.013
   34  0.001  0.000  0.011  0.013
   35  0.001  0.000  0.016  0.017
   36  0.001  0.000  0.000  0.001
   37  0.000  0.000  0.000  0.000
   38  0.000  0.000  0.000  0.000
tot    0.066  0.007  0.765  0.838
 
band    13 # energy   -4.76948058 # occ.  2.00000000
 
ion      s      p      d    tot
    1  0.000  0.000  0.020  0.020
    2  0.003  0.000  0.006  0.009
    3  0.000  0.000  0.010  0.010
    4  0.003  0.000  0.006  0.009
    5  0.000  0.000  0.008  0.008
    6  0.001  0.000  0.007  0.009
    7  0.000  0.000  0.010  0.010
    8  0.001  0.000  0.007  0.009
    9  0.000  0.000  0.006  0.006
   10  0.000  0.000  0.052  0.052
   11  0.000  0.000  0.033  0.033
   12  0.003  0.000  0.036  0.039
   13  0.000  0.000  0.033  0.033
   14  0.000  0.000  0.012  0.013
   15  0.005  0.000  0.023  0.028
   16  0.003  0.000  0.036  0.039
   17  0.005  0.000  0.023  0.028
   18  0.000  0.000  0.069  0.069
   19  0.005  0.000  0.035  0.040
   20  0.000  0.000  0.088  0.088
   21  0.006  0.000  0.027  0.033
   22  0.000  0.000  0.031  0.031
   23  0.006  0.000  0.027  0.033
   24  0.000  0.000  0.016  0.016
   25  0.000  0.000  0.048  0.048
   26  0.005  0.000  0.035  0.040
   27  0.000  0.000  0.031  0.031
   28  0.000  0.000  0.012  0.012
   29  0.000  0.000  0.008  0.008
   30  0.002  0.000  0.004  0.006
   31  0.000  0.000  0.008  0.008
   32  0.002  0.001  0.005  0.007
   33  0.002  0.000  0.004  0.006
   34  0.002  0.001  0.005  0.007
   35  0.000  0.000  0.005  0.005
   36  0.000  0.000  0.001  0.001
   37  0.000  0.000  0.000  0.000
   38  0.000  0.000  0.000  0.000
tot    0.054  0.007  0.783  0.845
 
band    14 # energy   -4.76944230 # occ.  2.00000000
 
ion      s      p      d    tot
    1  0.000  0.000  0.020  0.020
    2  0.000  0.000  0.009  0.009
    3  0.003  0.000  0.006  0.009
    4  0.000  0.000  0.009  0.009
    5  0.000  0.000  0.008  0.008
    6  0.002  0.000  0.008  0.010
    7  0.003  0.000  0.006  0.009
    8  0.002  0.000  0.008  0.010
    9  0.000  0.000  0.006  0.006
   10  0.004  0.000  0.030  0.035
   11  0.000  0.000  0.019  0.019
   12  0.001  0.000  0.047  0.048
   13  0.000  0.000  0.019  0.019
   14  0.000  0.000  0.039  0.039
   15  0.001  0.000  0.054  0.055
   16  0.001  0.000  0.047  0.048
   17  0.001  0.000  0.053  0.055
   18  0.006  0.000  0.008  0.014
   19  0.002  0.000  0.044  0.046
   20  0.008  0.000  0.007  0.015
   21  0.002  0.000  0.067  0.069
   22  0.000  0.000  0.021  0.021
   23  0.002  0.000  0.068  0.070
   24  0.000  0.000  0.036  0.036
   25  0.007  0.000  0.029  0.037
   26  0.002  0.000  0.044  0.046
   27  0.000  0.000  0.021  0.021
   28  0.000  0.000  0.012  0.012
   29  0.002  0.000  0.004  0.006
   30  0.000  0.000  0.007  0.008
   31  0.002  0.000  0.004  0.006
   32  0.001  0.000  0.006  0.007
   33  0.000  0.000  0.007  0.008
   34  0.001  0.000  0.006  0.007
   35  0.000  0.000  0.005  0.005
   36  0.000  0.000  0.001  0.001
   37  0.000  0.000  0.000  0.000
   38  0.000  0.000  0.000  0.000
tot    0.054  0.007  0.783  0.845
 
band    15 # energy   -4.76892975 # occ.  2.00000000
 
ion      s      p      d    tot
    1  0.005  0.000  0.003  0.009
    2  0.000  0.000  0.011  0.011
    3  0.000  0.000  0.011  0.011
    4  0.000  0.000  0.011  0.011
    5  0.003  0.001  0.001  0.005
    6  0.000  0.000  0.011  0.011
    7  0.000  0.000  0.011  0.011
    8  0.000  0.000  0.011  0.011
    9  0.000  0.000  0.008  0.008
   10  0.001  0.000  0.045  0.046
   11  0.003  0.000  0.008  0.011
   12  0.001  0.000  0.045  0.045
   13  0.003  0.000  0.008  0.011
   14  0.003  0.000  0.009  0.012
   15  0.001  0.000  0.050  0.051
   16  0.001  0.000  0.045  0.045
   17  0.001  0.000  0.050  0.051
   18  0.001  0.000  0.049  0.050
   19  0.001  0.000  0.068  0.069
   20  0.004  0.000  0.023  0.028
   21  0.005  0.000  0.023  0.028
   22  0.002  0.000  0.025  0.027
   23  0.005  0.000  0.023  0.028
   24  0.002  0.000  0.026  0.029
   25  0.001  0.000  0.069  0.070
   26  0.001  0.000  0.068  0.069
   27  0.002  0.000  0.025  0.027
   28  0.000  0.000  0.010  0.011
   29  0.000  0.000  0.008  0.008
   30  0.000  0.000  0.007  0.008
   31  0.000  0.000  0.008  0.008
   32  0.000  0.000  0.008  0.008
   33  0.000  0.000  0.007  0.008
   34  0.000  0.000  0.008  0.008
   35  0.003  0.000  0.000  0.004
   36  0.001  0.001  0.000  0.003
   37  0.000  0.001  0.000  0.001
   38  0.000  0.000  0.000  0.000
tot    0.049  0.008  0.792  0.849
 
band    16 # energy   -4.75538082 # occ.  2.00000000
 
ion      s      p      d    tot
    1  0.000  0.000  0.005  0.006
    2  0.004  0.000  0.007  0.011
    3  0.001  0.000  0.011  0.011
    4  0.004  0.000  0.007  0.011
    5  0.000  0.000  0.014  0.014
    6  0.002  0.001  0.008  0.010
    7  0.001  0.000  0.011  0.011
    8  0.001  0.001  0.008  0.010
    9  0.000  0.000  0.020  0.020
   10  0.006  0.000  0.016  0.022
   11  0.002  0.000  0.051  0.053
   12  0.002  0.000  0.041  0.042
   13  0.002  0.000  0.050  0.052
   14  0.008  0.000  0.015  0.023
   15  0.000  0.000  0.025  0.025
   16  0.002  0.000  0.041  0.043
   17  0.000  0.000  0.025  0.026
   18  0.000  0.000  0.047  0.047
   19  0.001  0.000  0.050  0.052
   20  0.001  0.000  0.044  0.045
   21  0.000  0.000  0.021  0.021
   22  0.003  0.000  0.058  0.061
   23  0.000  0.000  0.020  0.021
   24  0.011  0.000  0.015  0.026
   25  0.006  0.000  0.012  0.017
   26  0.001  0.000  0.049  0.051
   27  0.003  0.000  0.059  0.062
   28  0.000  0.000  0.003  0.003
   29  0.000  0.000  0.007  0.007
   30  0.001  0.000  0.002  0.003
   31  0.000  0.000  0.007  0.007
   32  0.001  0.001  0.006  0.008
   33  0.001  0.000  0.002  0.003
   34  0.001  0.001  0.006  0.008
   35  0.000  0.000  0.008  0.008
   36  0.000  0.000  0.001  0.001
   37  0.000  0.000  0.000  0.000
   38  0.000  0.000  0.000  0.000
tot    0.064  0.008  0.770  0.841
 
band    17 # energy   -4.75535551 # occ.  2.00000000
 
ion      s      p      d    tot
    1  0.000  0.000  0.005  0.006
    2  0.000  0.000  0.011  0.011
    3  0.003  0.001  0.006  0.010
    4  0.000  0.000  0.011  0.011
    5  0.000  0.000  0.014  0.014
    6  0.002  0.000  0.009  0.011
    7  0.003  0.001  0.006  0.010
    8  0.002  0.000  0.009  0.011
    9  0.000  0.000  0.020  0.020
   10  0.000  0.000  0.049  0.049
   11  0.006  0.000  0.026  0.032
   12  0.005  0.000  0.025  0.029
   13  0.006  0.000  0.027  0.033
   14  0.000  0.000  0.062  0.062
   15  0.000  0.000  0.040  0.040
   16  0.005  0.000  0.024  0.029
   17  0.000  0.000  0.039  0.040
   18  0.000  0.000  0.018  0.018
   19  0.004  0.000  0.024  0.028
   20  0.000  0.000  0.013  0.013
   21  0.001  0.000  0.036  0.036
   22  0.008  0.000  0.030  0.039
   23  0.001  0.000  0.036  0.037
   24  0.000  0.000  0.073  0.073
   25  0.000  0.000  0.063  0.063
   26  0.004  0.000  0.025  0.029
   27  0.008  0.000  0.029  0.038
   28  0.000  0.000  0.003  0.003
   29  0.002  0.000  0.003  0.005
   30  0.000  0.000  0.008  0.009
   31  0.002  0.000  0.003  0.005
   32  0.000  0.000  0.004  0.004
   33  0.000  0.000  0.008  0.009
   34  0.000  0.000  0.004  0.004
   35  0.000  0.000  0.008  0.008
   36  0.000  0.000  0.001  0.001
   37  0.000  0.000  0.000  0.000
   38  0.000  0.000  0.000  0.000
tot    0.064  0.008  0.770  0.842
 
band    18 # energy   -4.72571677 # occ.  2.00000000
 
ion      s      p      d    tot
    1  0.004  0.000  0.003  0.007
    2  0.002  0.000  0.010  0.012
    3  0.002  0.000  0.010  0.012
    4  0.002  0.000  0.010  0.012
    5  0.003  0.000  0.013  0.017
    6  0.002  0.000  0.010  0.012
    7  0.002  0.000  0.010  0.012
    8  0.002  0.000  0.010  0.012
    9  0.000  0.000  0.010  0.011
   10  0.000  0.000  0.006  0.007
   11  0.002  0.000  0.014  0.016
   12  0.000  0.000  0.006  0.007
   13  0.002  0.000  0.014  0.016
   14  0.002  0.000  0.014  0.016
   15  0.003  0.000  0.010  0.013
   16  0.000  0.000  0.006  0.007
   17  0.003  0.000  0.010  0.013
   18  0.003  0.000  0.010  0.013
   19  0.002  0.000  0.014  0.016
   20  0.001  0.001  0.026  0.028
   21  0.001  0.001  0.026  0.028
   22  0.000  0.001  0.018  0.019
   23  0.001  0.001  0.026  0.028
   24  0.000  0.001  0.018  0.019
   25  0.002  0.000  0.014  0.016
   26  0.002  0.000  0.014  0.016
   27  0.000  0.001  0.018  0.019
   28  0.012  0.000  0.033  0.045
   29  0.014  0.000  0.030  0.045
   30  0.014  0.000  0.030  0.045
   31  0.014  0.000  0.030  0.045
   32  0.014  0.000  0.030  0.045
   33  0.014  0.000  0.030  0.045
   34  0.014  0.000  0.030  0.045
   35  0.019  0.000  0.029  0.049
   36  0.006  0.000  0.008  0.014
   37  0.000  0.001  0.000  0.001
   38  0.000  0.000  0.000  0.000
tot    0.168  0.010  0.600  0.777
 
band    19 # energy   -4.61017390 # occ.  2.00000000
 
ion      s      p      d    tot
    1  0.002  0.001  0.001  0.004
    2  0.000  0.000  0.009  0.009
    3  0.000  0.000  0.009  0.009
    4  0.000  0.000  0.009  0.009
    5  0.001  0.000  0.010  0.011
    6  0.000  0.000  0.009  0.009
    7  0.000  0.000  0.009  0.009
    8  0.000  0.000  0.009  0.009
    9  0.001  0.001  0.009  0.011
   10  0.000  0.000  0.020  0.020
   11  0.001  0.000  0.044  0.045
   12  0.000  0.000  0.020  0.020
   13  0.001  0.000  0.044  0.045
   14  0.001  0.000  0.044  0.045
   15  0.001  0.001  0.056  0.058
   16  0.000  0.000  0.020  0.020
   17  0.001  0.001  0.056  0.058
   18  0.001  0.001  0.057  0.058
   19  0.000  0.000  0.020  0.021
   20  0.000  0.000  0.054  0.054
   21  0.000  0.000  0.053  0.054
   22  0.002  0.000  0.036  0.038
   23  0.000  0.000  0.053  0.054
   24  0.002  0.000  0.036  0.038
   25  0.000  0.000  0.020  0.021
   26  0.000  0.000  0.020  0.021
   27  0.002  0.000  0.036  0.038
   28  0.006  0.001  0.001  0.007
   29  0.000  0.000  0.010  0.010
   30  0.000  0.000  0.010  0.010
   31  0.000  0.000  0.010  0.010
   32  0.000  0.000  0.010  0.010
   33  0.000  0.000  0.010  0.010
   34  0.000  0.000  0.010  0.010
   35  0.000  0.000  0.002  0.002
   36  0.001  0.001  0.001  0.003
   37  0.000  0.000  0.000  0.000
   38  0.000  0.000  0.000  0.000
tot    0.025  0.015  0.826  0.866
 
band    20 # energy   -4.60158000 # occ.  2.00000000
 
ion      s      p      d    tot
    1  0.000  0.000  0.008  0.008
    2  0.000  0.000  0.011  0.011
    3  0.000  0.000  0.011  0.011
    4  0.000  0.000  0.011  0.011
    5  0.003  0.001  0.005  0.009
    6  0.000  0.000  0.011  0.011
    7  0.000  0.000  0.011  0.011
    8  0.000  0.000  0.011  0.011
    9  0.003  0.000  0.001  0.004
   10  0.002  0.001  0.054  0.056
   11  0.000  0.001  0.039  0.040
   12  0.002  0.001  0.053  0.056
   13  0.000  0.001  0.039  0.040
   14  0.000  0.001  0.039  0.040
   15  0.001  0.000  0.019  0.020
   16  0.002  0.001  0.053  0.056
   17  0.001  0.000  0.019  0.020
   18  0.001  0.000  0.019  0.020
   19  0.001  0.001  0.054  0.056
   20  0.001  0.000  0.025  0.026
   21  0.001  0.000  0.025  0.026
   22  0.000  0.000  0.033  0.034
   23  0.001  0.000  0.025  0.026
   24  0.000  0.000  0.033  0.033
   25  0.001  0.001  0.054  0.056
   26  0.001  0.001  0.054  0.056
   27  0.000  0.000  0.033  0.034
   28  0.000  0.000  0.009  0.009
   29  0.000  0.000  0.009  0.009
   30  0.000  0.000  0.009  0.009
   31  0.000  0.000  0.009  0.009
   32  0.000  0.000  0.009  0.009
   33  0.000  0.000  0.009  0.009
   34  0.000  0.000  0.009  0.009
   35  0.003  0.001  0.003  0.007
   36  0.001  0.000  0.001  0.002
   37  0.000  0.000  0.000  0.000
   38  0.000  0.000  0.000  0.000
tot    0.028  0.016  0.814  0.858
 
band    21 # energy   -4.59829663 # occ.  2.00000000
 
ion      s      p      d    tot
    1  0.000  0.000  0.004  0.004
    2  0.001  0.001  0.010  0.011
    3  0.000  0.000  0.008  0.008
    4  0.001  0.001  0.010  0.011
    5  0.000  0.000  0.006  0.006
    6  0.002  0.001  0.005  0.008
    7  0.000  0.000  0.008  0.008
    8  0.002  0.001  0.005  0.008
    9  0.000  0.001  0.020  0.021
   10  0.001  0.001  0.034  0.037
   11  0.000  0.000  0.062  0.063
   12  0.000  0.000  0.010  0.010
   13  0.000  0.000  0.062  0.062
   14  0.000  0.001  0.024  0.025
   15  0.001  0.000  0.061  0.061
   16  0.000  0.000  0.009  0.010