PROCAR new format
# of k-points:   10         # of bands:  252         # of ions:   37

 k-point     1 :    0.00000000 0.00000000 0.00000000     weight = 0.01562500

band     1 # energy   -8.19781909 # occ.  2.00000000
 
ion      s      p      d    tot
    1  0.006  0.001  0.000  0.007
    2  0.006  0.000  0.000  0.006
    3  0.006  0.000  0.000  0.006
    4  0.006  0.000  0.000  0.006
    5  0.006  0.001  0.000  0.006
    6  0.006  0.000  0.000  0.006
    7  0.006  0.000  0.000  0.006
    8  0.006  0.000  0.000  0.006
    9  0.006  0.000  0.000  0.006
   10  0.025  0.000  0.000  0.025
   11  0.026  0.000  0.000  0.027
   12  0.025  0.000  0.000  0.025
   13  0.026  0.000  0.000  0.027
   14  0.026  0.000  0.000  0.027
   15  0.024  0.000  0.000  0.024
   16  0.025  0.000  0.000  0.025
   17  0.024  0.000  0.000  0.024
   18  0.024  0.000  0.000  0.024
   19  0.022  0.000  0.000  0.023
   20  0.031  0.000  0.000  0.031
   21  0.031  0.000  0.000  0.031
   22  0.024  0.000  0.000  0.024
   23  0.031  0.000  0.000  0.031
   24  0.024  0.000  0.000  0.024
   25  0.022  0.000  0.000  0.023
   26  0.022  0.000  0.000  0.023
   27  0.024  0.000  0.000  0.024
   28  0.005  0.000  0.000  0.005
   29  0.006  0.000  0.000  0.006
   30  0.006  0.000  0.000  0.006
   31  0.006  0.000  0.000  0.006
   32  0.006  0.000  0.000  0.006
   33  0.006  0.000  0.000  0.006
   34  0.006  0.000  0.000  0.006
   35  0.005  0.000  0.000  0.005
   36  0.017  0.002  0.000  0.019
   37  0.000  0.000  0.000  0.000
tot    0.570  0.012  0.004  0.587
 
band     2 # energy   -7.06953653 # occ.  2.00000000
 
ion      s      p      d    tot
    1  0.016  0.000  0.001  0.017
    2  0.016  0.000  0.001  0.017
    3  0.016  0.000  0.001  0.017
    4  0.016  0.000  0.001  0.017
    5  0.016  0.000  0.001  0.017
    6  0.016  0.000  0.001  0.017
    7  0.016  0.000  0.001  0.017
    8  0.016  0.000  0.001  0.017
    9  0.016  0.001  0.001  0.018
   10  0.012  0.001  0.003  0.016
   11  0.011  0.001  0.003  0.015
   12  0.012  0.001  0.003  0.016
   13  0.011  0.001  0.003  0.015
   14  0.011  0.001  0.003  0.015
   15  0.013  0.001  0.002  0.016
   16  0.012  0.001  0.003  0.016
   17  0.013  0.001  0.002  0.016
   18  0.013  0.001  0.002  0.016
   19  0.008  0.001  0.003  0.012
   20  0.016  0.002  0.003  0.021
   21  0.016  0.002  0.003  0.021
   22  0.009  0.001  0.003  0.012
   23  0.016  0.002  0.003  0.021
   24  0.009  0.001  0.003  0.012
   25  0.008  0.001  0.003  0.012
   26  0.008  0.001  0.003  0.012
   27  0.009  0.001  0.003  0.012
   28  0.012  0.000  0.001  0.013
   29  0.016  0.001  0.002  0.018
   30  0.016  0.001  0.002  0.018
   31  0.016  0.001  0.002  0.018
   32  0.016  0.001  0.002  0.018
   33  0.016  0.001  0.002  0.018
   34  0.016  0.001  0.002  0.018
   35  0.012  0.000  0.001  0.013
   36  0.043  0.001  0.000  0.044
   37  0.001  0.000  0.000  0.002
tot    0.514  0.033  0.065  0.612
 
band     3 # energy   -6.13854786 # occ.  2.00000000
 
ion      s      p      d    tot
    1  0.012  0.000  0.000  0.013
    2  0.004  0.000  0.004  0.007
    3  0.004  0.000  0.004  0.007
    4  0.004  0.000  0.004  0.007
    5  0.006  0.000  0.002  0.009
    6  0.004  0.000  0.004  0.007
    7  0.004  0.000  0.004  0.007
    8  0.004  0.000  0.004  0.007
    9  0.000  0.001  0.004  0.005
   10  0.002  0.000  0.013  0.015
   11  0.002  0.001  0.005  0.008
   12  0.002  0.000  0.013  0.015
   13  0.002  0.001  0.005  0.008
   14  0.002  0.001  0.005  0.008
   15  0.014  0.002  0.003  0.018
   16  0.002  0.000  0.013  0.015
   17  0.014  0.002  0.003  0.018
   18  0.014  0.002  0.003  0.018
   19  0.010  0.000  0.016  0.027
   20  0.003  0.001  0.035  0.039
   21  0.003  0.001  0.035  0.039
   22  0.027  0.002  0.006  0.035
   23  0.003  0.001  0.035  0.039
   24  0.027  0.002  0.006  0.035
   25  0.010  0.000  0.016  0.027
   26  0.010  0.000  0.016  0.027
   27  0.027  0.002  0.006  0.035
   28  0.001  0.000  0.010  0.011
   29  0.009  0.001  0.013  0.023
   30  0.009  0.001  0.013  0.023
   31  0.009  0.001  0.013  0.023
   32  0.009  0.001  0.013  0.023
   33  0.009  0.001  0.013  0.023
   34  0.009  0.001  0.013  0.023
   35  0.000  0.001  0.008  0.009
   36  0.074  0.001  0.001  0.075
   37  0.003  0.000  0.000  0.003
tot    0.344  0.031  0.358  0.734
 
band     4 # energy   -6.08189959 # occ.  2.00000000
 
ion      s      p      d    tot
    1  0.000  0.000  0.006  0.007
    2  0.004  0.000  0.005  0.009
    3  0.004  0.000  0.005  0.009
    4  0.004  0.000  0.005  0.009
    5  0.003  0.000  0.002  0.005
    6  0.004  0.000  0.005  0.009
    7  0.004  0.000  0.005  0.009
    8  0.004  0.000  0.005  0.009
    9  0.017  0.001  0.001  0.019
   10  0.008  0.001  0.010  0.019
   11  0.003  0.002  0.006  0.011
   12  0.008  0.001  0.010  0.019
   13  0.003  0.002  0.006  0.011
   14  0.004  0.002  0.006  0.011
   15  0.007  0.001  0.004  0.012
   16  0.008  0.001  0.010  0.019
   17  0.007  0.001  0.004  0.012
   18  0.007  0.001  0.004  0.012
   19  0.002  0.001  0.017  0.021
   20  0.023  0.002  0.027  0.052
   21  0.023  0.002  0.027  0.052
   22  0.004  0.001  0.008  0.013
   23  0.023  0.002  0.027  0.052
   24  0.004  0.001  0.008  0.013
   25  0.002  0.001  0.017  0.021
   26  0.002  0.001  0.017  0.021
   27  0.004  0.001  0.008  0.013
   28  0.013  0.000  0.005  0.018
   29  0.014  0.000  0.011  0.025
   30  0.014  0.000  0.011  0.025
   31  0.014  0.000  0.011  0.026
   32  0.014  0.000  0.011  0.025
   33  0.014  0.000  0.011  0.025
   34  0.014  0.000  0.011  0.025
   35  0.029  0.000  0.006  0.035
   36  0.000  0.006  0.021  0.027
   37  0.000  0.000  0.000  0.000
tot    0.318  0.031  0.353  0.702
 
band     5 # energy   -6.07456660 # occ.  2.00000000
 
ion      s      p      d    tot
    1  0.000  0.000  0.008  0.008
    2  0.001  0.000  0.003  0.004
    3  0.003  0.001  0.002  0.006
    4  0.005  0.001  0.003  0.009
    5  0.000  0.001  0.005  0.006
    6  0.003  0.001  0.002  0.006
    7  0.006  0.001  0.003  0.010
    8  0.000  0.000  0.003  0.003
    9  0.000  0.000  0.001  0.001
   10  0.008  0.001  0.026  0.035
   11  0.014  0.003  0.019  0.036
   12  0.038  0.002  0.006  0.046
   13  0.045  0.001  0.012  0.057
   14  0.009  0.003  0.020  0.033
   15  0.000  0.002  0.007  0.009
   16  0.011  0.001  0.024  0.036
   17  0.000  0.000  0.010  0.011
   18  0.000  0.002  0.006  0.009
   19  0.004  0.003  0.006  0.013
   20  0.014  0.002  0.035  0.051
   21  0.070  0.001  0.014  0.085
   22  0.013  0.002  0.005  0.020
   23  0.021  0.002  0.032  0.055
   24  0.003  0.001  0.020  0.024
   25  0.002  0.003  0.005  0.011
   26  0.012  0.000  0.013  0.025
   27  0.004  0.001  0.018  0.023
   28  0.000  0.000  0.001  0.002
   29  0.002  0.000  0.003  0.005
   30  0.006  0.001  0.005  0.012
   31  0.001  0.000  0.003  0.004
   32  0.007  0.001  0.005  0.013
   33  0.002  0.000  0.003  0.005
   34  0.002  0.001  0.003  0.006
   35  0.000  0.000  0.004  0.004
   36  0.000  0.006  0.012  0.017
   37  0.000  0.000  0.000  0.000
tot    0.305  0.046  0.347  0.698
 
band     6 # energy   -6.07455418 # occ.  2.00000000
 
ion      s      p      d    tot
    1  0.000  0.000  0.008  0.008
    2  0.005  0.001  0.003  0.009
    3  0.003  0.001  0.003  0.006
    4  0.001  0.000  0.002  0.003
    5  0.000  0.001  0.005  0.006
    6  0.003  0.001  0.003  0.007
    7  0.000  0.000  0.002  0.003
    8  0.006  0.001  0.003  0.009
    9  0.000  0.000  0.001  0.001
   10  0.030  0.002  0.011  0.043
   11  0.032  0.002  0.015  0.048
   12  0.000  0.000  0.032  0.032
   13  0.000  0.004  0.023  0.027
   14  0.036  0.001  0.014  0.051
   15  0.000  0.001  0.009  0.010
   16  0.026  0.002  0.014  0.042
   17  0.000  0.003  0.005  0.008
   18  0.000  0.001  0.009  0.010
   19  0.008  0.001  0.010  0.020
   20  0.056  0.001  0.019  0.076
   21  0.000  0.002  0.040  0.042
   22  0.000  0.001  0.024  0.025
   23  0.049  0.001  0.022  0.072
   24  0.011  0.001  0.009  0.021
   25  0.010  0.001  0.011  0.022
   26  0.000  0.004  0.003  0.008
   27  0.009  0.001  0.011  0.022
   28  0.000  0.000  0.001  0.002
   29  0.005  0.001  0.004  0.010
   30  0.000  0.000  0.002  0.003
   31  0.005  0.001  0.004  0.011
   32  0.000  0.000  0.002  0.002
   33  0.005  0.001  0.004  0.010
   34  0.004  0.001  0.004  0.009
   35  0.000  0.000  0.004  0.004
   36  0.000  0.006  0.012  0.017
   37  0.000  0.000  0.000  0.000
tot    0.305  0.046  0.347  0.698
 
band     7 # energy   -6.02948145 # occ.  2.00000000
 
ion      s      p      d    tot
    1  0.021  0.000  0.015  0.037
    2  0.015  0.000  0.016  0.031
    3  0.015  0.000  0.016  0.031
    4  0.015  0.000  0.016  0.031
    5  0.009  0.000  0.018  0.027
    6  0.015  0.000  0.016  0.031
    7  0.015  0.000  0.016  0.031
    8  0.015  0.000  0.016  0.031
    9  0.016  0.000  0.014  0.030
   10  0.002  0.000  0.030  0.033
   11  0.014  0.000  0.022  0.037
   12  0.002  0.000  0.030  0.033
   13  0.014  0.000  0.022  0.037
   14  0.014  0.000  0.022  0.037
   15  0.007  0.000  0.024  0.032
   16  0.002  0.000  0.030  0.033
   17  0.007  0.000  0.024  0.032
   18  0.007  0.000  0.024  0.032
   19  0.006  0.000  0.007  0.014
   20  0.001  0.000  0.021  0.023
   21  0.001  0.000  0.021  0.023
   22  0.000  0.000  0.011  0.011
   23  0.001  0.000  0.021  0.023
   24  0.000  0.000  0.011  0.011
   25  0.006  0.000  0.007  0.014
   26  0.006  0.000  0.007  0.014
   27  0.000  0.000  0.011  0.011
   28  0.000  0.000  0.001  0.002
   29  0.001  0.000  0.002  0.003
   30  0.001  0.000  0.002  0.003
   31  0.001  0.000  0.002  0.003
   32  0.001  0.000  0.002  0.003
   33  0.001  0.000  0.002  0.003
   34  0.001  0.000  0.002  0.003
   35  0.002  0.000  0.001  0.003
   36  0.000  0.000  0.004  0.005
   37  0.000  0.000  0.000  0.000
tot    0.236  0.006  0.508  0.750
 
band     8 # energy   -5.98185151 # occ.  2.00000000
 
ion      s      p      d    tot
    1  0.005  0.001  0.002  0.008
    2  0.000  0.001  0.006  0.008
    3  0.000  0.001  0.006  0.008
    4  0.000  0.001  0.006  0.008
    5  0.020  0.002  0.000  0.022
    6  0.000  0.001  0.006  0.008
    7  0.000  0.001  0.006  0.008
    8  0.000  0.001  0.006  0.008
    9  0.000  0.000  0.003  0.003
   10  0.024  0.003  0.001  0.029
   11  0.019  0.001  0.023  0.043
   12  0.024  0.003  0.001  0.029
   13  0.019  0.001  0.023  0.043
   14  0.019  0.001  0.023  0.043
   15  0.001  0.001  0.024  0.026
   16  0.024  0.003  0.001  0.029
   17  0.001  0.001  0.024  0.026
   18  0.001  0.001  0.024  0.026
   19  0.019  0.002  0.008  0.029
   20  0.008  0.003  0.018  0.028
   21  0.008  0.003  0.018  0.028
   22  0.008  0.000  0.025  0.033
   23  0.008  0.003  0.018  0.028
   24  0.008  0.000  0.025  0.033
   25  0.019  0.002  0.008  0.029
   26  0.019  0.002  0.008  0.029
   27  0.008  0.000  0.025  0.033
   28  0.015  0.001  0.000  0.016
   29  0.001  0.000  0.004  0.005
   30  0.001  0.000  0.004  0.005
   31  0.001  0.000  0.004  0.005
   32  0.001  0.000  0.004  0.005
   33  0.001  0.000  0.004  0.005
   34  0.001  0.000  0.004  0.005
   35  0.001  0.001  0.004  0.006
   36  0.000  0.000  0.000  0.000
   37  0.000  0.000  0.000  0.000
tot    0.290  0.038  0.370  0.698
 
band     9 # energy   -5.95749755 # occ.  2.00000000
 
ion      s      p      d    tot
    1  0.000  0.001  0.003  0.004
    2  0.007  0.001  0.004  0.012
    3  0.008  0.001  0.004  0.014
    4  0.001  0.001  0.004  0.005
    5  0.000  0.000  0.005  0.005
    6  0.000  0.000  0.004  0.004
    7  0.006  0.001  0.003  0.011
    8  0.003  0.001  0.003  0.007
    9  0.000  0.001  0.011  0.012
   10  0.019  0.001  0.015  0.035
   11  0.000  0.001  0.029  0.030
   12  0.013  0.002  0.011  0.026
   13  0.007  0.001  0.016  0.024
   14  0.011  0.001  0.009  0.021
   15  0.002  0.001  0.040  0.043
   16  0.001  0.005  0.003  0.008
   17  0.038  0.001  0.020  0.060
   18  0.056  0.001  0.010  0.068
   19  0.001  0.000  0.034  0.036
   20  0.000  0.001  0.016  0.017
   21  0.000  0.001  0.014  0.016
   22  0.022  0.002  0.013  0.037
   23  0.000  0.002  0.011  0.014
   24  0.032  0.001  0.011  0.045
   25  0.032  0.002  0.007  0.041
   26  0.022  0.001  0.016  0.039
   27  0.001  0.004  0.017  0.022
   28  0.000  0.000  0.006  0.006
   29  0.000  0.000  0.001  0.002
   30  0.001  0.000  0.001  0.002
   31  0.001  0.000  0.002  0.004
   32  0.003  0.001  0.002  0.006
   33  0.003  0.001  0.002  0.006
   34  0.004  0.001  0.002  0.007
   35  0.000  0.001  0.004  0.005
   36  0.000  0.000  0.001  0.001
   37  0.000  0.000  0.000  0.000
tot    0.295  0.041  0.358  0.693
 
band    10 # energy   -5.95747472 # occ.  2.00000000
 
ion      s      p      d    tot
    1  0.000  0.001  0.003  0.004
    2  0.002  0.001  0.003  0.006
    3  0.000  0.000  0.003  0.004
    4  0.008  0.001  0.004  0.012
    5  0.000  0.000  0.005  0.005
    6  0.009  0.001  0.004  0.014
    7  0.002  0.001  0.004  0.007
    8  0.005  0.001  0.004  0.011
    9  0.000  0.001  0.011  0.012
   10  0.003  0.004  0.004  0.011
   11  0.012  0.001  0.007  0.020
   12  0.009  0.003  0.008  0.020
   13  0.005  0.001  0.020  0.026
   14  0.001  0.001  0.027  0.029
   15  0.062  0.002  0.007  0.071
   16  0.021  0.000  0.017  0.038
   17  0.026  0.001  0.027  0.054
   18  0.008  0.001  0.036  0.045
   19  0.036  0.002  0.004  0.042
   20  0.000  0.002  0.012  0.014
   21  0.000  0.002  0.013  0.015
   22  0.015  0.002  0.015  0.032
   23  0.000  0.001  0.016  0.017
   24  0.004  0.003  0.017  0.024
   25  0.004  0.000  0.031  0.036
   26  0.015  0.001  0.022  0.038
   27  0.035  0.001  0.011  0.047
   28  0.000  0.000  0.006  0.006
   29  0.004  0.001  0.002  0.007
   30  0.003  0.001  0.002  0.006
   31  0.003  0.001  0.002  0.005
   32  0.001  0.000  0.001  0.003
   33  0.001  0.000  0.002  0.003
   34  0.000  0.000  0.002  0.002
   35  0.000  0.001  0.004  0.005
   36  0.000  0.000  0.001  0.001
   37  0.000  0.000  0.000  0.000
tot    0.295  0.041  0.358  0.693
 
band    11 # energy   -5.58826247 # occ.  2.00000000
 
ion      s      p      d    tot
    1  0.000  0.001  0.004  0.004
    2  0.002  0.001  0.005  0.007
    3  0.008  0.001  0.004  0.014
    4  0.000  0.000  0.004  0.005
    5  0.000  0.001  0.009  0.011
    6  0.003  0.001  0.003  0.007
    7  0.009  0.001  0.004  0.014
    8  0.006  0.001  0.003  0.010
    9  0.000  0.000  0.007  0.007
   10  0.000  0.001  0.050  0.051
   11  0.020  0.001  0.016  0.036
   12  0.006  0.001  0.024  0.032
   13  0.014  0.001  0.024  0.039
   14  0.000  0.000  0.044  0.045
   15  0.001  0.000  0.019  0.021
   16  0.009  0.001  0.013  0.024
   17  0.001  0.001  0.017  0.019
   18  0.000  0.001  0.012  0.013
   19  0.003  0.000  0.019  0.022
   20  0.000  0.000  0.093  0.093
   21  0.012  0.001  0.041  0.053
   22  0.003  0.001  0.020  0.025
   23  0.016  0.001  0.019  0.036
   24  0.000  0.001  0.030  0.030
   25  0.000  0.001  0.010  0.011
   26  0.002  0.000  0.016  0.019
   27  0.004  0.001  0.017  0.022
   28  0.000  0.000  0.008  0.008
   29  0.006  0.001  0.006  0.013
   30  0.009  0.001  0.006  0.016
   31  0.003  0.001  0.005  0.009
   32  0.000  0.000  0.004  0.004
   33  0.008  0.001  0.005  0.014
   34  0.002  0.000  0.004  0.006
   35  0.000  0.000  0.002  0.003
   36  0.000  0.006  0.010  0.016
   37  0.000  0.000  0.000  0.000
tot    0.149  0.032  0.577  0.757
 
band    12 # energy   -5.58826010 # occ.  2.00000000
 
ion      s      p      d    tot
    1  0.000  0.001  0.004  0.004
    2  0.008  0.001  0.003  0.012
    3  0.001  0.000  0.004  0.005
    4  0.009  0.001  0.004  0.014
    5  0.000  0.001  0.009  0.011
    6  0.006  0.001  0.005  0.012
    7  0.000  0.000  0.004  0.005
    8  0.003  0.001  0.005  0.009
    9  0.000  0.000  0.007  0.007
   10  0.010  0.002  0.008  0.020
   11  0.003  0.000  0.040  0.044
   12  0.004  0.001  0.034  0.039
   13  0.009  0.000  0.032  0.041
   14  0.022  0.001  0.012  0.035
   15  0.000  0.001  0.013  0.014
   16  0.001  0.001  0.045  0.047
   17  0.001  0.001  0.015  0.016
   18  0.002  0.000  0.020  0.022
   19  0.001  0.001  0.011  0.012
   20  0.018  0.001  0.009  0.029
   21  0.007  0.001  0.061  0.069
   22  0.002  0.001  0.024  0.027
   23  0.003  0.000  0.083  0.085
   24  0.005  0.001  0.015  0.021
   25  0.004  0.000  0.020  0.024
   26  0.001  0.000  0.014  0.016
   27  0.001  0.001  0.028  0.029
   28  0.000  0.000  0.008  0.008
   29  0.004  0.001  0.004  0.008
   30  0.000  0.000  0.004  0.004
   31  0.006  0.001  0.004  0.012
   32  0.009  0.001  0.006  0.017
   33  0.001  0.000  0.005  0.007
   34  0.008  0.001  0.006  0.015
   35  0.000  0.000  0.002  0.003
   36  0.000  0.006  0.010  0.016
   37  0.000  0.000  0.000  0.000
tot    0.148  0.032  0.577  0.757
 
band    13 # energy   -5.58417213 # occ.  2.00000000
 
ion      s      p      d    tot
    1  0.005  0.000  0.000  0.005
    2  0.000  0.001  0.006  0.006
    3  0.000  0.001  0.006  0.006
    4  0.000  0.001  0.006  0.006
    5  0.012  0.001  0.000  0.014
    6  0.000  0.001  0.006  0.006
    7  0.000  0.001  0.006  0.006
    8  0.000  0.001  0.006  0.006
    9  0.002  0.000  0.002  0.004
   10  0.000  0.000  0.027  0.028
   11  0.010  0.002  0.001  0.013
   12  0.000  0.000  0.027  0.028
   13  0.010  0.002  0.001  0.013
   14  0.010  0.002  0.001  0.013
   15  0.009  0.001  0.029  0.039
   16  0.000  0.000  0.027  0.028
   17  0.009  0.001  0.029  0.039
   18  0.009  0.001  0.029  0.039
   19  0.013  0.002  0.009  0.023
   20  0.003  0.002  0.033  0.038
   21  0.003  0.002  0.033  0.038
   22  0.002  0.001  0.037  0.040
   23  0.003  0.002  0.033  0.038
   24  0.002  0.001  0.037  0.040
   25  0.012  0.002  0.009  0.023
   26  0.013  0.002  0.009  0.023
   27  0.002  0.001  0.037  0.040
   28  0.019  0.001  0.000  0.020
   29  0.001  0.001  0.012  0.014
   30  0.001  0.001  0.012  0.014
   31  0.001  0.001  0.012  0.014
   32  0.000  0.001  0.012  0.014
   33  0.000  0.001  0.012  0.014
   34  0.000  0.001  0.012  0.014
   35  0.003  0.000  0.002  0.005
   36  0.035  0.003  0.001  0.040
   37  0.002  0.000  0.000  0.002
tot    0.192  0.039  0.523  0.754
 
band    14 # energy   -5.55971187 # occ.  2.00000000
 
ion      s      p      d    tot
    1  0.008  0.001  0.003  0.013
    2  0.000  0.001  0.008  0.009
    3  0.000  0.001  0.008  0.009
    4  0.000  0.001  0.008  0.009
    5  0.003  0.000  0.001  0.005
    6  0.000  0.001  0.008  0.009
    7  0.000  0.001  0.008  0.009
    8  0.000  0.001  0.008  0.009
    9  0.020  0.002  0.001  0.023
   10  0.011  0.001  0.026  0.038
   11  0.000  0.000  0.048  0.048
   12  0.011  0.001  0.026  0.038
   13  0.000  0.000  0.048  0.048
   14  0.000  0.000  0.048  0.048
   15  0.010  0.002  0.009  0.022
   16  0.011  0.001  0.026  0.038
   17  0.010  0.002  0.009  0.022
   18  0.010  0.002  0.009  0.022
   19  0.000  0.000  0.020  0.021
   20  0.003  0.001  0.051  0.054
   21  0.003  0.001  0.051  0.054
   22  0.009  0.001  0.012  0.022
   23  0.003  0.001  0.051  0.054
   24  0.009  0.001  0.012  0.022
   25  0.000  0.000  0.020  0.021
   26  0.000  0.000  0.020  0.021
   27  0.009  0.001  0.012  0.022
   28  0.006  0.000  0.000  0.006
   29  0.000  0.000  0.004  0.004
   30  0.000  0.000  0.004  0.004
   31  0.000  0.000  0.004  0.004
   32  0.000  0.000  0.004  0.004
   33  0.000  0.000  0.004  0.004
   34  0.000  0.000  0.004  0.004
   35  0.008  0.001  0.002  0.011
   36  0.003  0.001  0.005  0.008
   37  0.001  0.000  0.000  0.001
tot    0.149  0.027  0.587  0.763
 
band    15 # energy   -5.48116206 # occ.  2.00000000
 
ion      s      p      d    tot
    1  0.000  0.001  0.014  0.014
    2  0.002  0.000  0.005  0.007
    3  0.008  0.001  0.004  0.014
    4  0.005  0.001  0.005  0.011
    5  0.000  0.000  0.005  0.005
    6  0.009  0.001  0.004  0.015
    7  0.003  0.001  0.005  0.009
    8  0.000  0.000  0.005  0.006
    9  0.000  0.001  0.006  0.007
   10  0.007  0.000  0.023  0.030
   11  0.000  0.001  0.020  0.022
   12  0.000  0.001  0.031  0.032
   13  0.000  0.001  0.017  0.018
   14  0.000  0.001  0.020  0.021
   15  0.011  0.002  0.015  0.028
   16  0.009  0.000  0.020  0.030
   17  0.000  0.000  0.060  0.060
   18  0.008  0.002  0.026  0.035
   19  0.016  0.001  0.014  0.031
   20  0.000  0.001  0.026  0.027
   21  0.000  0.002  0.022  0.024
   22  0.000  0.001  0.029  0.030
   23  0.000  0.001  0.027  0.027
   24  0.014  0.001  0.021  0.036
   25  0.012  0.001  0.027  0.040
   26  0.000  0.000  0.067  0.068
   27  0.019  0.001  0.019  0.038
   28  0.000  0.001  0.005  0.006
   29  0.000  0.001  0.006  0.007
   30  0.005  0.001  0.004  0.010
   31  0.005  0.001  0.003  0.009
   32  0.006  0.001  0.003  0.010
   33  0.004  0.001  0.003  0.008
   34  0.000  0.000  0.006  0.006
   35  0.000  0.001  0.008  0.009
   36  0.000  0.000  0.004  0.004
   37  0.000  0.000  0.000  0.000
tot    0.146  0.028  0.577  0.751
 
band    16 # energy   -5.48115780 # occ.  2.00000000
 
ion      s      p      d    tot
    1  0.000  0.001  0.014  0.014
    2  0.008  0.001  0.005  0.013
    3  0.001  0.001  0.005  0.007
    4  0.004  0.001  0.005  0.009
    5  0.000  0.000  0.005  0.005
    6  0.000  0.000  0.005  0.006
    7  0.006  0.001  0.004  0.011
    8  0.009  0.001  0.004  0.014
    9  0.000  0.001  0.006  0.007
   10  0.004  0.000  0.026  0.031
   11  0.000  0.001  0.018  0.019
   12  0.011  0.000  0.018  0.029
   13  0.000  0.001  0.021  0.022
   14  0.000  0.001  0.018  0.020
   15  0.002  0.000  0.052  0.055
   16  0.002  0.001  0.029  0.031
   17  0.013  0.002  0.007  0.022
   18  0.005  0.001  0.041  0.047
   19  0.003  0.000  0.058  0.061
   20  0.000  0.001  0.024  0.026
   21  0.000  0.000  0.028  0.028
   22  0.022  0.001  0.017  0.040
   23  0.000  0.002  0.023  0.025
   24  0.008  0.001  0.025  0.033
   25  0.007  0.001  0.045  0.052
   26  0.018  0.001  0.005  0.024
   27  0.004  0.001  0.027  0.031
   28  0.000  0.001  0.005  0.006
   29  0.007  0.001  0.002  0.010
   30  0.002  0.000  0.004  0.007
   31  0.001  0.001  0.006  0.008
   32  0.001  0.000  0.005  0.006
   33  0.003  0.001  0.005  0.009
   34  0.007  0.001  0.002  0.010
   35  0.000  0.001  0.008  0.009
   36  0.000  0.000  0.004  0.004
   37  0.000  0.000  0.000  0.000
tot    0.146  0.028  0.577  0.751
 
band    17 # energy   -5.21891986 # occ.  2.00000000
 
ion      s      p      d    tot
    1  0.000  0.000  0.018  0.018
    2  0.000  0.000  0.009  0.009
    3  0.002  0.001  0.007  0.010
    4  0.009  0.001  0.007  0.017
    5  0.000  0.001  0.013  0.014
    6  0.006  0.001  0.006  0.013
    7  0.008  0.001  0.008  0.016
    8  0.002  0.000  0.009  0.012
    9  0.000  0.001  0.005  0.006
   10  0.000  0.000  0.015  0.015
   11  0.000  0.000  0.048  0.049
   12  0.000  0.001  0.024  0.025
   13  0.002  0.001  0.043  0.045
   14  0.001  0.000  0.046  0.047
   15  0.000  0.000  0.007  0.007
   16  0.000  0.000  0.008  0.009
   17  0.000  0.000  0.012  0.012
   18  0.000  0.000  0.009  0.009
   19  0.000  0.000  0.006  0.006
   20  0.001  0.001  0.075  0.076
   21  0.002  0.000  0.105  0.107
   22  0.002  0.000  0.013  0.015
   23  0.000  0.001  0.054  0.055
   24  0.001  0.000  0.017  0.018
   25  0.000  0.000  0.009  0.009
   26  0.000  0.000  0.015  0.015
   27  0.000  0.000  0.020  0.020
   28  0.000  0.001  0.002  0.003
   29  0.005  0.000  0.017  0.022
   30  0.010  0.001  0.023  0.035
   31  0.004  0.001  0.012  0.017
   32  0.010  0.001  0.022  0.033
   33  0.001  0.000  0.008  0.009
   34  0.001  0.000  0.010  0.012
   35  0.000  0.000  0.019  0.019
   36  0.000  0.005  0.021  0.026
   37  0.000  0.000  0.000  0.000
tot    0.067  0.021  0.745  0.833
 
band    18 # energy   -5.21890980 # occ.  2.00000000
 
ion      s      p      d    tot
    1  0.000  0.000  0.018  0.018
    2  0.009  0.001  0.006  0.016
    3  0.007  0.000  0.008  0.016
    4  0.000  0.000  0.009  0.009
    5  0.000  0.001  0.013  0.014
    6  0.003  0.000  0.009  0.013
    7  0.001  0.001  0.007  0.009
    8  0.007  0.001  0.006  0.014
    9  0.000  0.001  0.005  0.006
   10  0.000  0.000  0.017  0.017
   11  0.001  0.001  0.044  0.046
   12  0.000  0.000  0.007  0.008
   13  0.000  0.000  0.049  0.049
   14  0.001  0.000  0.046  0.047
   15  0.000  0.000  0.012  0.012
   16  0.000  0.001  0.023  0.024
   17  0.000  0.000  0.007  0.007
   18  0.000  0.000  0.010  0.010
   19  0.000  0.000  0.014  0.014
   20  0.001  0.001  0.082  0.083
   21  0.000  0.001  0.051  0.052
   22  0.000  0.000  0.020  0.021
   23  0.002  0.000  0.102  0.104
   24  0.001  0.000  0.016  0.018
   25  0.000  0.000  0.010  0.011
   26  0.000  0.000  0.005  0.005
   27  0.002  0.000  0.014  0.016
   28  0.000  0.001  0.002  0.003
   29  0.005  0.001  0.014  0.020
   30  0.000  0.000  0.007  0.008
   31  0.006  0.001  0.018  0.025
   32  0.001  0.000  0.009  0.010
   33  0.010  0.001  0.023  0.034
   34  0.009  0.001  0.020  0.031
   35  0.000  0.000  0.019  0.019
   36  0.000  0.005  0.021  0.026
   37  0.000  0.000  0.000  0.000
tot    0.067  0.021  0.745  0.833
 
band    19 # energy   -5.21733684 # occ.  2.00000000
 
ion      s      p      d    tot
    1  0.012  0.000  0.005  0.018
    2  0.000  0.001  0.018  0.019
    3  0.000  0.001  0.018  0.019
    4  0.000  0.001  0.018  0.019
    5  0.002  0.000  0.000  0.002
    6  0.000  0.001  0.019  0.019
    7  0.000  0.001  0.018  0.019
    8  0.000  0.001  0.019  0.019
    9  0.024  0.001  0.003  0.028
   10  0.001  0.001  0.016  0.017
   11  0.000  0.000  0.012  0.012
   12  0.001  0.001  0.016  0.018
   13  0.000  0.000  0.012  0.012
   14  0.000  0.000  0.012  0.012
   15  0.000  0.000  0.033  0.033
   16  0.001  0.001  0.016  0.018
   17  0.000  0.000  0.033  0.033
   18  0.000  0.000  0.033  0.033
   19  0.000  0.000  0.031  0.032
   20  0.000  0.000  0.032  0.033
   21  0.000  0.000  0.033  0.033
   22  0.000  0.000  0.026  0.026
   23  0.000  0.000  0.033  0.033
   24  0.000  0.000  0.026  0.026
   25  0.000  0.000  0.032  0.032
   26  0.000  0.000  0.031  0.032
   27  0.000  0.000  0.026  0.026
   28  0.002  0.000  0.014  0.017
   29  0.000  0.001  0.023  0.024
   30  0.000  0.001  0.023  0.024
   31  0.000  0.001  0.023  0.024
   32  0.000  0.001  0.023  0.024
   33  0.000  0.001  0.023  0.024
   34  0.000  0.001  0.023  0.024
   35  0.014  0.001  0.000  0.015
   36  0.021  0.000  0.005  0.026
   37  0.000  0.000  0.000  0.000
tot    0.082  0.016  0.728  0.826
 
band    20 # energy   -5.18269773 # occ.  2.00000000
 
ion      s      p      d    tot
    1  0.000  0.000  0.000  0.000
    2  0.000  0.000  0.003  0.003
    3  0.000  0.000  0.003  0.003
    4  0.000  0.000  0.003  0.003
    5  0.000  0.000  0.010  0.010
    6  0.000  0.000  0.003  0.003
    7  0.000  0.000  0.003  0.003
    8  0.000  0.000  0.003  0.003
    9  0.000  0.000  0.005  0.005
   10  0.000  0.000  0.012  0.012
   11  0.000  0.000  0.046  0.046
   12  0.000  0.000  0.012  0.012
   13  0.000  0.000  0.046  0.046
   14  0.000  0.000  0.046  0.046
   15  0.000  0.000  0.026  0.027
   16  0.000  0.000  0.012  0.012
   17  0.000  0.000  0.026  0.027
   18  0.000  0.000  0.026  0.027
   19  0.000  0.001  0.022  0.022
   20  0.001  0.000  0.061  0.063
   21  0.001  0.000  0.061  0.063
   22  0.001  0.000  0.030  0.032
   23  0.001  0.000  0.061  0.063
   24  0.001  0.000  0.030  0.032
   25  0.000  0.001  0.022  0.022
   26  0.000  0.001  0.022  0.022
   27  0.001  0.000  0.030  0.032
   28  0.021  0.001  0.003  0.025
   29  0.000  0.001  0.021  0.022
   30  0.000  0.001  0.021  0.022
   31  0.000  0.001  0.021  0.022
   32  0.000  0.001  0.021  0.022
   33  0.000  0.001  0.021  0.022
   34  0.000  0.001  0.021  0.022
   35  0.014  0.000  0.004  0.018
   36  0.007  0.001  0.010  0.019
   37  0.002  0.000  0.000  0.002
tot    0.052  0.012  0.772  0.837
 
band    21 # energy   -5.13044777 # occ.  2.00000000
 
ion      s      p      d    tot
    1  0.000  0.002  0.008  0.010
    2  0.012  0.001  0.020  0.032
    3  0.011  0.001  0.013  0.025
    4  0.011  0.001  0.020  0.032
    5  0.000  0.001  0.029  0.029
    6  0.000  0.000  0.015  0.015
    7  0.010  0.001  0.013  0.024
    8  0.000  0.000  0.015  0.015
    9  0.000  0.000  0.040  0.041
   10  0.001  0.001  0.038  0.040
   11  0.000  0.000  0.018  0.018
   12  0.000  0.000  0.019  0.020
   13  0.000  0.000  0.018  0.018
   14  0.000  0.000  0.013  0.014
   15  0.000  0.001  0.032  0.032
   16  0.000  0.000  0.018  0.019
   17  0.000  0.001  0.032  0.032
   18  0.000  0.001  0.033  0.034
   19  0.000  0.000  0.016  0.016
   20  0.000  0.000  0.016  0.016
   21  0.000  0.000  0.020  0.020
   22  0.000  0.000  0.021  0.022
   23  0.000  0.000  0.020  0.021
   24  0.001  0.000  0.030  0.032
   25  0.000  0.000  0.017  0.018
   26  0.000  0.000  0.016  0.016
   27  0.000  0.000  0.021  0.021
   28  0.000  0.000  0.025  0.025
   29  0.000  0.000  0.013  0.013
   30  0.010  0.001  0.008  0.018
   31  0.000  0.000  0.014  0.014
   32  0.010  0.001  0.020  0.031
   33  0.010  0.001  0.008  0.019
   34  0.011  0.001  0.020  0.032
   35  0.000  0.001  0.003  0.004
   36  0.000  0.002  0.017  0.019