 vasp.6.2.0 18Jan21 (build Jun 12 2021 23:27:24) complex                        
  
 executed on             LinuxIFC date 2022.05.30  18:12:17
 running on   28 total cores
 distrk:  each k-point on   28 cores,    1 groups
 distr:  one band on NCORE=   1 cores,   28 groups


--------------------------------------------------------------------------------------------------------


 INCAR:
   ISMEAR = -5
   SIGMA = 0.1
   ISPIN = 1
   EDIFF = 1.d-5
   NSW = 0
   NELM = 150
   ENCUT = 500
   ISIF = 2
   IBRION = 2
   LREAL = Auto
   ALGO = Fast
   ICHARG = 11
   LORBIT = 10
   LCHARG = .F.
   LWAVE = .F.

 POTCAR:    PAW_PBE Cu 22Jun2005                  
 POTCAR:    PAW_PBE Zr_sv 04Jan2005               
 POTCAR:    PAW_PBE C 08Apr2002                   
 POTCAR:    PAW_PBE O 08Apr2002                   
 POTCAR:    PAW_PBE H 15Jun2001                   
 -----------------------------------------------------------------------------
|                                                                             |
|           W    W    AA    RRRRR   N    N  II  N    N   GGGG   !!!           |
|           W    W   A  A   R    R  NN   N  II  NN   N  G    G  !!!           |
|           W    W  A    A  R    R  N N  N  II  N N  N  G       !!!           |
|           W WW W  AAAAAA  RRRRR   N  N N  II  N  N N  G  GGG   !            |
|           WW  WW  A    A  R   R   N   NN  II  N   NN  G    G                |
|           W    W  A    A  R    R  N    N  II  N    N   GGGG   !!!           |
|                                                                             |
|     For optimal performance we recommend to set                             |
|       NCORE = 2 up to number-of-cores-per-socket                            |
|     NCORE specifies how many cores store one orbital (NPAR=cpu/NCORE).      |
|     This setting can greatly improve the performance of VASP for DFT.       |
|     The default, NCORE=1 might be grossly inefficient on modern             |
|     multi-core architectures or massively parallel machines. Do your        |
|     own testing! More info at https://www.vasp.at/wiki/index.php/NCORE      |
|     Unfortunately you need to use the default for GW and RPA                |
|     calculations (for HF NCORE is supported but not extensively tested      |
|     yet).                                                                   |
|                                                                             |
 -----------------------------------------------------------------------------

 POTCAR:    PAW_PBE Cu 22Jun2005                  
   VRHFIN =Cu: d10 p1                                                                               
   LEXCH  = PE                                                                                      
   EATOM  =  1390.9808 eV,  102.2342 Ry                                                             
                                                                                                    
   TITEL  = PAW_PBE Cu 22Jun2005                                                                    
   LULTRA =        F    use ultrasoft PP ?                                                          
   IUNSCR =        1    unscreen: 0-lin 1-nonlin 2-no                                               
   RPACOR =    2.000    partial core radius                                                         
   POMASS =   63.546; ZVAL   =   11.000    mass and valenz                                          
   RCORE  =    2.300    outmost cutoff radius                                                       
   RWIGS  =    2.200; RWIGS  =    1.164    wigner-seitz radius (au A)                               
   ENMAX  =  295.446; ENMIN  =  221.585 eV                                                          
   ICORE  =        3    local potential                                                             
   LCOR   =        T    correct aug charges                                                         
   LPAW   =        T    paw PP                                                                      
   EAUG   =  586.980                                                                                
   DEXC   =    0.000                                                                                
   RMAX   =    2.344    core radius for proj-oper                                                   
   RAUG   =    1.300    factor for augmentation sphere                                              
   RDEP   =    2.302    radius for radial grids                                                     
   RDEPT  =    1.771    core radius for aug-charge                                                  
                                                                                                    
   Atomic configuration                                                                             
    9 entries                                                                                       
     n  l   j            E        occ.                                                              
     1  0  0.50     -8850.2468   2.0000                                                             
     2  0  0.50     -1062.3498   2.0000                                                             
     2  1  1.50      -916.8226   6.0000                                                             
     3  0  0.50      -114.6929   2.0000                                                             
     3  1  1.50       -72.1325   6.0000                                                             
     3  2  2.50        -5.0394  10.0000                                                             
     4  0  0.50        -4.6097   1.0000                                                             
     4  1  0.50        -4.0817   0.0000                                                             
     4  3  2.50        -1.3606   0.0000                                                             
   Description                                                                                      
     l       E           TYP  RCUT    TYP  RCUT                                                     
     2     -5.0393973     23  2.200                                                                 
     2     10.8846608     23  2.200                                                                 
     0     -4.6097109     23  2.200                                                                 
     0      8.2520465     23  2.200                                                                 
     1     -2.7211652     23  2.200                                                                 
     1     21.7055443     23  2.200                                                                 
     3      2.7211652     23  2.300                                                                 
  local pseudopotential read in
  partial core-charges read in
  partial kinetic energy density read in
  atomic valenz-charges read in
  non local Contribution for L=           2  read in
    real space projection operators read in
  non local Contribution for L=           2  read in
    real space projection operators read in
  non local Contribution for L=           0  read in
    real space projection operators read in
  non local Contribution for L=           0  read in
    real space projection operators read in
  non local Contribution for L=           1  read in
    real space projection operators read in
  non local Contribution for L=           1  read in
    real space projection operators read in
    PAW grid and wavefunctions read in
 
   number of l-projection  operators is LMAX  =           6
   number of lm-projection operators is LMMAX =          18
 
 POTCAR:    PAW_PBE Zr_sv 04Jan2005               
   VRHFIN =Zr: 4s4p5s4d                                                                             
   LEXCH  = PE                                                                                      
   EATOM  =  1284.2219 eV,   94.3876 Ry                                                             
                                                                                                    
   TITEL  = PAW_PBE Zr_sv 04Jan2005                                                                 
   LULTRA =        F    use ultrasoft PP ?                                                          
   IUNSCR =        1    unscreen: 0-lin 1-nonlin 2-no                                               
   RPACOR =    2.200    partial core radius                                                         
   POMASS =   91.224; ZVAL   =   12.000    mass and valenz                                          
   RCORE  =    2.500    outmost cutoff radius                                                       
   RWIGS  =    3.070; RWIGS  =    1.625    wigner-seitz radius (au A)                               
   ENMAX  =  229.898; ENMIN  =  172.424 eV                                                          
   ICORE  =        3    local potential                                                             
   LCOR   =        T    correct aug charges                                                         
   LPAW   =        T    paw PP                                                                      
   EAUG   =  461.257                                                                                
   DEXC   =    0.000                                                                                
   RMAX   =    2.561    core radius for proj-oper                                                   
   RAUG   =    1.300    factor for augmentation sphere                                              
   RDEP   =    2.597    radius for radial grids                                                     
   RDEPT  =    2.007    core radius for aug-charge                                                  
                                                                                                    
   Atomic configuration                                                                             
   11 entries                                                                                       
     n  l   j            E        occ.                                                              
     1  0  0.50    -17820.0161   2.0000                                                             
     2  0  0.50     -2467.0882   2.0000                                                             
     2  1  1.50     -2199.6095   6.0000                                                             
     3  0  0.50      -402.4863   2.0000                                                             
     3  1  1.50      -315.3675   6.0000                                                             
     3  2  2.50      -172.4472  10.0000                                                             
     4  0  0.50       -52.4146   2.0000                                                             
     5  0  0.50        -3.8421   1.0000                                                             
     4  1  1.50       -30.5054   6.0000                                                             
     4  2  2.50        -2.3341   3.0000                                                             
     4  3  2.50        -1.3606   0.0000                                                             
   Description                                                                                      
     l       E           TYP  RCUT    TYP  RCUT                                                     
     0    -52.4145962     23  2.200                                                                 
     0     -3.8421270     23  2.500                                                                 
     1    -30.5053914     23  2.200                                                                 
     1     20.4087390     23  2.200                                                                 
     2     -2.3340816     23  2.500                                                                 
     2     -0.6120942     23  2.500                                                                 
     3     -4.0817478     23  2.500                                                                 
  local pseudopotential read in
  partial core-charges read in
  partial kinetic energy density read in
  atomic valenz-charges read in
  non local Contribution for L=           0  read in
    real space projection operators read in
  non local Contribution for L=           0  read in
    real space projection operators read in
  non local Contribution for L=           1  read in
    real space projection operators read in
  non local Contribution for L=           1  read in
    real space projection operators read in
  non local Contribution for L=           2  read in
    real space projection operators read in
  non local Contribution for L=           2  read in
    real space projection operators read in
    PAW grid and wavefunctions read in
 
   number of l-projection  operators is LMAX  =           6
   number of lm-projection operators is LMMAX =          18
 
 POTCAR:    PAW_PBE C 08Apr2002                   
   VRHFIN =C: s2p2                                                                                  
   LEXCH  = PE                                                                                      
   EATOM  =   147.1560 eV,   10.8157 Ry                                                             
                                                                                                    
   TITEL  = PAW_PBE C 08Apr2002                                                                     
   LULTRA =        F    use ultrasoft PP ?                                                          
   IUNSCR =        1    unscreen: 0-lin 1-nonlin 2-no                                               
   RPACOR =    1.200    partial core radius                                                         
   POMASS =   12.011; ZVAL   =    4.000    mass and valenz                                          
   RCORE  =    1.500    outmost cutoff radius                                                       
   RWIGS  =    1.630; RWIGS  =    0.863    wigner-seitz radius (au A)                               
   ENMAX  =  400.000; ENMIN  =  300.000 eV                                                          
   ICORE  =        2    local potential                                                             
   LCOR   =        T    correct aug charges                                                         
   LPAW   =        T    paw PP                                                                      
   EAUG   =  644.873                                                                                
   DEXC   =    0.000                                                                                
   RMAX   =    1.529    core radius for proj-oper                                                   
   RAUG   =    1.300    factor for augmentation sphere                                              
   RDEP   =    1.501    radius for radial grids                                                     
   RDEPT  =    1.300    core radius for aug-charge                                                  
                                                                                                    
   Atomic configuration                                                                             
    4 entries                                                                                       
     n  l   j            E        occ.                                                              
     1  0  0.50      -273.3789   2.0000                                                             
     2  0  0.50       -13.7508   2.0000                                                             
     2  1  0.50        -5.2854   2.0000                                                             
     3  2  1.50        -5.4423   0.0000                                                             
   Description                                                                                      
     l       E           TYP  RCUT    TYP  RCUT                                                     
     0    -13.7508458     23  1.200                                                                 
     0     -8.2022199     23  1.200                                                                 
     1     -5.2854383     23  1.500                                                                 
     1     34.0145650     23  1.500                                                                 
     2     -5.4423304      7  1.500                                                                 
  local pseudopotential read in
  partial core-charges read in
  partial kinetic energy density read in
  atomic valenz-charges read in
  non local Contribution for L=           0  read in
    real space projection operators read in
  non local Contribution for L=           0  read in
    real space projection operators read in
  non local Contribution for L=           1  read in
    real space projection operators read in
  non local Contribution for L=           1  read in
    real space projection operators read in
    PAW grid and wavefunctions read in
 
   number of l-projection  operators is LMAX  =           4
   number of lm-projection operators is LMMAX =           8
 
 POTCAR:    PAW_PBE O 08Apr2002                   
   VRHFIN =O: s2p4                                                                                  
   LEXCH  = PE                                                                                      
   EATOM  =   432.3788 eV,   31.7789 Ry                                                             
                                                                                                    
   TITEL  = PAW_PBE O 08Apr2002                                                                     
   LULTRA =        F    use ultrasoft PP ?                                                          
   IUNSCR =        1    unscreen: 0-lin 1-nonlin 2-no                                               
   RPACOR =    1.200    partial core radius                                                         
   POMASS =   16.000; ZVAL   =    6.000    mass and valenz                                          
   RCORE  =    1.520    outmost cutoff radius                                                       
   RWIGS  =    1.550; RWIGS  =    0.820    wigner-seitz radius (au A)                               
   ENMAX  =  400.000; ENMIN  =  300.000 eV                                                          
   ICORE  =        2    local potential                                                             
   LCOR   =        T    correct aug charges                                                         
   LPAW   =        T    paw PP                                                                      
   EAUG   =  605.392                                                                                
   DEXC   =    0.000                                                                                
   RMAX   =    1.553    core radius for proj-oper                                                   
   RAUG   =    1.300    factor for augmentation sphere                                              
   RDEP   =    1.550    radius for radial grids                                                     
   RDEPT  =    1.329    core radius for aug-charge                                                  
                                                                                                    
   Atomic configuration                                                                             
    4 entries                                                                                       
     n  l   j            E        occ.                                                              
     1  0  0.50      -514.6923   2.0000                                                             
     2  0  0.50       -23.9615   2.0000                                                             
     2  1  0.50        -9.0305   4.0000                                                             
     3  2  1.50        -9.5241   0.0000                                                             
   Description                                                                                      
     l       E           TYP  RCUT    TYP  RCUT                                                     
     0    -23.9615318     23  1.200                                                                 
     0     -9.5240782     23  1.200                                                                 
     1     -9.0304911     23  1.520                                                                 
     1      8.1634956     23  1.520                                                                 
     2     -9.5240782      7  1.500                                                                 
  local pseudopotential read in
  partial core-charges read in
  partial kinetic energy density read in
  kinetic energy density of atom read in
  atomic valenz-charges read in
  non local Contribution for L=           0  read in
    real space projection operators read in
  non local Contribution for L=           0  read in
    real space projection operators read in
  non local Contribution for L=           1  read in
    real space projection operators read in
  non local Contribution for L=           1  read in
    real space projection operators read in
    PAW grid and wavefunctions read in
 
   number of l-projection  operators is LMAX  =           4
   number of lm-projection operators is LMMAX =           8
 
 POTCAR:    PAW_PBE H 15Jun2001                   
   VRHFIN =H: ultrasoft test                                                                        
   LEXCH  = PE                                                                                      
   EATOM  =    12.4884 eV,    0.9179 Ry                                                             
                                                                                                    
   TITEL  = PAW_PBE H 15Jun2001                                                                     
   LULTRA =        F    use ultrasoft PP ?                                                          
   IUNSCR =        0    unscreen: 0-lin 1-nonlin 2-no                                               
   RPACOR =    0.000    partial core radius                                                         
   POMASS =    1.000; ZVAL   =    1.000    mass and valenz                                          
   RCORE  =    1.100    outmost cutoff radius                                                       
   RWIGS  =    0.700; RWIGS  =    0.370    wigner-seitz radius (au A)                               
   ENMAX  =  250.000; ENMIN  =  200.000 eV                                                          
   RCLOC  =    0.701    cutoff for local pot                                                        
   LCOR   =        T    correct aug charges                                                         
   LPAW   =        T    paw PP                                                                      
   EAUG   =  400.000                                                                                
   RMAX   =    1.123    core radius for proj-oper                                                   
   RAUG   =    1.200    factor for augmentation sphere                                              
   RDEP   =    1.112    radius for radial grids                                                     
   RDEPT  =    0.926    core radius for aug-charge                                                  
                                                                                                    
   Atomic configuration                                                                             
    2 entries                                                                                       
     n  l   j            E        occ.                                                              
     1  0  0.50        -6.4927   1.0000                                                             
     2  1  0.50        -3.4015   0.0000                                                             
   Description                                                                                      
     l       E           TYP  RCUT    TYP  RCUT                                                     
     0     -6.4927494     23  1.100                                                                 
     0      6.8029130     23  1.100                                                                 
     1     -4.0817478     23  1.100                                                                 
  local pseudopotential read in
  atomic valenz-charges read in
  non local Contribution for L=           0  read in
    real space projection operators read in
  non local Contribution for L=           0  read in
    real space projection operators read in
  non local Contribution for L=           1  read in
    real space projection operators read in
    PAW grid and wavefunctions read in
 
   number of l-projection  operators is LMAX  =           3
   number of lm-projection operators is LMMAX =           5
 
 Optimization of the real space projectors (new method)

 maximal supplied QI-value         = 16.25
 optimisation between [QCUT,QGAM] = [ 11.38, 22.75] = [ 36.24,144.96] Ry 
 Optimized for a Real-space Cutoff    1.52 Angstroem

   l    n(q)    QCUT    max X(q) W(low)/X(q) W(high)/X(q)  e(spline) 
   2      9    11.376     4.610    0.21E-03    0.10E-03    0.26E-06
   2      9    11.376     8.522    0.33E-03    0.16E-03    0.37E-06
   0     10    11.376    51.609    0.62E-04    0.20E-04    0.13E-06
   0     10    11.376    27.747    0.54E-04    0.20E-04    0.13E-06
   1     10    11.376    20.408    0.13E-04    0.99E-04    0.19E-06
   1     10    11.376    13.425    0.12E-04    0.87E-04    0.17E-06
 Optimization of the real space projectors (new method)

 maximal supplied QI-value         = 15.12
 optimisation between [QCUT,QGAM] = [ 11.34, 22.83] = [ 36.00,145.93] Ry 
 Optimized for a Real-space Cutoff    1.47 Angstroem

   l    n(q)    QCUT    max X(q) W(low)/X(q) W(high)/X(q)  e(spline) 
   0     10    11.338    12.107    0.38E-04    0.13E-04    0.27E-07
   0     10    11.338     9.948    0.69E-04    0.30E-04    0.38E-07
   1     10    11.338     3.563    0.26E-04    0.18E-04    0.40E-07
   1     10    11.338     4.524    0.25E-03    0.39E-04    0.44E-06
   2      9    11.338    87.261    0.26E-03    0.91E-05    0.26E-06
   2      9    11.338    70.950    0.25E-03    0.91E-05    0.25E-06
 Optimization of the real space projectors (new method)

 maximal supplied QI-value         = 25.13
 optimisation between [QCUT,QGAM] = [ 11.31, 22.87] = [ 35.82,146.48] Ry 
 Optimized for a Real-space Cutoff    1.00 Angstroem

   l    n(q)    QCUT    max X(q) W(low)/X(q) W(high)/X(q)  e(spline) 
   0      7    11.310   115.676    0.43E-03    0.13E-02    0.19E-06
   0      7    11.310    87.132    0.43E-03    0.13E-02    0.18E-06
   1      6    11.310     4.429    0.42E-03    0.74E-03    0.11E-06
   1      6    11.310     2.733    0.34E-03    0.55E-03    0.92E-07
 Optimization of the real space projectors (new method)

 maximal supplied QI-value         = 24.76
 optimisation between [QCUT,QGAM] = [ 11.39, 22.77] = [ 36.31,145.25] Ry 
 Optimized for a Real-space Cutoff    1.00 Angstroem

   l    n(q)    QCUT    max X(q) W(low)/X(q) W(high)/X(q)  e(spline) 
   0      7    11.387    20.381    0.39E-03    0.13E-02    0.15E-06
   0      7    11.387    15.268    0.42E-03    0.14E-02    0.17E-06
   1      6    11.387     5.964    0.41E-03    0.11E-02    0.17E-06
   1      6    11.387     5.382    0.39E-03    0.87E-03    0.15E-06
 Optimization of the real space projectors (new method)

 maximal supplied QI-value         = 34.20
 optimisation between [QCUT,QGAM] = [ 11.29, 22.57] = [ 35.68,142.71] Ry 
 Optimized for a Real-space Cutoff    1.16 Angstroem

   l    n(q)    QCUT    max X(q) W(low)/X(q) W(high)/X(q)  e(spline) 
   0      8    11.287    19.460    0.40E-03    0.73E-03    0.16E-06
   0      8    11.287    12.209    0.38E-03    0.70E-03    0.15E-06
   1      7    11.287     4.655    0.22E-03    0.25E-04    0.22E-06
  PAW_PBE Cu 22Jun2005                  :
 energy of atom  1       EATOM=-1390.9808
 kinetic energy error for atom=    0.0043 (will be added to EATOM!!)
  PAW_PBE Zr_sv 04Jan2005               :
 energy of atom  2       EATOM=-1284.2219
 kinetic energy error for atom=    0.0049 (will be added to EATOM!!)
  PAW_PBE C 08Apr2002                   :
 energy of atom  3       EATOM= -147.1560
 kinetic energy error for atom=    0.0076 (will be added to EATOM!!)
  PAW_PBE O 08Apr2002                   :
 energy of atom  4       EATOM= -432.3788
 kinetic energy error for atom=    0.0224 (will be added to EATOM!!)
  PAW_PBE H 15Jun2001                   :
 energy of atom  5       EATOM=  -12.4884
 kinetic energy error for atom=    0.0020 (will be added to EATOM!!)
 
 
 POSCAR: Cu-Zr-COH
  positions in direct lattice
  velocities in cartesian coordinates
 exchange correlation table for  LEXCH =        8
   RHO(1)=    0.500       N(1)  =     2000
   RHO(2)=  100.500       N(2)  =     4000

 VTST: version 3.2, (02/03/18)

 CHAIN: initializing optimizer
 
 OPT: Using VASP Conjugate-Gradient optimizer
 CHAIN: Read ICHAIN            0
 
 POSCAR: Cu-Zr-COH
  positions in direct lattice
  velocities in cartesian coordinates
 


--------------------------------------------------------------------------------------------------------


 ion  position               nearest neighbor table
   1  0.000  0.000  0.206-   7 2.57   3 2.57   4 2.57   2 2.57   6 2.57   8 2.57  12 2.57  10 2.57
                            16 2.57
   2  0.333  0.000  0.206-   8 2.57   9 2.57   5 2.57   1 2.57   3 2.57  11 2.57   4 2.57  10 2.57
                            17 2.57
   3  0.667  0.000  0.206-   1 2.57   7 2.57   6 2.57   9 2.57   2 2.57  12 2.57   5 2.57  18 2.57
                            11 2.57
   4  0.000  0.333  0.206-   5 2.57   6 2.57   1 2.57   7 2.57   2 2.57  13 2.57   9 2.57  10 2.57
                            15 2.57
   5  0.333  0.333  0.206-   4 2.57   2 2.57   7 2.57  13 2.57   8 2.57   6 2.57   3 2.57  11 2.57
                            14 2.57
   6  0.667  0.333  0.206-   4 2.57   9 2.57  15 2.57   3 2.57   1 2.57   8 2.57  14 2.57   5 2.57
                            12 2.57
   7  0.000  0.667  0.206-   1 2.57   3 2.57  16 2.57  18 2.57   4 2.57   5 2.57   8 2.57   9 2.57
                            13 2.57
   8  0.333  0.667  0.206-   9 2.57   2 2.57  17 2.57   6 2.57   1 2.57   7 2.57   5 2.57  14 2.57
                            16 2.57
   9  0.667  0.667  0.206-   8 2.57   6 2.57   2 2.57  17 2.57   3 2.57   7 2.57   4 2.57  15 2.57
                            18 2.57
  10  0.111  0.111  0.286-  26 2.54  19 2.54  11 2.57  12 2.57  13 2.57   1 2.57   2 2.57   4 2.57
                            15 2.57  16 2.57  17 2.57  20 2.59
  11  0.444  0.111  0.286-  27 2.56  10 2.57  13 2.57   2 2.57  17 2.57  14 2.57  12 2.57   5 2.57
                             3 2.57  18 2.57  20 2.58  21 2.58
  12  0.778  0.111  0.286-  19 2.54  25 2.54  15 2.57  10 2.57  14 2.57  18 2.57   3 2.57   1 2.57
                            16 2.57  11 2.57   6 2.57  21 2.59
  13  0.111  0.444  0.286-  22 2.56  16 2.57  18 2.57  10 2.57  11 2.57  14 2.57   5 2.57   4 2.57
                             7 2.57  15 2.57  23 2.58  20 2.58
  14  0.444  0.444  0.286-  24 2.56  15 2.57  17 2.57  12 2.57  16 2.57  13 2.57  11 2.57   6 2.57
                             8 2.57   5 2.57  21 2.58  23 2.58
  15  0.778  0.444  0.286-  19 2.54  24 2.56  22 2.56  14 2.57  17 2.57  12 2.57   6 2.57  18 2.57
                            10 2.57   9 2.57  13 2.57   4 2.57
  16  0.111  0.778  0.286-  25 2.54  26 2.54  18 2.57  13 2.57   7 2.57  14 2.57  17 2.57  12 2.57
                            10 2.57   8 2.57   1 2.57  23 2.59
  17  0.444  0.778  0.286-  26 2.54  27 2.56  24 2.56  14 2.57  15 2.57   8 2.57   9 2.57  11 2.57
                            16 2.57  18 2.57  10 2.57   2 2.57
  18  0.778  0.778  0.286-  25 2.54  22 2.56  27 2.56  16 2.57  13 2.57   7 2.57  15 2.57  12 2.57
                            17 2.57   9 2.57   3 2.57  11 2.57
  19  0.889  0.221  0.365-  12 2.54  10 2.54  15 2.54  25 2.55  26 2.55  32 2.56  31 2.56  22 2.57
                            24 2.57  28 2.57  21 2.58  20 2.58
  20  0.223  0.223  0.367-  23 2.55  21 2.55  29 2.57  31 2.57  27 2.57  22 2.57  26 2.58  19 2.58
                            11 2.58  13 2.58  10 2.59  36 2.86
  21  0.554  0.223  0.367-  20 2.55  23 2.55  32 2.57  30 2.57  24 2.57  27 2.57  19 2.58  25 2.58
                            14 2.58  11 2.58  12 2.59  36 2.86
  22  0.889  0.556  0.366-  18 2.56  15 2.56  13 2.56  31 2.56  33 2.56  24 2.57  27 2.57  23 2.57
                            20 2.57  19 2.57  25 2.57  35 2.58
  23  0.223  0.554  0.367-  20 2.55  21 2.55  33 2.57  34 2.57  22 2.57  24 2.57  25 2.58  26 2.58
                            13 2.58  14 2.58  16 2.59  36 2.86
  24  0.556  0.556  0.366-  15 2.56  17 2.56  14 2.56  32 2.56  34 2.56  22 2.57  27 2.57  21 2.57
                            23 2.57  19 2.57  26 2.57  35 2.58
  25  0.889  0.889  0.365-  12 2.54  16 2.54  18 2.54  19 2.55  26 2.55  33 2.56  30 2.56  22 2.57
                            27 2.57  28 2.57  21 2.58  23 2.58
  26  0.221  0.889  0.365-  10 2.54  16 2.54  17 2.54  25 2.55  19 2.55  29 2.56  34 2.56  27 2.57
                            24 2.57  28 2.57  20 2.58  23 2.58
  27  0.556  0.889  0.366-  17 2.56  18 2.56  11 2.56  29 2.56  30 2.56  24 2.57  22 2.57  20 2.57
                            21 2.57  26 2.57  25 2.57  35 2.58
  28  0.000  0.000  0.445-  33 2.55  30 2.55  31 2.55  29 2.55  32 2.55  34 2.55  25 2.57  19 2.57
                            26 2.57
  29  0.334  0.994  0.445-  34 2.47  35 2.54  28 2.55  27 2.56  26 2.56  20 2.57  30 2.60  31 2.62
                            36 2.64
  30  0.672  0.994  0.445-  33 2.47  35 2.54  28 2.55  27 2.56  25 2.56  21 2.57  29 2.60  32 2.62
                            36 2.64
  31  0.994  0.334  0.445-  32 2.47  35 2.54  28 2.55  22 2.56  19 2.56  20 2.57  33 2.60  29 2.62
                            36 2.64
  32  0.672  0.334  0.445-  31 2.47  35 2.54  28 2.55  24 2.56  19 2.56  21 2.57  34 2.60  30 2.62
                            36 2.64
  33  0.994  0.672  0.445-  30 2.47  35 2.54  28 2.55  22 2.56  25 2.56  23 2.57  31 2.60  34 2.62
                            36 2.64
  34  0.334  0.672  0.445-  29 2.47  35 2.54  28 2.55  24 2.56  26 2.56  23 2.57  32 2.60  33 2.62
                            36 2.64
  35  0.667  0.667  0.446-  34 2.54  32 2.54  29 2.54  30 2.54  33 2.54  31 2.54  24 2.58  27 2.58
                            22 2.58
  36  0.333  0.333  0.460-  37 2.08  31 2.64  29 2.64  33 2.64  32 2.64  34 2.64  30 2.64  23 2.86
                            20 2.86  21 2.86
  37  0.333  0.333  0.540-  38 1.27  36 2.08
  38  0.333  0.333  0.589-  39 0.96  37 1.27
  39  0.333  0.333  0.625-  38 0.96
 
  LATTYP: Found a hexagonal cell.
 ALAT       =     7.6967864036
 C/A-ratio  =     3.3950614187
  
  Lattice vectors:
  
 A1 = (  -3.8483927580,  -6.6656128093,   0.0000000000)
 A2 = (   7.6967864037,   0.0000000000,   0.0000000000)
 A3 = (   0.0000000000,   0.0000000000,  26.1310625667)


Analysis of symmetry for initial positions (statically):
=====================================================================
 Subroutine PRICEL returns:
 Original cell was already a primitive cell.
 

 Routine SETGRP: Setting up the symmetry group for a 
 hexagonal supercell.


 Subroutine GETGRP returns: Found  6 space group operations
 (whereof  6 operations were pure point group operations)
 out of a pool of 24 trial point group operations.


The static configuration has the point symmetry C_3v.


Analysis of symmetry for dynamics (positions and initial velocities):
=====================================================================
 Subroutine PRICEL returns:
 Original cell was already a primitive cell.
 

 Routine SETGRP: Setting up the symmetry group for a 
 hexagonal supercell.


 Subroutine GETGRP returns: Found  6 space group operations
 (whereof  6 operations were pure point group operations)
 out of a pool of 24 trial point group operations.


The dynamic configuration has the point symmetry C_3v.


Analysis of constrained symmetry for selective dynamics:
=====================================================================
 Subroutine PRICEL returns:
 Original cell was already a primitive cell.
 

 Routine SETGRP: Setting up the symmetry group for a 
 hexagonal supercell.


 Subroutine GETGRP returns: Found  6 space group operations
 (whereof  6 operations were pure point group operations)
 out of a pool of 24 trial point group operations.


The constrained configuration has the point symmetry C_3v.


 Subroutine INISYM returns: Found  6 space group operations
 (whereof  6 operations are pure point group operations),
 and found     1 'primitive' translations


----------------------------------------------------------------------------------------

                                     Primitive cell                                     

  volume of cell :    1340.6228

  direct lattice vectors                    reciprocal lattice vectors
     7.696786404  0.000000000  0.000000000     0.129924354 -0.075011849  0.000000000
     3.848392758  6.665612809  0.000000000     0.000000000  0.150023716  0.000000000
     0.000000000  0.000000000 26.131062567     0.000000000  0.000000000  0.038268631

  length of vectors
     7.696786404  7.696786404 26.131062567     0.150023716  0.150023716  0.038268631

  position of ions in fractional coordinates (direct lattice)
     0.000000000  0.000000000  0.205562236
     0.333333343  0.000000000  0.205562236
     0.666666687  0.000000000  0.205562236
     0.000000000  0.333333343  0.205562236
     0.333333313  0.333333343  0.205562236
     0.666666687  0.333333343  0.205562236
     0.000000000  0.666666687  0.205562236
     0.333333373  0.666666687  0.205562236
     0.666666627  0.666666687  0.205562236
     0.111111119  0.111111112  0.285727375
     0.444444418  0.111111112  0.285727375
     0.777777791  0.111111112  0.285727375
     0.111111119  0.444444448  0.285727375
     0.444444478  0.444444448  0.285727375
     0.777777731  0.444444448  0.285727375
     0.111111112  0.777777731  0.285727375
     0.444444478  0.777777731  0.285727375
     0.777777851  0.777777731  0.285727375
     0.889406203  0.221187610  0.364670218
     0.223097349  0.223097334  0.366651248
     0.553805361  0.223097334  0.366651248
     0.888858350  0.555570795  0.365536313
     0.223097319  0.553805301  0.366651248
     0.555570855  0.555570795  0.365536313
     0.889406203  0.889406203  0.364670218
     0.221187625  0.889406203  0.364670218
     0.555570795  0.888858350  0.365536313
     0.000000000  0.000000000  0.445357093
     0.334159469  0.993667856  0.445480637
     0.672172705  0.993667856  0.445480637
     0.993667856  0.334159469  0.445480637
     0.672172705  0.334159469  0.445480637
     0.993667856  0.672172705  0.445480637
     0.334159499  0.672172705  0.445480637
     0.666666627  0.666666687  0.446472069
     0.333333313  0.333333343  0.460482553
     0.333333313  0.333333343  0.540137683
     0.333333313  0.333333343  0.588710832
     0.333333313  0.333333343  0.625346739

  ion indices of the primitive-cell ions
   primitive index   ion index
                 1           1
                 2           2
                 3           3
                 4           4
                 5           5
                 6           6
                 7           7
                 8           8
                 9           9
                10          10
                11          11
                12          12
                13          13
                14          14
                15          15
                16          16
                17          17
                18          18
                19          19
                20          20
                21          21
                22          22
                23          23
                24          24
                25          25
                26          26
                27          27
                28          28
                29          29
                30          30
                31          31
                32          32
                33          33
                34          34
                35          35
                36          36
                37          37
                38          38
                39          39

----------------------------------------------------------------------------------------

 
 
 KPOINTS: Automatic mesh                          

Automatic generation of k-mesh.
 Grid dimensions read from file:
 generate k-points for:    8    8    1

 Generating k-lattice:

  Cartesian coordinates                     Fractional coordinates (reciprocal lattice)
     0.016240544 -0.009376481  0.000000000     0.125000000  0.000000000  0.000000000
     0.000000000  0.018752964  0.000000000     0.000000000  0.125000000  0.000000000
     0.000000000  0.000000000  0.038268631     0.000000000  0.000000000  1.000000000

  Length of vectors
     0.018752964  0.018752964  0.038268631

  Shift w.r.t. Gamma in fractional coordinates (k-lattice)
     0.000000000  0.000000000  0.000000000

 TETIRR: Found     36 inequivalent tetrahedra from      384
 
 Subroutine IBZKPT returns following result:
 ===========================================
 
 Found     10 irreducible k-points:
 
 Following reciprocal coordinates:
            Coordinates               Weight
  0.000000  0.000000  0.000000      1.000000
  0.125000 -0.000000  0.000000      6.000000
  0.250000 -0.000000  0.000000      6.000000
  0.375000 -0.000000  0.000000      6.000000
  0.500000 -0.000000  0.000000      3.000000
  0.250000  0.125000  0.000000      6.000000
  0.375000  0.125000  0.000000     12.000000
  0.500000  0.125000  0.000000     12.000000
  0.500000  0.250000  0.000000      6.000000
 -0.375000  0.250000  0.000000      6.000000
 
 Following cartesian coordinates:
            Coordinates               Weight
  0.000000  0.000000  0.000000      1.000000
  0.016241 -0.009376  0.000000      6.000000
  0.032481 -0.018753  0.000000      6.000000
  0.048722 -0.028129  0.000000      6.000000
  0.064962 -0.037506  0.000000      3.000000
  0.032481  0.000000  0.000000      6.000000
  0.048722 -0.009376  0.000000     12.000000
  0.064962 -0.018753  0.000000     12.000000
  0.064962  0.000000  0.000000      6.000000
 -0.048722  0.065635  0.000000      6.000000
 


--------------------------------------------------------------------------------------------------------




 Dimension of arrays:
   k-points           NKPTS =     10   k-points in BZ     NKDIM =     10   number of bands    NBANDS=    252
   number of dos      NEDOS =    301   number of ions     NIONS =     39
   non local maximal  LDIM  =      6   non local SUM 2l+1 LMDIM =     18
   total plane-waves  NPLWV = 254016
   max r-space proj   IRMAX =   2829   max aug-charges    IRDMAX=   8077
   dimension x,y,z NGX =    42 NGY =   42 NGZ =  144
   dimension x,y,z NGXF=    84 NGYF=   84 NGZF=  288
   support grid    NGXF=    84 NGYF=   84 NGZF=  288
   ions per type =              35   1   1   1   1
   NGX,Y,Z   is equivalent  to a cutoff of   9.07,  9.07,  9.16 a.u.
   NGXF,Y,Z  is equivalent  to a cutoff of  18.14, 18.14, 18.32 a.u.

 SYSTEM =  unknown system                          
 POSCAR =  Cu-Zr-COH                               

 Startparameter for this run:
   NWRITE =      2    write-flag & timer
   PREC   = normal    normal or accurate (medium, high low for compatibility)
   ISTART =      0    job   : 0-new  1-cont  2-samecut
   ICHARG =     11    charge: 1-file 2-atom 10-const
   ISPIN  =      1    spin polarized calculation?
   LNONCOLLINEAR =      F non collinear calculations
   LSORBIT =      F    spin-orbit coupling
   INIWAV =      1    electr: 0-lowe 1-rand  2-diag
   LASPH  =      F    aspherical Exc in radial PAW
   METAGGA=      F    non-selfconsistent MetaGGA calc.

 Electronic Relaxation 1
   ENCUT  =  500.0 eV  36.75 Ry    6.06 a.u.  14.03 14.03 47.64*2*pi/ulx,y,z
   ENINI  =  500.0     initial cutoff
   ENAUG  =  644.9 eV  augmentation charge cutoff
   NELM   =    150;   NELMIN=  2; NELMDL= -5     # of ELM steps 
   EDIFF  = 0.1E-04   stopping-criterion for ELM
   LREAL  =      T    real-space projection
   NLSPLINE    = F    spline interpolate recip. space projectors
   LCOMPAT=      F    compatible to vasp.4.4
   GGA_COMPAT  = T    GGA compatible to vasp.4.4-vasp.4.6
   LMAXPAW     = -100 max onsite density
   LMAXMIX     =    2 max onsite mixed and CHGCAR
   VOSKOWN=      0    Vosko Wilk Nusair interpolation
   ROPT   =   -0.00050  -0.00050  -0.00050  -0.00050
   ROPT   =   -0.00050
 Ionic relaxation
   EDIFFG = 0.1E-03   stopping-criterion for IOM
   NSW    =      0    number of steps for IOM
   NBLOCK =      1;   KBLOCK =      1    inner block; outer block 
   IBRION =     -1    ionic relax: 0-MD 1-quasi-New 2-CG
   NFREE  =      1    steps in history (QN), initial steepest desc. (CG)
   ISIF   =      2    stress and relaxation
   IWAVPR =     10    prediction:  0-non 1-charg 2-wave 3-comb
   ISYM   =      2    0-nonsym 1-usesym 2-fastsym
   LCORR  =      T    Harris-Foulkes like correction to forces

   POTIM  = 0.5000    time-step for ionic-motion
   TEIN   =    0.0    initial temperature
   TEBEG  =    0.0;   TEEND  =   0.0 temperature during run
   SMASS  =  -3.00    Nose mass-parameter (am)
   estimated Nose-frequenzy (Omega)   =  0.10E-29 period in steps = 0.13E+47 mass=  -0.135E-26a.u.
   SCALEE = 1.0000    scale energy and forces
   NPACO  =    256;   APACO  = 16.0  distance and # of slots for P.C.
   PSTRESS=    0.0 pullay stress

  Mass of Ions in am
   POMASS =  63.55 91.22 12.01 16.00  1.00
  Ionic Valenz
   ZVAL   =  11.00 12.00  4.00  6.00  1.00
  Atomic Wigner-Seitz radii
   RWIGS  =  -1.00 -1.00 -1.00 -1.00 -1.00
  virtual crystal weights 
   VCA    =   1.00  1.00  1.00  1.00  1.00
   NELECT =     408.0000    total number of electrons
   NUPDOWN=      -1.0000    fix difference up-down

 DOS related values:
   EMIN   =  10.00;   EMAX   =-10.00  energy-range for DOS
   EFERMI =   0.00
   ISMEAR =    -5;   SIGMA  =   0.10  broadening in eV -4-tet -1-fermi 0-gaus

 Electronic relaxation 2 (details)
   IALGO  =     68    algorithm
   LDIAG  =      T    sub-space diagonalisation (order eigenvalues)
   LSUBROT=      F    optimize rotation matrix (better conditioning)
   TURBO    =      0    0=normal 1=particle mesh
   IRESTART =      0    0=no restart 2=restart with 2 vectors
   NREBOOT  =      0    no. of reboots
   NMIN     =      0    reboot dimension
   EREF     =   0.00    reference energy to select bands
   IMIX   =      4    mixing-type and parameters
     AMIX     =   0.40;   BMIX     =  1.00
     AMIX_MAG =   1.60;   BMIX_MAG =  1.00
     AMIN     =   0.10
     WC   =   100.;   INIMIX=   1;  MIXPRE=   1;  MAXMIX= -45

 Intra band minimization:
   WEIMIN = 0.0000     energy-eigenvalue tresh-hold
   EBREAK =  0.99E-08  absolut break condition
   DEPER  =   0.30     relativ break condition  

   TIME   =   0.40     timestep for ELM

  volume/ion in A,a.u.               =      34.37       231.97
  Fermi-wavevector in a.u.,A,eV,Ry     =   1.101183  2.080933 16.498468  1.212603
  Thomas-Fermi vector in A             =   2.237606
 
 Write flags
   LWAVE        =      F    write WAVECAR
   LDOWNSAMPLE  =      F    k-point downsampling of WAVECAR
   LCHARG       =      F    write CHGCAR
   LVTOT        =      F    write LOCPOT, total local potential
   LVHAR        =      F    write LOCPOT, Hartree potential only
   LELF         =      F    write electronic localiz. function (ELF)
   LORBIT       =     10    0 simple, 1 ext, 2 COOP (PROOUT), +10 PAW based schemes


 Dipole corrections
   LMONO  =      F    monopole corrections only (constant potential shift)
   LDIPOL =      F    correct potential (dipole corrections)
   IDIPOL =      0    1-x, 2-y, 3-z, 4-all directions 
   EPSILON=  1.0000000 bulk dielectric constant

 Exchange correlation treatment:
   GGA     =    --    GGA type
   LEXCH   =     8    internal setting for exchange type
   VOSKOWN=      0    Vosko Wilk Nusair interpolation
   LHFCALC =     F    Hartree Fock is set to
   LHFONE  =     F    Hartree Fock one center treatment
   AEXX    =    0.0000 exact exchange contribution

 Linear response parameters
   LEPSILON=     F    determine dielectric tensor
   LRPA    =     F    only Hartree local field effects (RPA)
   LNABLA  =     F    use nabla operator in PAW spheres
   LVEL    =     F    velocity operator in full k-point grid
   LINTERFAST=   F  fast interpolation
   KINTER  =     0    interpolate to denser k-point grid
   CSHIFT  =0.1000    complex shift for real part using Kramers Kronig
   OMEGAMAX=  -1.0    maximum frequency
   DEG_THRESHOLD= 0.2000000E-02 threshold for treating states as degnerate
   RTIME   =   -0.100 relaxation time in fs
  (WPLASMAI=    0.000 imaginary part of plasma frequency in eV, 0.658/RTIME)
   DFIELD  = 0.0000000 0.0000000 0.0000000 field for delta impulse in time
 
 Orbital magnetization related:
   ORBITALMAG=     F  switch on orbital magnetization
   LCHIMAG   =     F  perturbation theory with respect to B field
   DQ        =  0.001000  dq finite difference perturbation B field
   LLRAUG    =     F  two centre corrections for induced B field



--------------------------------------------------------------------------------------------------------


 Static calculation
 charge density and potential remain constant during run
 non-spin polarized calculation
 RMM-DIIS sequential band-by-band and
  variant of blocked Davidson during initial phase
 perform sub-space diagonalisation
    before iterative eigenvector-optimisation
 no mixing
 using additional bands           48
 real space projection scheme for non local part
 use partial core corrections
 calculate Harris-corrections to forces 
   (improved forces if not selfconsistent)
 use gradient corrections 
 WARNING: stress and forces are not correct
  (second derivative of E(xc) not defined)
 use of overlap-Matrix (Vanderbilt PP)
 Fermi weights with tetrahedron method with Bloechl corrections


--------------------------------------------------------------------------------------------------------


  energy-cutoff  :      500.00
  volume of cell :     1340.62
      direct lattice vectors                 reciprocal lattice vectors
     7.696786404  0.000000000  0.000000000     0.129924354 -0.075011849  0.000000000
     3.848392758  6.665612809  0.000000000     0.000000000  0.150023716  0.000000000
     0.000000000  0.000000000 26.131062567     0.000000000  0.000000000  0.038268631

  length of vectors
     7.696786404  7.696786404 26.131062567     0.150023716  0.150023716  0.038268631


 
 k-points in units of 2pi/SCALE and weight: Automatic mesh                          
   0.00000000  0.00000000  0.00000000       0.016
   0.01624054 -0.00937648  0.00000000       0.094
   0.03248109 -0.01875296  0.00000000       0.094
   0.04872163 -0.02812944  0.00000000       0.094
   0.06496218 -0.03750592  0.00000000       0.047
   0.03248109  0.00000000  0.00000000       0.094
   0.04872163 -0.00937648  0.00000000       0.188
   0.06496218 -0.01875296  0.00000000       0.188
   0.06496218  0.00000000  0.00000000       0.094
  -0.04872163  0.06563537  0.00000000       0.094
 
 k-points in reciprocal lattice and weights: Automatic mesh                          
   0.00000000  0.00000000  0.00000000       0.016
   0.12500000 -0.00000000  0.00000000       0.094
   0.25000000 -0.00000000  0.00000000       0.094
   0.37500000 -0.00000000  0.00000000       0.094
   0.50000000 -0.00000000  0.00000000       0.047
   0.25000000  0.12500000  0.00000000       0.094
   0.37500000  0.12500000  0.00000000       0.188
   0.50000000  0.12500000  0.00000000       0.188
   0.50000000  0.25000000  0.00000000       0.094
  -0.37500000  0.25000000  0.00000000       0.094
 
 position of ions in fractional coordinates (direct lattice) 
   0.00000000  0.00000000  0.20556224
   0.33333334  0.00000000  0.20556224
   0.66666669  0.00000000  0.20556224
   0.00000000  0.33333334  0.20556224
   0.33333331  0.33333334  0.20556224
   0.66666669  0.33333334  0.20556224
   0.00000000  0.66666669  0.20556224
   0.33333337  0.66666669  0.20556224
   0.66666663  0.66666669  0.20556224
   0.11111112  0.11111111  0.28572738
   0.44444442  0.11111111  0.28572738
   0.77777779  0.11111111  0.28572738
   0.11111112  0.44444445  0.28572738
   0.44444448  0.44444445  0.28572738
   0.77777773  0.44444445  0.28572738
   0.11111111  0.77777773  0.28572738
   0.44444448  0.77777773  0.28572738
   0.77777785  0.77777773  0.28572738
   0.88940620  0.22118761  0.36467022
   0.22309735  0.22309733  0.36665125
   0.55380536  0.22309733  0.36665125
   0.88885835  0.55557079  0.36553631
   0.22309732  0.55380530  0.36665125
   0.55557085  0.55557079  0.36553631
   0.88940620  0.88940620  0.36467022
   0.22118762  0.88940620  0.36467022
   0.55557079  0.88885835  0.36553631
   0.00000000  0.00000000  0.44535709
   0.33415947  0.99366786  0.44548064
   0.67217271  0.99366786  0.44548064
   0.99366786  0.33415947  0.44548064
   0.67217271  0.33415947  0.44548064
   0.99366786  0.67217271  0.44548064
   0.33415950  0.67217271  0.44548064
   0.66666663  0.66666669  0.44647207
   0.33333331  0.33333334  0.46048255
   0.33333331  0.33333334  0.54013768
   0.33333331  0.33333334  0.58871083
   0.33333331  0.33333334  0.62534674
 
 position of ions in cartesian coordinates  (Angst):
   0.00000000  0.00000000  5.37155964
   2.56559554  0.00000000  5.37155964
   5.13119109  0.00000000  5.37155964
   1.28279762  2.22187100  5.37155964
   3.84839293  2.22187100  5.37155964
   6.41398872  2.22187100  5.37155964
   2.56559525  4.44374201  5.37155964
   5.13119102  4.44374201  5.37155964
   7.69678588  4.44374201  5.37155964
   1.28279775  0.74062365  7.46635991
   3.84839295  0.74062365  7.46635991
   6.41398873  0.74062365  7.46635991
   2.56559535  2.96249461  7.46635991
   5.13119101  2.96249461  7.46635991
   7.69678586  2.96249461  7.46635991
   3.84839268  5.18436521  7.46635991
   6.41398840  5.18436521  7.46635991
   8.97958418  5.18436521  7.46635991
   7.69678637  1.47435097  9.52922029
   2.57569881  1.48708045  9.58098670
   5.12108774  1.48708045  9.58098670
   8.97940749  3.70321981  9.55185227
   3.84839273  3.69145171  9.58098670
   6.41416482  3.70321981  9.55185227
  10.26835396  5.92843738  9.52922029
   5.12521829  5.92843738  9.52922029
   7.69678578  5.92478561  9.55185227
   0.00000000  0.00000000 11.63765405
   6.39597824  6.62340519 11.64088240
   8.99759392  6.62340519 11.64088240
   8.93402612  2.22737764 11.64088240
   6.45954662  2.22737764 11.64088240
  10.23483381  4.48044299 11.64088240
   5.15873886  4.48044299 11.64088240
   7.69678588  4.44374201 11.66678957
   3.84839293  2.22187100 12.03289841
   3.84839293  2.22187100 14.11437158
   3.84839293  2.22187100 15.38363957
   3.84839293  2.22187100 16.34097477
 


--------------------------------------------------------------------------------------------------------


 k-point   1 :   0.0000 0.0000 0.0000  plane waves:   33965
 k-point   2 :   0.1250-0.0000 0.0000  plane waves:   33959
 k-point   3 :   0.2500-0.0000 0.0000  plane waves:   34022
 k-point   4 :   0.3750-0.0000 0.0000  plane waves:   33996
 k-point   5 :   0.5000-0.0000 0.0000  plane waves:   34022
 k-point   6 :   0.2500 0.1250 0.0000  plane waves:   34000
 k-point   7 :   0.3750 0.1250 0.0000  plane waves:   34040
 k-point   8 :   0.5000 0.1250 0.0000  plane waves:   34057
 k-point   9 :   0.5000 0.2500 0.0000  plane waves:   34090
 k-point  10 :  -0.3750 0.2500 0.0000  plane waves:   34090

 maximum and minimum number of plane-waves per node :     34090    33959

 maximum number of plane-waves:     34090
 maximum index in each direction: 
   IXMAX=   14   IYMAX=   14   IZMAX=   47
   IXMIN=  -14   IYMIN=  -14   IZMIN=  -47


 serial   3D FFT for wavefunctions
 parallel 3D FFT for charge:
    minimum data exchange during FFTs selected (reduces bandwidth)


 total amount of memory used by VASP MPI-rank0   117553. kBytes
=======================================================================

   base      :      30000. kBytes
   nonlr-proj:      17346. kBytes
   fftplans  :       3497. kBytes
   grid      :      16027. kBytes
   one-center:        606. kBytes
   wavefun   :      50077. kBytes
 
     INWAV:  cpu time    0.0000: real time    0.0000
 initial charge density was supplied:
 number of electron     407.9999760 magnetization 
 keeping initial charge density in first step


--------------------------------------------------------------------------------------------------------


 Maximum index for non-local projection operator         2717
 Maximum index for augmentation-charges          428 (set IRDMAX)


--------------------------------------------------------------------------------------------------------


 First call to EWALD:  gamma=   0.161
 Maximum number of real-space cells 4x 4x 1
 Maximum number of reciprocal cells 2x 2x 6

    FEWALD:  cpu time    0.0014: real time    0.0014


--------------------------------------- Iteration      1(   1)  ---------------------------------------


    POTLOK:  cpu time    0.0330: real time    0.0333
    SETDIJ:  cpu time    0.0041: real time    0.0042
     EDDAV:  cpu time    6.6509: real time    6.6525
 BZINTS: Fermi energy:   12.528450;  408.000000 electrons
         Band energy: 0.235483E+04;  BLOECHL correction:   -0.051921
       DOS:  cpu time    0.0106: real time    0.0107
    --------------------------------------------
      LOOP:  cpu time    6.6986: real time    6.7006

 eigenvalue-minimisations  :  5040
 total energy-change (2. order) : 0.3719288E+04  (-0.1727096E+05)
 number of electron     407.9999760 magnetization 
 augmentation part      407.9999760 magnetization 

 Free energy of the ion-electron system (eV)
  ---------------------------------------------------
  alpha Z        PSCENC =       755.91226284
  Ewald energy   TEWEN  =    244566.71149797
  -Hartree energ DENC   =   -292418.07499397
  -exchange      EXHF   =         0.00000000
  -V(xc)+E(xc)   XCENC  =      1651.34987597
  PAW double counting   =     48298.68948381   -52050.51886199
  entropy T*S    EENTRO =         0.00000000
  eigenvalues    EBANDS =      2354.83158209
  atomic energy  EATOM  =     50560.38741306
  Solvation  Ediel_sol  =         0.00000000
  ---------------------------------------------------
  free energy    TOTEN  =      3719.28825977 eV

  energy without entropy =     3719.28825977  energy(sigma->0) =     3719.28825977


--------------------------------------------------------------------------------------------------------




--------------------------------------- Iteration      1(   2)  ---------------------------------------


     EDDAV:  cpu time    7.2558: real time    7.2561
 BZINTS: Fermi energy:    2.890298;  408.000000 electrons
         Band energy:-0.102321E+04;  BLOECHL correction:   -0.015451
       DOS:  cpu time    0.0104: real time    0.0104
    --------------------------------------------
      LOOP:  cpu time    7.2663: real time    7.2665

 eigenvalue-minimisations  :  5600
 total energy-change (2. order) :-0.3378046E+04  (-0.3255105E+04)
 number of electron     407.9999760 magnetization 
 augmentation part      407.9999760 magnetization 

 Free energy of the ion-electron system (eV)
  ---------------------------------------------------
  alpha Z        PSCENC =       755.91226284
  Ewald energy   TEWEN  =    244566.71149797
  -Hartree energ DENC   =   -292418.07499397
  -exchange      EXHF   =         0.00000000
  -V(xc)+E(xc)   XCENC  =      1651.34987597
  PAW double counting   =     48298.68948381   -52050.51886199
  entropy T*S    EENTRO =         0.00000000
  eigenvalues    EBANDS =     -1023.21412228
  atomic energy  EATOM  =     50560.38741306
  Solvation  Ediel_sol  =         0.00000000
  ---------------------------------------------------
  free energy    TOTEN  =       341.24255540 eV

  energy without entropy =      341.24255540  energy(sigma->0) =      341.24255540


--------------------------------------------------------------------------------------------------------




--------------------------------------- Iteration      1(   3)  ---------------------------------------


     EDDAV:  cpu time    7.3761: real time    7.3762
 BZINTS: Fermi energy:    0.325946;  408.000000 electrons
         Band energy:-0.147697E+04;  BLOECHL correction:   -0.032312
       DOS:  cpu time    0.0104: real time    0.0103
    --------------------------------------------
      LOOP:  cpu time    7.3865: real time    7.3866

 eigenvalue-minimisations  :  5740
 total energy-change (2. order) :-0.4537600E+03  (-0.4344714E+03)
 number of electron     407.9999760 magnetization 
 augmentation part      407.9999760 magnetization 

 Free energy of the ion-electron system (eV)
  ---------------------------------------------------
  alpha Z        PSCENC =       755.91226284
  Ewald energy   TEWEN  =    244566.71149797
  -Hartree energ DENC   =   -292418.07499397
  -exchange      EXHF   =         0.00000000
  -V(xc)+E(xc)   XCENC  =      1651.34987597
  PAW double counting   =     48298.68948381   -52050.51886199
  entropy T*S    EENTRO =         0.00000000
  eigenvalues    EBANDS =     -1476.97410358
  atomic energy  EATOM  =     50560.38741306
  Solvation  Ediel_sol  =         0.00000000
  ---------------------------------------------------
  free energy    TOTEN  =      -112.51742590 eV

  energy without entropy =     -112.51742590  energy(sigma->0) =     -112.51742590


--------------------------------------------------------------------------------------------------------




--------------------------------------- Iteration      1(   4)  ---------------------------------------


     EDDAV:  cpu time    8.1744: real time    8.1745
 BZINTS: Fermi energy:   -0.049805;  408.000000 electrons
         Band energy:-0.151008E+04;  BLOECHL correction:   -0.030451
       DOS:  cpu time    0.0105: real time    0.0105
    --------------------------------------------
      LOOP:  cpu time    8.1850: real time    8.1851

 eigenvalue-minimisations  :  6496
 total energy-change (2. order) :-0.3310139E+02  (-0.3229776E+02)
 number of electron     407.9999760 magnetization 
 augmentation part      407.9999760 magnetization 

 Free energy of the ion-electron system (eV)
  ---------------------------------------------------
  alpha Z        PSCENC =       755.91226284
  Ewald energy   TEWEN  =    244566.71149797
  -Hartree energ DENC   =   -292418.07499397
  -exchange      EXHF   =         0.00000000
  -V(xc)+E(xc)   XCENC  =      1651.34987597
  PAW double counting   =     48298.68948381   -52050.51886199
  entropy T*S    EENTRO =         0.00000000
  eigenvalues    EBANDS =     -1510.07549358
  atomic energy  EATOM  =     50560.38741306
  Solvation  Ediel_sol  =         0.00000000
  ---------------------------------------------------
  free energy    TOTEN  =      -145.61881590 eV

  energy without entropy =     -145.61881590  energy(sigma->0) =     -145.61881590


--------------------------------------------------------------------------------------------------------




--------------------------------------- Iteration      1(   5)  ---------------------------------------


     EDDAV:  cpu time   11.0134: real time   11.0136
 BZINTS: Fermi energy:   -0.079947;  408.000000 electrons
         Band energy:-0.151167E+04;  BLOECHL correction:   -0.033158
       DOS:  cpu time    0.0099: real time    0.0099
    --------------------------------------------
      LOOP:  cpu time   11.0233: real time   11.0235

 eigenvalue-minimisations  :  9156
 total energy-change (2. order) :-0.1597571E+01  (-0.1589031E+01)
 number of electron     407.9999760 magnetization 
 augmentation part      407.9999760 magnetization 

 Free energy of the ion-electron system (eV)
  ---------------------------------------------------
  alpha Z        PSCENC =       755.91226284
  Ewald energy   TEWEN  =    244566.71149797
  -Hartree energ DENC   =   -292418.07499397
  -exchange      EXHF   =         0.00000000
  -V(xc)+E(xc)   XCENC  =      1651.34987597
  PAW double counting   =     48298.68948381   -52050.51886199
  entropy T*S    EENTRO =         0.00000000
  eigenvalues    EBANDS =     -1511.67306501
  atomic energy  EATOM  =     50560.38741306
  Solvation  Ediel_sol  =         0.00000000
  ---------------------------------------------------
  free energy    TOTEN  =      -147.21638732 eV

  energy without entropy =     -147.21638732  energy(sigma->0) =     -147.21638732


--------------------------------------------------------------------------------------------------------




--------------------------------------- Iteration      1(   6)  ---------------------------------------


    EDDIAG:  cpu time    1.2943: real time    1.2974
  RMM-DIIS:  cpu time    4.3460: real time    4.3461
    ORTHCH:  cpu time    0.2408: real time    0.2408
 BZINTS: Fermi energy:   -0.080228;  408.000000 electrons
         Band energy:-0.151169E+04;  BLOECHL correction:   -0.033148
       DOS:  cpu time    0.0105: real time    0.0105
    --------------------------------------------
      LOOP:  cpu time    5.8917: real time    5.8948

 eigenvalue-minimisations  :  6182
 total energy-change (2. order) :-0.2029234E-01  (-0.2031432E-01)
 number of electron     407.9999760 magnetization 
 augmentation part      407.9999760 magnetization 

 Free energy of the ion-electron system (eV)
  ---------------------------------------------------
  alpha Z        PSCENC =       755.91226284
  Ewald energy   TEWEN  =    244566.71149797
  -Hartree energ DENC   =   -292418.07499397
  -exchange      EXHF   =         0.00000000
  -V(xc)+E(xc)   XCENC  =      1651.34987597
  PAW double counting   =     48298.68948381   -52050.51886199
  entropy T*S    EENTRO =         0.00000000
  eigenvalues    EBANDS =     -1511.69335735
  atomic energy  EATOM  =     50560.38741306
  Solvation  Ediel_sol  =         0.00000000
  ---------------------------------------------------
  free energy    TOTEN  =      -147.23667967 eV

  energy without entropy =     -147.23667967  energy(sigma->0) =     -147.23667967


--------------------------------------------------------------------------------------------------------




--------------------------------------- Iteration      1(   7)  ---------------------------------------


    EDDIAG:  cpu time    1.2986: real time    1.2987
  RMM-DIIS:  cpu time    6.3690: real time    6.3690
    ORTHCH:  cpu time    0.2409: real time    0.2409
 BZINTS: Fermi energy:   -0.080417;  408.000000 electrons
         Band energy:-0.151170E+04;  BLOECHL correction:   -0.033156
       DOS:  cpu time    0.0099: real time    0.0099
    --------------------------------------------
      LOOP:  cpu time    7.9183: real time    7.9184

 eigenvalue-minimisations  :  9090
 total energy-change (2. order) :-0.6885355E-02  (-0.6779037E-02)
 number of electron     407.9999760 magnetization 
 augmentation part      407.9999760 magnetization 

 Free energy of the ion-electron system (eV)
  ---------------------------------------------------
  alpha Z        PSCENC =       755.91226284
  Ewald energy   TEWEN  =    244566.71149797
  -Hartree energ DENC   =   -292418.07499397
  -exchange      EXHF   =         0.00000000
  -V(xc)+E(xc)   XCENC  =      1651.34987597
  PAW double counting   =     48298.68948381   -52050.51886199
  entropy T*S    EENTRO =         0.00000000
  eigenvalues    EBANDS =     -1511.70024271
  atomic energy  EATOM  =     50560.38741306
  Solvation  Ediel_sol  =         0.00000000
  ---------------------------------------------------
  free energy    TOTEN  =      -147.24356502 eV

  energy without entropy =     -147.24356502  energy(sigma->0) =     -147.24356502


--------------------------------------------------------------------------------------------------------




--------------------------------------- Iteration      1(   8)  ---------------------------------------


    EDDIAG:  cpu time    1.2969: real time    1.2971
  RMM-DIIS:  cpu time    6.8436: real time    6.8436
    ORTHCH:  cpu time    0.2401: real time    0.2401
 BZINTS: Fermi energy:   -0.080450;  408.000000 electrons
         Band energy:-0.151170E+04;  BLOECHL correction:   -0.033156
       DOS:  cpu time    0.0103: real time    0.0103
    --------------------------------------------
      LOOP:  cpu time    8.3909: real time    8.3912

 eigenvalue-minimisations  :  9844
 total energy-change (2. order) :-0.1413802E-02  (-0.1393423E-02)
 number of electron     407.9999760 magnetization 
 augmentation part      407.9999760 magnetization 

 Free energy of the ion-electron system (eV)
  ---------------------------------------------------
  alpha Z        PSCENC =       755.91226284
  Ewald energy   TEWEN  =    244566.71149797
  -Hartree energ DENC   =   -292418.07499397
  -exchange      EXHF   =         0.00000000
  -V(xc)+E(xc)   XCENC  =      1651.34987597
  PAW double counting   =     48298.68948381   -52050.51886199
  entropy T*S    EENTRO =         0.00000000
  eigenvalues    EBANDS =     -1511.70165651
  atomic energy  EATOM  =     50560.38741306
  Solvation  Ediel_sol  =         0.00000000
  ---------------------------------------------------
  free energy    TOTEN  =      -147.24497883 eV

  energy without entropy =     -147.24497883  energy(sigma->0) =     -147.24497883


--------------------------------------------------------------------------------------------------------




--------------------------------------- Iteration      1(   9)  ---------------------------------------


    EDDIAG:  cpu time    1.3136: real time    1.3136
  RMM-DIIS:  cpu time    6.6617: real time    6.6657
    ORTHCH:  cpu time    0.2400: real time    0.2400
 BZINTS: Fermi energy:   -0.080465;  408.000000 electrons
         Band energy:-0.151170E+04;  BLOECHL correction:   -0.033156
       DOS:  cpu time    0.0105: real time    0.0105
    --------------------------------------------
      LOOP:  cpu time    8.2257: real time    8.2298

 eigenvalue-minimisations  :  9572
 total energy-change (2. order) :-0.5344212E-03  (-0.5366773E-03)
 number of electron     407.9999760 magnetization 
 augmentation part      407.9999760 magnetization 

 Free energy of the ion-electron system (eV)
  ---------------------------------------------------
  alpha Z        PSCENC =       755.91226284
  Ewald energy   TEWEN  =    244566.71149797
  -Hartree energ DENC   =   -292418.07499397
  -exchange      EXHF   =         0.00000000
  -V(xc)+E(xc)   XCENC  =      1651.34987597
  PAW double counting   =     48298.68948381   -52050.51886199
  entropy T*S    EENTRO =         0.00000000
  eigenvalues    EBANDS =     -1511.70219093
  atomic energy  EATOM  =     50560.38741306
  Solvation  Ediel_sol  =         0.00000000
  ---------------------------------------------------
  free energy    TOTEN  =      -147.24551325 eV

  energy without entropy =     -147.24551325  energy(sigma->0) =     -147.24551325


--------------------------------------------------------------------------------------------------------




--------------------------------------- Iteration      1(  10)  ---------------------------------------


    EDDIAG:  cpu time    1.2982: real time    1.2984
  RMM-DIIS:  cpu time    5.6862: real time    5.6862
    ORTHCH:  cpu time    0.2401: real time    0.2401
 BZINTS: Fermi energy:   -0.080473;  408.000000 electrons
         Band energy:-0.151170E+04;  BLOECHL correction:   -0.033156
       DOS:  cpu time    0.0103: real time    0.0103
    --------------------------------------------
      LOOP:  cpu time    7.2348: real time    7.2350

 eigenvalue-minimisations  :  8031
 total energy-change (2. order) :-0.2710666E-03  (-0.2755947E-03)
 number of electron     407.9999760 magnetization 
 augmentation part      407.9999760 magnetization 

 Free energy of the ion-electron system (eV)
  ---------------------------------------------------
  alpha Z        PSCENC =       755.91226284
  Ewald energy   TEWEN  =    244566.71149797
  -Hartree energ DENC   =   -292418.07499397
  -exchange      EXHF   =         0.00000000
  -V(xc)+E(xc)   XCENC  =      1651.34987597
  PAW double counting   =     48298.68948381   -52050.51886199
  entropy T*S    EENTRO =         0.00000000
  eigenvalues    EBANDS =     -1511.70246200
  atomic energy  EATOM  =     50560.38741306
  Solvation  Ediel_sol  =         0.00000000
  ---------------------------------------------------
  free energy    TOTEN  =      -147.24578431 eV

  energy without entropy =     -147.24578431  energy(sigma->0) =     -147.24578431


--------------------------------------------------------------------------------------------------------




--------------------------------------- Iteration      1(  11)  ---------------------------------------


    EDDIAG:  cpu time    1.2974: real time    1.2976
  RMM-DIIS:  cpu time    5.3234: real time    5.3234
    ORTHCH:  cpu time    0.2404: real time    0.2404
 BZINTS: Fermi energy:   -0.080478;  408.000000 electrons
         Band energy:-0.151170E+04;  BLOECHL correction:   -0.033156
       DOS:  cpu time    0.0103: real time    0.0103
    --------------------------------------------
      LOOP:  cpu time    6.8715: real time    6.8718

 eigenvalue-minimisations  :  7293
 total energy-change (2. order) :-0.1514226E-03  (-0.1565487E-03)
 number of electron     407.9999760 magnetization 
 augmentation part      407.9999760 magnetization 

 Free energy of the ion-electron system (eV)
  ---------------------------------------------------
  alpha Z        PSCENC =       755.91226284
  Ewald energy   TEWEN  =    244566.71149797
  -Hartree energ DENC   =   -292418.07499397
  -exchange      EXHF   =         0.00000000
  -V(xc)+E(xc)   XCENC  =      1651.34987597
  PAW double counting   =     48298.68948381   -52050.51886199
  entropy T*S    EENTRO =         0.00000000
  eigenvalues    EBANDS =     -1511.70261342
  atomic energy  EATOM  =     50560.38741306
  Solvation  Ediel_sol  =         0.00000000
  ---------------------------------------------------
  free energy    TOTEN  =      -147.24593574 eV

  energy without entropy =     -147.24593574  energy(sigma->0) =     -147.24593574


--------------------------------------------------------------------------------------------------------




--------------------------------------- Iteration      1(  12)  ---------------------------------------


    EDDIAG:  cpu time    1.2957: real time    1.2958
  RMM-DIIS:  cpu time    4.6414: real time    4.6414
    ORTHCH:  cpu time    0.2403: real time    0.2403
 BZINTS: Fermi energy:   -0.080481;  408.000000 electrons
         Band energy:-0.151170E+04;  BLOECHL correction:   -0.033156
       DOS:  cpu time    0.0103: real time    0.0103
    --------------------------------------------
      LOOP:  cpu time    6.1877: real time    6.1879

 eigenvalue-minimisations  :  6373
 total energy-change (2. order) :-0.8616492E-04  (-0.8927952E-04)
 number of electron     407.9999760 magnetization 
 augmentation part      407.9999760 magnetization 

 Free energy of the ion-electron system (eV)
  ---------------------------------------------------
  alpha Z        PSCENC =       755.91226284
  Ewald energy   TEWEN  =    244566.71149797
  -Hartree energ DENC   =   -292418.07499397
  -exchange      EXHF   =         0.00000000
  -V(xc)+E(xc)   XCENC  =      1651.34987597
  PAW double counting   =     48298.68948381   -52050.51886199
  entropy T*S    EENTRO =         0.00000000
  eigenvalues    EBANDS =     -1511.70269958
  atomic energy  EATOM  =     50560.38741306
  Solvation  Ediel_sol  =         0.00000000
  ---------------------------------------------------
  free energy    TOTEN  =      -147.24602190 eV

  energy without entropy =     -147.24602190  energy(sigma->0) =     -147.24602190


--------------------------------------------------------------------------------------------------------




--------------------------------------- Iteration      1(  13)  ---------------------------------------


    EDDIAG:  cpu time    1.2954: real time    1.2955
  RMM-DIIS:  cpu time    4.4984: real time    4.4984
    ORTHCH:  cpu time    0.2406: real time    0.2406
 BZINTS: Fermi energy:   -0.080483;  408.000000 electrons
         Band energy:-0.151170E+04;  BLOECHL correction:   -0.033156
       DOS:  cpu time    0.0105: real time    0.0105
    --------------------------------------------
      LOOP:  cpu time    6.0449: real time    6.0450

 eigenvalue-minimisations  :  6168
 total energy-change (2. order) :-0.5127443E-04  (-0.5383765E-04)
 number of electron     407.9999760 magnetization 
 augmentation part      407.9999760 magnetization 

 Free energy of the ion-electron system (eV)
  ---------------------------------------------------
  alpha Z        PSCENC =       755.91226284
  Ewald energy   TEWEN  =    244566.71149797
  -Hartree energ DENC   =   -292418.07499397
  -exchange      EXHF   =         0.00000000
  -V(xc)+E(xc)   XCENC  =      1651.34987597
  PAW double counting   =     48298.68948381   -52050.51886199
  entropy T*S    EENTRO =         0.00000000
  eigenvalues    EBANDS =     -1511.70275086
  atomic energy  EATOM  =     50560.38741306
[...]
  0.000   0.000   0.000   0.000   0.000   0.000   0.000   0.000   0.000   0.000   1.000   0.000   0.000   0.000   0.000   0.000
  0.000   0.000   0.000   0.000   0.000   0.000   0.000   0.000   0.000   0.000   0.000   0.000   0.000   0.000   0.000   0.000
  0.000   0.000   0.000   0.000   0.000   0.000   0.000   0.000   0.000   0.000   0.000   0.000   0.000   0.000   0.000   0.000
  0.000   0.000   0.000   0.000   0.000   0.000   0.000   0.000   0.000   0.000   0.000   0.000   0.000   0.000   0.000   0.000
  0.000   0.000   0.000   0.000   0.000   0.000   0.000   0.000   0.000   0.000   0.000   0.000   0.000   0.000   0.000   0.000
  0.000   0.000   0.000   0.000   0.000   0.000   0.000   0.000   0.000   0.000   0.000   0.000   0.000   0.000   0.000   0.000
  0.000   0.000   0.000   0.000   0.000   0.000   0.000   0.000   0.000   0.000   0.000   0.000   0.000   0.000   0.000   0.000
  0.000   0.000   0.000   0.000   0.000   0.000   0.000   0.000   0.000   0.000   0.000   0.000   0.000   0.000   0.000   0.000


------------------------ aborting loop because EDIFF is reached ----------------------------------------





 total charge

# of ion       s       p       d       tot
------------------------------------------
    1        0.449   0.283   9.190   9.922
    2        0.447   0.286   9.187   9.920
    3        0.447   0.286   9.187   9.920
    4        0.447   0.286   9.187   9.920
    5        0.451   0.286   9.181   9.918
    6        0.447   0.286   9.187   9.920
    7        0.447   0.286   9.187   9.920
    8        0.447   0.286   9.187   9.920
    9        0.449   0.284   9.190   9.923
   10        0.442   0.372   9.177   9.991
   11        0.443   0.363   9.181   9.988
   12        0.442   0.372   9.177   9.991
   13        0.443   0.363   9.181   9.988
   14        0.443   0.363   9.181   9.988
   15        0.440   0.374   9.176   9.990
   16        0.442   0.372   9.177   9.991
   17        0.440   0.374   9.176   9.990
   18        0.440   0.374   9.176   9.990
   19        0.445   0.373   9.179   9.997
   20        0.454   0.375   9.168   9.997
   21        0.454   0.375   9.168   9.997
   22        0.434   0.376   9.178   9.988
   23        0.454   0.375   9.168   9.997
   24        0.434   0.376   9.178   9.988
   25        0.445   0.373   9.179   9.997
   26        0.445   0.373   9.179   9.997
   27        0.434   0.376   9.178   9.988
   28        0.443   0.297   9.184   9.923
   29        0.483   0.313   9.170   9.966
   30        0.483   0.313   9.170   9.966
   31        0.483   0.313   9.170   9.966
   32        0.483   0.313   9.170   9.966
   33        0.483   0.313   9.170   9.966
   34        0.483   0.313   9.170   9.966
   35        0.442   0.301   9.185   9.928
   36        2.215   5.994   1.722   9.931
   37        0.946   1.376   0.000   2.321
   38        1.527   3.741   0.000   5.268
   39        0.567   0.137   0.000   0.704
--------------------------------------------------
tot         21.040  22.988 322.971 366.999
 
    CHARGE:  cpu time    0.2791: real time    0.2793
    FORLOC:  cpu time    0.0104: real time    0.0104
    FORNL :  cpu time    1.3677: real time    1.3678
    STRESS:  cpu time    4.0649: real time    4.0650
    FORCOR:  cpu time    0.0359: real time    0.0360
    FORHAR:  cpu time    0.0154: real time    0.0155
    OFIELD:  cpu time    0.0002: real time    0.0002

  FORCE on cell =-STRESS in cart. coord.  units (eV):
  Direction    XX          YY          ZZ          XY          YZ          ZX
  --------------------------------------------------------------------------------------
  Alpha Z   755.91226   755.91226   755.91226
  Ewald  270671.73744270671.73700************     0.00040     0.00014     0.00022
  Hartree283809.78772283809.78770************     0.00004     0.00007     0.00007
  E(xc)   -2345.62900 -2345.62855 -2348.17003    -0.00040    -0.00003    -0.00005
  Local  ************************567483.34937     0.01866    -0.00063    -0.00100
  n-local  -798.31055  -786.79877  -803.10281     6.48900    -0.12172     0.16021
  augment  3317.13179  3317.15159  3337.20717    -0.01714     0.00027     0.00049
  Kinetic  3571.93564  3573.09633  3548.73233     2.75252     1.87170    -1.30264
  Fock        0.00000     0.00000     0.00000     0.00000     0.00000     0.00000
  -------------------------------------------------------------------------------------
  Total      -3.25699    -3.25699    -0.66030     0.00000     0.00000    -0.00000
  in kB      -3.89243    -3.89243    -0.78913     0.00000     0.00000    -0.00000
  external pressure =       -2.86 kB  Pullay stress =        0.00 kB


 VOLUME and BASIS-vectors are now :
 -----------------------------------------------------------------------------
  energy-cutoff  :      500.00
  volume of cell :     1340.62
      direct lattice vectors                 reciprocal lattice vectors
     7.696786404  0.000000000  0.000000000     0.129924354 -0.075011849  0.000000000
     3.848392758  6.665612809  0.000000000     0.000000000  0.150023716  0.000000000
     0.000000000  0.000000000 26.131062567     0.000000000  0.000000000  0.038268631

  length of vectors
     7.696786404  7.696786404 26.131062567     0.150023716  0.150023716  0.038268631


 FORCES acting on ions
    electron-ion (+dipol)            ewald-force                    non-local-force                 convergence-correction
 -----------------------------------------------------------------------------------------------
   -.433E-04 -.888E-06 0.396E+04   0.579E-04 -.430E-05 -.396E+04   0.323E-17 -.316E-17 -.235E+01   -.335E-03 -.160E-03 0.192E+00
   -.103E+01 -.123E+01 0.396E+04   0.883E+00 0.935E+00 -.396E+04   0.111E+00 0.203E+00 -.187E+01   0.450E-01 0.103E+00 0.155E+00
   0.103E+01 -.123E+01 0.396E+04   -.883E+00 0.935E+00 -.396E+04   -.111E+00 0.203E+00 -.187E+01   -.442E-01 0.106E+00 0.156E+00
   -.158E+01 -.272E+00 0.396E+04   0.125E+01 0.297E+00 -.396E+04   0.231E+00 -.552E-02 -.187E+01   0.112E+00 -.125E-01 0.155E+00
   -.670E-04 -.658E-05 0.396E+04   0.116E-03 -.101E-04 -.396E+04   -.119E-16 0.488E-18 -.132E+01   0.122E-01 0.748E-02 0.272E+00
   0.158E+01 -.272E+00 0.396E+04   -.125E+01 0.297E+00 -.396E+04   -.231E+00 -.552E-02 -.187E+01   -.113E+00 -.113E-01 0.156E+00
   -.555E+00 0.151E+01 0.396E+04   0.368E+00 -.123E+01 -.396E+04   0.120E+00 -.197E+00 -.187E+01   0.693E-01 -.911E-01 0.156E+00
   0.555E+00 0.151E+01 0.396E+04   -.369E+00 -.123E+01 -.396E+04   -.120E+00 -.197E+00 -.187E+01   -.658E-01 -.926E-01 0.156E+00
   -.145E-03 -.336E-04 0.396E+04   0.263E-03 0.205E-04 -.396E+04   0.440E-17 -.743E-18 -.217E+01   -.133E-01 -.685E-02 0.182E+00
   -.104E+02 -.600E+01 0.141E+04   0.106E+02 0.611E+01 -.141E+04   -.205E+00 -.118E+00 -.893E+00   0.283E-01 0.163E-01 0.434E+00
   -.897E-04 -.841E+01 0.140E+04   0.189E-03 0.818E+01 -.140E+04   -.179E-07 0.269E+00 -.211E+00   0.118E-01 -.119E-01 0.438E+00
   0.104E+02 -.600E+01 0.141E+04   -.106E+02 0.611E+01 -.141E+04   0.205E+00 -.118E+00 -.893E+00   -.303E-01 0.184E-01 0.435E+00
   -.729E+01 0.421E+01 0.140E+04   0.709E+01 -.409E+01 -.140E+04   0.233E+00 -.135E+00 -.211E+00   -.392E-02 0.170E-01 0.438E+00
   0.729E+01 0.421E+01 0.140E+04   -.709E+01 -.409E+01 -.140E+04   -.233E+00 -.135E+00 -.211E+00   0.283E-01 0.160E-01 0.438E+00
   -.140E-03 -.206E+01 0.141E+04   0.296E-03 0.195E+01 -.141E+04   -.762E-08 0.114E+00 -.108E+01   -.405E-02 -.280E-02 0.373E+00
   -.903E-04 0.120E+02 0.141E+04   0.186E-03 -.122E+02 -.141E+04   -.158E-07 0.237E+00 -.893E+00   -.169E-03 -.366E-01 0.435E+00
   -.178E+01 0.103E+01 0.141E+04   0.168E+01 -.972E+00 -.141E+04   0.991E-01 -.572E-01 -.108E+01   -.377E-02 -.212E-02 0.373E+00
   0.178E+01 0.103E+01 0.141E+04   -.168E+01 -.972E+00 -.141E+04   -.991E-01 -.572E-01 -.108E+01   0.452E-02 0.919E-03 0.374E+00
   -.678E-04 -.468E+01 -.114E+04   0.670E-04 0.478E+01 0.114E+04   0.201E-08 -.302E-01 0.110E+01   -.248E-02 -.577E-01 0.368E+00
   -.255E+02 -.147E+02 -.122E+04   0.266E+02 0.153E+02 0.122E+04   -.115E+01 -.665E+00 -.585E+00   -.169E-01 -.990E-02 0.391E+00
   0.255E+02 -.147E+02 -.122E+04   -.266E+02 0.153E+02 0.122E+04   0.115E+01 -.665E+00 -.585E+00   0.410E-01 -.847E-02 0.390E+00
   -.108E+02 0.621E+01 -.116E+04   0.104E+02 -.603E+01 0.116E+04   0.233E+00 -.134E+00 0.523E+00   0.891E-01 -.525E-01 0.360E+00
   -.510E-04 0.294E+02 -.122E+04   0.149E-03 -.307E+02 0.122E+04   -.886E-07 0.133E+01 -.585E+00   0.120E-01 0.385E-01 0.390E+00
   0.108E+02 0.621E+01 -.116E+04   -.104E+02 -.603E+01 0.116E+04   -.233E+00 -.134E+00 0.523E+00   -.917E-01 -.538E-01 0.360E+00
   0.405E+01 0.234E+01 -.114E+04   -.414E+01 -.239E+01 0.114E+04   0.262E-01 0.151E-01 0.110E+01   0.515E-01 0.297E-01 0.367E+00
   -.405E+01 0.234E+01 -.114E+04   0.414E+01 -.239E+01 0.114E+04   -.262E-01 0.151E-01 0.110E+01   -.509E-01 0.269E-01 0.368E+00
   -.146E-03 -.124E+02 -.116E+04   0.243E-03 0.121E+02 0.116E+04   -.179E-07 0.268E+00 0.523E+00   -.950E-03 0.103E+00 0.360E+00
   -.167E-04 0.303E-04 -.373E+04   0.378E-04 -.334E-04 0.373E+04   -.400E-17 0.191E-17 0.213E+01   -.345E-03 -.148E-03 0.160E+00
   0.474E+01 -.561E+01 -.369E+04   -.473E+01 0.541E+01 0.369E+04   -.191E+00 -.630E-01 0.999E+00   0.965E-01 0.152E+00 0.132E+00
   -.474E+01 -.561E+01 -.369E+04   0.473E+01 0.541E+01 0.369E+04   0.191E+00 -.630E-01 0.999E+00   -.954E-01 0.155E+00 0.132E+00
   -.249E+01 0.692E+01 -.369E+04   0.232E+01 -.680E+01 0.369E+04   -.150E+00 -.134E+00 0.999E+00   0.180E+00 0.734E-02 0.132E+00
   0.249E+01 0.691E+01 -.369E+04   -.232E+01 -.680E+01 0.369E+04   0.150E+00 -.134E+00 0.999E+00   -.182E+00 0.831E-02 0.131E+00
   -.723E+01 -.130E+01 -.369E+04   0.705E+01 0.139E+01 0.369E+04   0.409E-01 0.197E+00 0.999E+00   0.865E-01 -.160E+00 0.132E+00
   0.723E+01 -.130E+01 -.369E+04   -.705E+01 0.139E+01 0.369E+04   -.409E-01 0.197E+00 0.999E+00   -.831E-01 -.162E+00 0.131E+00
   -.132E-03 -.724E-05 -.376E+04   0.260E-03 0.171E-07 0.376E+04   0.196E-17 0.700E-18 0.234E+01   -.133E-01 -.688E-02 0.207E+00
   0.159E-03 -.152E-03 -.415E+04   0.122E-03 0.327E-04 0.416E+04   0.103E-17 -.137E-17 -.143E+01   0.531E-02 0.320E-02 0.402E+00
   -.259E-05 -.769E-04 -.144E+04   0.415E-05 0.268E-05 0.142E+04   -.785E-18 -.105E-17 0.230E+02   0.104E-02 0.633E-03 -.604E-01
   0.227E-03 -.739E-04 -.213E+04   0.823E-06 0.119E-05 0.213E+04   -.253E-18 0.488E-18 -.251E+01   0.335E-02 0.205E-02 -.232E+00
   0.354E-05 -.141E-04 -.382E+03   0.250E-07 0.791E-07 0.391E+03   0.123E-18 0.275E-19 -.869E+01   0.175E-03 0.107E-03 -.345E-01
 -----------------------------------------------------------------------------------------------
   0.163E-03 -.273E-03 -.101E+02   -.517E-13 0.155E-12 -.341E-11   -.951E-16 0.543E-16 0.334E+00   0.615E-01 0.327E-01 0.991E+01
 
 
 POSITION                                       TOTAL-FORCE (eV/Angst)
 -----------------------------------------------------------------------------------
      0.00000      0.00000      5.37156         0.000000     -0.000000     -0.011948
      2.56560      0.00000      5.37156         0.013099      0.008961      0.054549
      5.13119      0.00000      5.37156        -0.013099      0.008961      0.054549
      1.28280      2.22187      5.37156         0.014310      0.006864      0.054549
      3.84839      2.22187      5.37156         0.000000     -0.000000      0.060060
      6.41399      2.22187      5.37156        -0.014310      0.006864      0.054549
      2.56560      4.44374      5.37156         0.001211     -0.015825      0.054549
      5.13119      4.44374      5.37156        -0.001211     -0.015825      0.054549
      7.69679      4.44374      5.37156        -0.000000     -0.000000      0.012902
      1.28280      0.74062      7.46636         0.022492      0.012986     -0.119178
      3.84839      0.74062      7.46636        -0.000000      0.021130     -0.006263
      6.41399      0.74062      7.46636        -0.022492      0.012986     -0.119178
      2.56560      2.96249      7.46636         0.018299     -0.010565     -0.006263
      5.13119      2.96249      7.46636        -0.018299     -0.010565     -0.006263
      7.69679      2.96249      7.46636         0.000000     -0.003700     -0.073929
      3.84839      5.18437      7.46636         0.000000     -0.025972     -0.119178
      6.41399      5.18437      7.46636        -0.003205      0.001850     -0.073929
      8.97958      5.18437      7.46636         0.003205      0.001850     -0.073929
      7.69679      1.47435      9.52922        -0.000000      0.011102      0.050332
      2.57570      1.48708      9.58099        -0.109311     -0.063111     -0.112994
      5.12109      1.48708      9.58099         0.109311     -0.063111     -0.112994
      8.97941      3.70322      9.55185         0.006780     -0.003915      0.036624
      3.84839      3.69145      9.58099        -0.000000      0.126222     -0.112994
      6.41416      3.70322      9.55185        -0.006780     -0.003915      0.036624
     10.26835      5.92844      9.52922        -0.009615     -0.005551      0.050332
      5.12522      5.92844      9.52922         0.009615     -0.005551      0.050332
      7.69679      5.92479      9.55185        -0.000000      0.007829      0.036624
      0.00000      0.00000     11.63765         0.000000     -0.000000     -0.006463
      6.39598      6.62341     11.64088        -0.081341     -0.114478      0.045182
      8.99759      6.62341     11.64088         0.081341     -0.114478      0.045182
      8.93403      2.22738     11.64088        -0.139812     -0.013205      0.045182
      6.45955      2.22738     11.64088         0.139812     -0.013205      0.045182
     10.23483      4.48044     11.64088        -0.058470      0.127683      0.045182
      5.15874      4.48044     11.64088         0.058470      0.127683      0.045182
      7.69679      4.44374     11.66679        -0.000000     -0.000000     -0.029593
      3.84839      2.22187     12.03290         0.000000     -0.000000     -0.007241
      3.84839      2.22187     14.11437         0.000000     -0.000000      0.076706
      3.84839      2.22187     15.38364         0.000000     -0.000000     -0.045517
      3.84839      2.22187     16.34097         0.000000     -0.000000      0.028937
 -----------------------------------------------------------------------------------
    total drift:                                0.061695      0.032410      0.114361


--------------------------------------------------------------------------------------------------------



  FREE ENERGIE OF THE ION-ELECTRON SYSTEM (eV)
  ---------------------------------------------------
  free  energy   TOTEN  =      -147.24614073 eV

  energy  without entropy=     -147.24614073  energy(sigma->0) =     -147.24614073
 


--------------------------------------------------------------------------------------------------------


    POTLOK:  cpu time    0.0340: real time    0.0340


--------------------------------------------------------------------------------------------------------


 stress matrix after NEB project (eV)
     -3.25699      0.00000     -0.00000
      0.00000     -3.25699      0.00000
     -0.00000      0.00000     -0.66030
  FORCES: max atom, RMS     0.076706    0.015015
  FORCE total and by dimension    0.093771    0.076706
  Stress total and by dimension    4.653171    3.256993
     LOOP+:  cpu time  124.8232: real time  124.8402
 -----------------------------------------------------------------------------
|                                                                             |
|           W    W    AA    RRRRR   N    N  II  N    N   GGGG   !!!           |
|           W    W   A  A   R    R  NN   N  II  NN   N  G    G  !!!           |
|           W    W  A    A  R    R  N N  N  II  N N  N  G       !!!           |
|           W WW W  AAAAAA  RRRRR   N  N N  II  N  N N  G  GGG   !            |
|           WW  WW  A    A  R   R   N   NN  II  N   NN  G    G                |
|           W    W  A    A  R    R  N    N  II  N    N   GGGG   !!!           |
|                                                                             |
|     Tetrahedron method does not include variations of the Fermi             |
|     occupations, so forces and stress will be inaccurate. We suggest        |
|     using a different smearing scheme ISMEAR = 1 or 2 for metals in         |
|     relaxations.                                                            |
|                                                                             |
 -----------------------------------------------------------------------------

    4ORBIT:  cpu time    0.0000: real time    0.0000



 total charge

# of ion       s       p       d       tot
------------------------------------------
    1        0.449   0.283   9.190   9.922
    2        0.447   0.286   9.187   9.920
    3        0.447   0.286   9.187   9.920
    4        0.447   0.286   9.187   9.920
    5        0.451   0.286   9.181   9.918
    6        0.447   0.286   9.187   9.920
    7        0.447   0.286   9.187   9.920
    8        0.447   0.286   9.187   9.920
    9        0.449   0.284   9.190   9.923
   10        0.442   0.372   9.177   9.991
   11        0.443   0.363   9.181   9.988
   12        0.442   0.372   9.177   9.991
   13        0.443   0.363   9.181   9.988
   14        0.443   0.363   9.181   9.988
   15        0.440   0.374   9.176   9.990
   16        0.442   0.372   9.177   9.991
   17        0.440   0.374   9.176   9.990
   18        0.440   0.374   9.176   9.990
   19        0.445   0.373   9.179   9.997
   20        0.454   0.375   9.168   9.997
   21        0.454   0.375   9.168   9.997
   22        0.434   0.376   9.178   9.988
   23        0.454   0.375   9.168   9.997
   24        0.434   0.376   9.178   9.988
   25        0.445   0.373   9.179   9.997
   26        0.445   0.373   9.179   9.997
   27        0.434   0.376   9.178   9.988
   28        0.443   0.297   9.184   9.923
   29        0.483   0.313   9.170   9.966
   30        0.483   0.313   9.170   9.966
   31        0.483   0.313   9.170   9.966
   32        0.483   0.313   9.170   9.966
   33        0.483   0.313   9.170   9.966
   34        0.483   0.313   9.170   9.966
   35        0.442   0.301   9.185   9.928
   36        2.215   5.994   1.722   9.931
   37        0.946   1.376   0.000   2.321
   38        1.527   3.741   0.000   5.268
   39        0.567   0.137   0.000   0.704
--------------------------------------------------
tot         21.040  22.988 322.971 366.999
 
 BZINTS: Fermi energy:   -0.080485;  408.000000 electrons
         Band energy:-0.151170E+04;  BLOECHL correction:   -0.033156

 total amount of memory used by VASP MPI-rank0   117553. kBytes
=======================================================================

   base      :      30000. kBytes
   nonlr-proj:      17346. kBytes
   fftplans  :       3497. kBytes
   grid      :      16027. kBytes
   one-center:        606. kBytes
   wavefun   :      50077. kBytes
 
  
  
 General timing and accounting informations for this job:
 ========================================================
  
                  Total CPU time used (sec):      131.694
                            User time (sec):      127.719
                          System time (sec):        3.975
                         Elapsed time (sec):      132.065
  
                   Maximum memory used (kb):      367804.
                   Average memory used (kb):          N/A
  
                          Minor page faults:       111283
                          Major page faults:            0
                 Voluntary context switches:         5426
