PROCAR new format
# of k-points:   10         # of bands:  252         # of ions:   39

 k-point     1 :    0.00000000 0.00000000 0.00000000     weight = 0.01562500

band     1 # energy  -48.50392663 # occ.  2.00000000
 
ion      s      p      d    tot
    1  0.000  0.000  0.000  0.000
    2  0.000  0.000  0.000  0.000
    3  0.000  0.000  0.000  0.000
    4  0.000  0.000  0.000  0.000
    5  0.000  0.000  0.000  0.000
    6  0.000  0.000  0.000  0.000
    7  0.000  0.000  0.000  0.000
    8  0.000  0.000  0.000  0.000
    9  0.000  0.000  0.000  0.000
   10  0.000  0.000  0.000  0.000
   11  0.000  0.000  0.000  0.000
   12  0.000  0.000  0.000  0.000
   13  0.000  0.000  0.000  0.000
   14  0.000  0.000  0.000  0.000
   15  0.000  0.000  0.000  0.000
   16  0.000  0.000  0.000  0.000
   17  0.000  0.000  0.000  0.000
   18  0.000  0.000  0.000  0.000
   19  0.000  0.000  0.000  0.000
   20  0.000  0.000  0.000  0.000
   21  0.000  0.000  0.000  0.000
   22  0.000  0.000  0.000  0.000
   23  0.000  0.000  0.000  0.000
   24  0.000  0.000  0.000  0.000
   25  0.000  0.000  0.000  0.000
   26  0.000  0.000  0.000  0.000
   27  0.000  0.000  0.000  0.000
   28  0.000  0.000  0.000  0.000
   29  0.000  0.000  0.000  0.000
   30  0.000  0.000  0.000  0.000
   31  0.000  0.000  0.000  0.000
   32  0.000  0.000  0.000  0.000
   33  0.000  0.000  0.000  0.000
   34  0.000  0.000  0.000  0.000
   35  0.000  0.000  0.000  0.000
   36  0.992  0.000  0.000  0.992
   37  0.000  0.000  0.000  0.000
   38  0.000  0.000  0.000  0.000
   39  0.000  0.000  0.000  0.000
tot    0.993  0.000  0.000  0.993
 
band     2 # energy  -26.69461150 # occ.  2.00000000
 
ion      s      p      d    tot
    1  0.000  0.000  0.000  0.000
    2  0.000  0.000  0.000  0.000
    3  0.000  0.000  0.000  0.000
    4  0.000  0.000  0.000  0.000
    5  0.000  0.000  0.000  0.000
    6  0.000  0.000  0.000  0.000
    7  0.000  0.000  0.000  0.000
    8  0.000  0.000  0.000  0.000
    9  0.000  0.000  0.000  0.000
   10  0.000  0.000  0.000  0.000
   11  0.000  0.000  0.000  0.000
   12  0.000  0.000  0.000  0.000
   13  0.000  0.000  0.000  0.000
   14  0.000  0.000  0.000  0.000
   15  0.000  0.000  0.000  0.000
   16  0.000  0.000  0.000  0.000
   17  0.000  0.000  0.000  0.000
   18  0.000  0.000  0.000  0.000
   19  0.000  0.000  0.000  0.000
   20  0.000  0.000  0.000  0.000
   21  0.000  0.000  0.000  0.000
   22  0.000  0.000  0.000  0.000
   23  0.000  0.000  0.000  0.000
   24  0.000  0.000  0.000  0.000
   25  0.000  0.000  0.000  0.000
   26  0.000  0.000  0.000  0.000
   27  0.000  0.000  0.000  0.000
   28  0.000  0.000  0.000  0.000
   29  0.000  0.000  0.000  0.000
   30  0.000  0.001  0.000  0.001
   31  0.000  0.000  0.000  0.000
   32  0.000  0.000  0.000  0.000
   33  0.000  0.001  0.000  0.001
   34  0.000  0.000  0.000  0.000
   35  0.000  0.000  0.000  0.000
   36  0.000  0.968  0.000  0.968
   37  0.000  0.000  0.000  0.000
   38  0.000  0.000  0.000  0.000
   39  0.000  0.000  0.000  0.000
tot    0.001  0.969  0.001  0.972
 
band     3 # energy  -26.69460325 # occ.  2.00000000
 
ion      s      p      d    tot
    1  0.000  0.000  0.000  0.000
    2  0.000  0.000  0.000  0.000
    3  0.000  0.000  0.000  0.000
    4  0.000  0.000  0.000  0.000
    5  0.000  0.000  0.000  0.000
    6  0.000  0.000  0.000  0.000
    7  0.000  0.000  0.000  0.000
    8  0.000  0.000  0.000  0.000
    9  0.000  0.000  0.000  0.000
   10  0.000  0.000  0.000  0.000
   11  0.000  0.000  0.000  0.000
   12  0.000  0.000  0.000  0.000
   13  0.000  0.000  0.000  0.000
   14  0.000  0.000  0.000  0.000
   15  0.000  0.000  0.000  0.000
   16  0.000  0.000  0.000  0.000
   17  0.000  0.000  0.000  0.000
   18  0.000  0.000  0.000  0.000
   19  0.000  0.000  0.000  0.000
   20  0.000  0.000  0.000  0.000
   21  0.000  0.000  0.000  0.000
   22  0.000  0.000  0.000  0.000
   23  0.000  0.000  0.000  0.000
   24  0.000  0.000  0.000  0.000
   25  0.000  0.000  0.000  0.000
   26  0.000  0.000  0.000  0.000
   27  0.000  0.000  0.000  0.000
   28  0.000  0.000  0.000  0.000
   29  0.000  0.000  0.000  0.001
   30  0.000  0.000  0.000  0.000
   31  0.000  0.000  0.000  0.001
   32  0.000  0.000  0.000  0.001
   33  0.000  0.000  0.000  0.000
   34  0.000  0.000  0.000  0.001
   35  0.000  0.000  0.000  0.000
   36  0.000  0.968  0.000  0.968
   37  0.000  0.000  0.000  0.000
   38  0.000  0.000  0.000  0.000
   39  0.000  0.000  0.000  0.000
tot    0.001  0.969  0.001  0.972
 
band     4 # energy  -26.57789418 # occ.  2.00000000
 
ion      s      p      d    tot
    1  0.000  0.000  0.000  0.000
    2  0.000  0.000  0.000  0.000
    3  0.000  0.000  0.000  0.000
    4  0.000  0.000  0.000  0.000
    5  0.000  0.000  0.000  0.000
    6  0.000  0.000  0.000  0.000
    7  0.000  0.000  0.000  0.000
    8  0.000  0.000  0.000  0.000
    9  0.000  0.000  0.000  0.000
   10  0.000  0.000  0.000  0.000
   11  0.000  0.000  0.000  0.000
   12  0.000  0.000  0.000  0.000
   13  0.000  0.000  0.000  0.000
   14  0.000  0.000  0.000  0.000
   15  0.000  0.000  0.000  0.000
   16  0.000  0.000  0.000  0.000
   17  0.000  0.000  0.000  0.000
   18  0.000  0.000  0.000  0.000
   19  0.000  0.000  0.000  0.000
   20  0.000  0.000  0.000  0.000
   21  0.000  0.000  0.000  0.000
   22  0.000  0.000  0.000  0.000
   23  0.000  0.000  0.000  0.000
   24  0.000  0.000  0.000  0.000
   25  0.000  0.000  0.000  0.000
   26  0.000  0.000  0.000  0.000
   27  0.000  0.000  0.000  0.000
   28  0.000  0.000  0.000  0.000
   29  0.000  0.000  0.000  0.000
   30  0.000  0.000  0.000  0.000
   31  0.000  0.000  0.000  0.000
   32  0.000  0.000  0.000  0.000
   33  0.000  0.000  0.000  0.000
   34  0.000  0.000  0.000  0.000
   35  0.000  0.000  0.000  0.000
   36  0.000  0.959  0.000  0.959
   37  0.004  0.002  0.000  0.006
   38  0.000  0.000  0.000  0.000
   39  0.000  0.000  0.000  0.000
tot    0.005  0.961  0.000  0.967
 
band     5 # energy  -24.26403059 # occ.  2.00000000
 
ion      s      p      d    tot
    1  0.000  0.000  0.000  0.000
    2  0.000  0.000  0.000  0.000
    3  0.000  0.000  0.000  0.000
    4  0.000  0.000  0.000  0.000
    5  0.000  0.000  0.000  0.000
    6  0.000  0.000  0.000  0.000
    7  0.000  0.000  0.000  0.000
    8  0.000  0.000  0.000  0.000
    9  0.000  0.000  0.000  0.000
   10  0.000  0.000  0.000  0.000
   11  0.000  0.000  0.000  0.000
   12  0.000  0.000  0.000  0.000
   13  0.000  0.000  0.000  0.000
   14  0.000  0.000  0.000  0.000
   15  0.000  0.000  0.000  0.000
   16  0.000  0.000  0.000  0.000
   17  0.000  0.000  0.000  0.000
   18  0.000  0.000  0.000  0.000
   19  0.000  0.000  0.000  0.000
   20  0.000  0.000  0.000  0.000
   21  0.000  0.000  0.000  0.000
   22  0.000  0.000  0.000  0.000
   23  0.000  0.000  0.000  0.000
   24  0.000  0.000  0.000  0.000
   25  0.000  0.000  0.000  0.000
   26  0.000  0.000  0.000  0.000
   27  0.000  0.000  0.000  0.000
   28  0.000  0.000  0.000  0.000
   29  0.000  0.000  0.000  0.000
   30  0.000  0.000  0.000  0.000
   31  0.000  0.000  0.000  0.000
   32  0.000  0.000  0.000  0.000
   33  0.000  0.000  0.000  0.000
   34  0.000  0.000  0.000  0.000
   35  0.000  0.000  0.000  0.000
   36  0.000  0.001  0.000  0.001
   37  0.070  0.054  0.000  0.124
   38  0.730  0.005  0.000  0.734
   39  0.066  0.014  0.000  0.080
tot    0.865  0.074  0.000  0.940
 
band     6 # energy  -14.95839266 # occ.  2.00000000
 
ion      s      p      d    tot
    1  0.000  0.000  0.000  0.000
    2  0.000  0.000  0.000  0.000
    3  0.000  0.000  0.000  0.000
    4  0.000  0.000  0.000  0.000
    5  0.000  0.000  0.000  0.000
    6  0.000  0.000  0.000  0.000
    7  0.000  0.000  0.000  0.000
    8  0.000  0.000  0.000  0.000
    9  0.000  0.000  0.000  0.000
   10  0.000  0.000  0.000  0.000
   11  0.000  0.000  0.000  0.000
   12  0.000  0.000  0.000  0.000
   13  0.000  0.000  0.000  0.000
   14  0.000  0.000  0.000  0.000
   15  0.000  0.000  0.000  0.000
   16  0.000  0.000  0.000  0.000
   17  0.000  0.000  0.000  0.000
   18  0.000  0.000  0.000  0.000
   19  0.000  0.000  0.000  0.000
   20  0.000  0.000  0.000  0.000
   21  0.000  0.000  0.000  0.000
   22  0.000  0.000  0.000  0.000
   23  0.000  0.000  0.000  0.000
   24  0.000  0.000  0.000  0.000
   25  0.000  0.000  0.000  0.000
   26  0.000  0.000  0.000  0.000
   27  0.000  0.000  0.000  0.000
   28  0.000  0.000  0.000  0.000
   29  0.000  0.000  0.000  0.000
   30  0.000  0.000  0.000  0.000
   31  0.000  0.000  0.000  0.000
   32  0.000  0.000  0.000  0.000
   33  0.000  0.000  0.000  0.000
   34  0.000  0.000  0.000  0.000
   35  0.000  0.000  0.000  0.000
   36  0.000  0.001  0.001  0.002
   37  0.151  0.057  0.000  0.207
   38  0.013  0.533  0.000  0.545
   39  0.201  0.032  0.000  0.233
tot    0.364  0.623  0.001  0.988
 
band     7 # energy   -8.87032268 # occ.  2.00000000
 
ion      s      p      d    tot
    1  0.007  0.001  0.000  0.008
    2  0.007  0.001  0.000  0.007
    3  0.007  0.001  0.000  0.007
    4  0.007  0.001  0.000  0.007
    5  0.007  0.001  0.000  0.007
    6  0.007  0.001  0.000  0.007
    7  0.007  0.001  0.000  0.007
    8  0.007  0.001  0.000  0.007
    9  0.007  0.001  0.000  0.007
   10  0.025  0.000  0.000  0.025
   11  0.024  0.000  0.000  0.024
   12  0.025  0.000  0.000  0.025
   13  0.024  0.000  0.000  0.024
   14  0.024  0.000  0.000  0.024
   15  0.025  0.000  0.000  0.025
   16  0.025  0.000  0.000  0.025
   17  0.025  0.000  0.000  0.025
   18  0.025  0.000  0.000  0.025
   19  0.026  0.000  0.000  0.026
   20  0.023  0.000  0.000  0.023
   21  0.023  0.000  0.000  0.023
   22  0.025  0.000  0.000  0.025
   23  0.023  0.000  0.000  0.023
   24  0.025  0.000  0.000  0.025
   25  0.026  0.000  0.000  0.026
   26  0.026  0.000  0.000  0.026
   27  0.025  0.000  0.000  0.025
   28  0.007  0.001  0.000  0.008
   29  0.007  0.001  0.000  0.008
   30  0.007  0.001  0.000  0.008
   31  0.007  0.001  0.000  0.008
   32  0.007  0.001  0.000  0.008
   33  0.007  0.001  0.000  0.008
   34  0.007  0.001  0.000  0.008
   35  0.007  0.001  0.000  0.008
   36  0.003  0.000  0.000  0.003
   37  0.000  0.000  0.000  0.001
   38  0.000  0.000  0.000  0.000
   39  0.000  0.000  0.000  0.000
tot    0.560  0.016  0.001  0.578
 
band     8 # energy   -7.59011854 # occ.  2.00000000
 
ion      s      p      d    tot
    1  0.018  0.001  0.000  0.019
    2  0.018  0.001  0.000  0.019
    3  0.018  0.001  0.000  0.019
    4  0.018  0.001  0.000  0.019
    5  0.018  0.001  0.000  0.019
    6  0.018  0.001  0.000  0.019
    7  0.018  0.001  0.000  0.019
    8  0.018  0.001  0.000  0.019
    9  0.017  0.001  0.000  0.019
   10  0.010  0.002  0.001  0.013
   11  0.010  0.002  0.000  0.013
   12  0.010  0.002  0.001  0.013
   13  0.010  0.002  0.000  0.013
   14  0.010  0.002  0.000  0.013
   15  0.010  0.002  0.001  0.012
   16  0.010  0.002  0.001  0.013
   17  0.010  0.002  0.001  0.012
   18  0.010  0.002  0.001  0.012
   19  0.010  0.002  0.000  0.013
   20  0.009  0.002  0.001  0.011
   21  0.009  0.002  0.001  0.011
   22  0.010  0.002  0.000  0.013
   23  0.009  0.002  0.001  0.011
   24  0.010  0.002  0.000  0.013
   25  0.010  0.002  0.000  0.013
   26  0.010  0.002  0.000  0.013
   27  0.010  0.002  0.000  0.013
   28  0.020  0.001  0.001  0.022
   29  0.019  0.001  0.001  0.020
   30  0.019  0.001  0.001  0.020
   31  0.019  0.001  0.001  0.020
   32  0.019  0.001  0.001  0.020
   33  0.019  0.001  0.001  0.020
   34  0.019  0.001  0.001  0.020
   35  0.020  0.001  0.001  0.021
   36  0.010  0.000  0.000  0.010
   37  0.004  0.003  0.000  0.007
   38  0.000  0.001  0.000  0.001
   39  0.000  0.000  0.000  0.000
tot    0.500  0.056  0.018  0.575
 
band     9 # energy   -6.94664734 # occ.  2.00000000
 
ion      s      p      d    tot
    1  0.000  0.000  0.000  0.000
    2  0.000  0.000  0.000  0.000
    3  0.000  0.000  0.000  0.000
    4  0.000  0.000  0.000  0.000
    5  0.000  0.000  0.000  0.000
    6  0.000  0.000  0.000  0.000
    7  0.000  0.000  0.000  0.000
    8  0.000  0.000  0.000  0.000
    9  0.000  0.000  0.000  0.000
   10  0.000  0.000  0.000  0.000
   11  0.000  0.000  0.000  0.000
   12  0.000  0.000  0.000  0.000
   13  0.000  0.000  0.000  0.000
   14  0.000  0.000  0.000  0.000
   15  0.000  0.000  0.000  0.000
   16  0.000  0.000  0.000  0.000
   17  0.000  0.000  0.000  0.000
   18  0.000  0.000  0.000  0.000
   19  0.000  0.000  0.000  0.000
   20  0.000  0.000  0.000  0.000
   21  0.000  0.000  0.000  0.000
   22  0.000  0.000  0.000  0.000
   23  0.000  0.000  0.000  0.000
   24  0.000  0.000  0.000  0.000
   25  0.000  0.000  0.000  0.000
   26  0.000  0.000  0.000  0.000
   27  0.000  0.000  0.000  0.000
   28  0.000  0.000  0.000  0.000
   29  0.000  0.000  0.000  0.000
   30  0.000  0.000  0.000  0.000
   31  0.000  0.000  0.000  0.000
   32  0.000  0.000  0.000  0.000
   33  0.000  0.000  0.000  0.000
   34  0.000  0.000  0.000  0.000
   35  0.000  0.000  0.000  0.000
   36  0.000  0.000  0.002  0.003
   37  0.000  0.095  0.000  0.095
   38  0.000  0.577  0.000  0.577
   39  0.000  0.008  0.000  0.008
tot    0.000  0.681  0.003  0.684
 
band    10 # energy   -6.94655915 # occ.  2.00000000
 
ion      s      p      d    tot
    1  0.000  0.000  0.000  0.000
    2  0.000  0.000  0.000  0.000
    3  0.000  0.000  0.000  0.000
    4  0.000  0.000  0.000  0.000
    5  0.000  0.000  0.000  0.000
    6  0.000  0.000  0.000  0.000
    7  0.000  0.000  0.000  0.000
    8  0.000  0.000  0.000  0.000
    9  0.000  0.000  0.000  0.000
   10  0.000  0.000  0.000  0.000
   11  0.000  0.000  0.000  0.000
   12  0.000  0.000  0.000  0.000
   13  0.000  0.000  0.000  0.000
   14  0.000  0.000  0.000  0.000
   15  0.000  0.000  0.000  0.000
   16  0.000  0.000  0.000  0.000
   17  0.000  0.000  0.000  0.000
   18  0.000  0.000  0.000  0.000
   19  0.000  0.000  0.000  0.000
   20  0.000  0.000  0.000  0.000
   21  0.000  0.000  0.000  0.000
   22  0.000  0.000  0.000  0.000
   23  0.000  0.000  0.000  0.000
   24  0.000  0.000  0.000  0.000
   25  0.000  0.000  0.000  0.000
   26  0.000  0.000  0.000  0.000
   27  0.000  0.000  0.000  0.000
   28  0.000  0.000  0.000  0.000
   29  0.000  0.000  0.000  0.000
   30  0.000  0.000  0.000  0.000
   31  0.000  0.000  0.000  0.000
   32  0.000  0.000  0.000  0.000
   33  0.000  0.000  0.000  0.000
   34  0.000  0.000  0.000  0.000
   35  0.000  0.000  0.000  0.000
   36  0.000  0.000  0.002  0.003
   37  0.000  0.095  0.000  0.095
   38  0.000  0.577  0.000  0.577
   39  0.000  0.008  0.000  0.008
tot    0.000  0.681  0.003  0.684
 
band    11 # energy   -6.35206072 # occ.  2.00000000
 
ion      s      p      d    tot
    1  0.001  0.000  0.000  0.001
    2  0.001  0.000  0.000  0.002
    3  0.001  0.000  0.000  0.002
    4  0.001  0.000  0.000  0.002
    5  0.003  0.000  0.000  0.003
    6  0.001  0.000  0.000  0.002
    7  0.001  0.000  0.000  0.002
    8  0.001  0.000  0.000  0.002
    9  0.000  0.000  0.000  0.001
   10  0.000  0.001  0.000  0.001
   11  0.001  0.000  0.000  0.002
   12  0.000  0.001  0.000  0.001
   13  0.001  0.000  0.000  0.002
   14  0.001  0.000  0.000  0.002
   15  0.001  0.001  0.000  0.002
   16  0.000  0.001  0.000  0.001
   17  0.001  0.001  0.000  0.002
   18  0.001  0.001  0.000  0.002
   19  0.005  0.000  0.001  0.007
   20  0.002  0.002  0.003  0.007
   21  0.002  0.002  0.003  0.007
   22  0.003  0.001  0.001  0.005
   23  0.002  0.002  0.003  0.007
   24  0.003  0.001  0.001  0.005
   25  0.005  0.000  0.001  0.007
   26  0.005  0.000  0.001  0.007
   27  0.003  0.001  0.001  0.005
   28  0.001  0.000  0.000  0.002
   29  0.000  0.001  0.001  0.001
   30  0.000  0.001  0.001  0.001
   31  0.000  0.001  0.001  0.001
   32  0.000  0.001  0.001  0.001
   33  0.000  0.001  0.001  0.001
   34  0.000  0.001  0.001  0.001
   35  0.001  0.000  0.000  0.002
   36  0.039  0.015  0.082  0.136
   37  0.198  0.142  0.000  0.340
   38  0.016  0.042  0.000  0.058
   39  0.013  0.001  0.000  0.014
tot    0.318  0.218  0.105  0.642
 
band    12 # energy   -5.98261388 # occ.  2.00000000
 
ion      s      p      d    tot
    1  0.017  0.000  0.005  0.022
    2  0.014  0.000  0.005  0.020
    3  0.014  0.000  0.005  0.020
    4  0.014  0.000  0.005  0.020
    5  0.006  0.000  0.006  0.013
    6  0.014  0.000  0.005  0.020
    7  0.014  0.000  0.005  0.020
    8  0.014  0.000  0.005  0.020
    9  0.023  0.000  0.004  0.027
   10  0.002  0.003  0.003  0.008
   11  0.011  0.005  0.001  0.017
   12  0.002  0.003  0.003  0.008
   13  0.011  0.005  0.001  0.017
   14  0.011  0.005  0.001  0.017
   15  0.000  0.003  0.004  0.006
   16  0.002  0.003  0.003  0.008
   17  0.000  0.003  0.004  0.006
   18  0.000  0.003  0.004  0.006
   19  0.001  0.003  0.006  0.009
   20  0.018  0.004  0.002  0.024
   21  0.018  0.004  0.002  0.024
   22  0.001  0.004  0.004  0.009
   23  0.018  0.004  0.002  0.024
   24  0.001  0.004  0.004  0.009
   25  0.001  0.003  0.006  0.009
   26  0.001  0.003  0.006  0.009
   27  0.001  0.004  0.004  0.009
   28  0.023  0.000  0.006  0.029
   29  0.016  0.001  0.008  0.025
   30  0.016  0.001  0.008  0.025
   31  0.016  0.001  0.008  0.025
   32  0.016  0.001  0.008  0.025
   33  0.016  0.001  0.008  0.025
   34  0.016  0.001  0.008  0.025
   35  0.027  0.000  0.006  0.034
   36  0.002  0.000  0.009  0.011
   37  0.001  0.000  0.000  0.001
   38  0.000  0.000  0.000  0.000
   39  0.000  0.000  0.000  0.000
tot    0.384  0.069  0.174  0.627
 
band    13 # energy   -5.91472545 # occ.  2.00000000
 
ion      s      p      d    tot
    1  0.000  0.002  0.003  0.006
    2  0.004  0.001  0.002  0.007
    3  0.008  0.002  0.002  0.012
    4  0.004  0.001  0.002  0.007
    5  0.000  0.000  0.002  0.002
    6  0.001  0.001  0.002  0.003
    7  0.008  0.002  0.002  0.012
    8  0.001  0.001  0.002  0.004
    9  0.000  0.002  0.005  0.007
   10  0.031  0.001  0.006  0.038
   11  0.001  0.005  0.006  0.012
   12  0.008  0.009  0.005  0.022
   13  0.001  0.005  0.006  0.011
   14  0.003  0.002  0.003  0.008
   15  0.012  0.002  0.012  0.025
   16  0.007  0.009  0.005  0.021
   17  0.014  0.002  0.012  0.027
   18  0.051  0.004  0.003  0.059
   19  0.016  0.003  0.013  0.032
   20  0.011  0.003  0.003  0.017
   21  0.003  0.004  0.009  0.016
   22  0.006  0.010  0.003  0.019
   23  0.002  0.004  0.009  0.016
   24  0.022  0.000  0.007  0.029
   25  0.066  0.004  0.004  0.075
   26  0.018  0.003  0.013  0.034
   27  0.005  0.011  0.002  0.018
   28  0.000  0.004  0.007  0.011
   29  0.004  0.002  0.003  0.009
   30  0.015  0.003  0.004  0.023
   31  0.004  0.002  0.003  0.008
   32  0.004  0.002  0.003  0.008
   33  0.015  0.003  0.004  0.023
   34  0.004  0.002  0.003  0.009
   35  0.000  0.003  0.004  0.007
   36  0.000  0.000  0.003  0.003
   37  0.000  0.000  0.000  0.000
   38  0.000  0.000  0.000  0.000
   39  0.000  0.000  0.000  0.000
tot    0.348  0.114  0.177  0.640
 
band    14 # energy   -5.91465655 # occ.  2.00000000
 
ion      s      p      d    tot
    1  0.000  0.002  0.003  0.006
    2  0.005  0.001  0.002  0.008
    3  0.000  0.001  0.002  0.003
    4  0.005  0.002  0.002  0.008
    5  0.000  0.000  0.002  0.002
    6  0.008  0.002  0.002  0.012
    7  0.000  0.001  0.002  0.003
    8  0.008  0.002  0.002  0.012
    9  0.000  0.002  0.005  0.007
   10  0.000  0.012  0.004  0.016
   11  0.002  0.003  0.004  0.009
   12  0.023  0.004  0.006  0.032
   13  0.002  0.003  0.004  0.009
   14  0.000  0.006  0.007  0.013
   15  0.039  0.004  0.006  0.048
   16  0.024  0.003  0.006  0.033
   17  0.037  0.004  0.006  0.047
   18  0.000  0.001  0.015  0.015
   19  0.051  0.004  0.007  0.062
   20  0.000  0.004  0.011  0.016
   21  0.008  0.004  0.005  0.016
   22  0.016  0.004  0.005  0.025
   23  0.008  0.003  0.005  0.016
   24  0.000  0.014  0.001  0.015
   25  0.000  0.003  0.016  0.018
   26  0.049  0.004  0.007  0.060
   27  0.017  0.003  0.005  0.026
   28  0.000  0.004  0.007  0.011
   29  0.011  0.003  0.004  0.018
   30  0.000  0.001  0.003  0.004
   31  0.012  0.003  0.004  0.019
   32  0.012  0.003  0.004  0.018
   33  0.000  0.001  0.003  0.004
   34  0.011  0.003  0.004  0.018
   35  0.000  0.003  0.004  0.007
   36  0.000  0.000  0.003  0.003
   37  0.000  0.000  0.000  0.000
   38  0.000  0.000  0.000  0.000
   39  0.000  0.000  0.000  0.000
tot    0.348  0.114  0.177  0.640
 
band    15 # energy   -5.89739484 # occ.  2.00000000
 
ion      s      p      d    tot
    1  0.018  0.003  0.001  0.022
    2  0.000  0.002  0.004  0.005
    3  0.000  0.002  0.004  0.005
    4  0.000  0.002  0.004  0.005
    5  0.001  0.000  0.000  0.002
    6  0.000  0.002  0.004  0.005
    7  0.000  0.002  0.004  0.005
    8  0.000  0.002  0.004  0.005
    9  0.009  0.001  0.000  0.011
   10  0.029  0.006  0.006  0.041
   11  0.004  0.000  0.011  0.016
   12  0.030  0.006  0.006  0.041
   13  0.004  0.000  0.011  0.016
   14  0.004  0.000  0.011  0.016
   15  0.012  0.008  0.003  0.023
   16  0.030  0.006  0.006  0.041
   17  0.012  0.008  0.003  0.023
   18  0.012  0.008  0.003  0.023
   19  0.023  0.010  0.002  0.034
   20  0.000  0.002  0.010  0.012
   21  0.000  0.002  0.010  0.013
   22  0.026  0.002  0.009  0.037
   23  0.000  0.002  0.010  0.013
   24  0.026  0.002  0.009  0.037
   25  0.023  0.010  0.002  0.035
   26  0.023  0.010  0.002  0.034
   27  0.026  0.002  0.009  0.037
   28  0.018  0.003  0.000  0.021
   29  0.000  0.002  0.005  0.007
   30  0.000  0.002  0.005  0.007
   31  0.000  0.002  0.005  0.007
   32  0.000  0.002  0.005  0.007
   33  0.000  0.002  0.005  0.007
   34  0.000  0.002  0.005  0.007
   35  0.016  0.002  0.001  0.019
   36  0.000  0.000  0.000  0.000
   37  0.000  0.000  0.000  0.000
   38  0.000  0.000  0.000  0.000
   39  0.000  0.000  0.000  0.000
tot    0.345  0.115  0.180  0.641
 
band    16 # energy   -5.85853264 # occ.  2.00000000
 
ion      s      p      d    tot
    1  0.000  0.001  0.004  0.005
    2  0.005  0.002  0.002  0.009
    3  0.010  0.002  0.002  0.015
    4  0.004  0.002  0.002  0.008
    5  0.000  0.003  0.006  0.009
    6  0.001  0.001  0.002  0.004
    7  0.010  0.002  0.002  0.015
    8  0.001  0.001  0.002  0.005
    9  0.000  0.001  0.003  0.004
   10  0.000  0.001  0.016  0.017
   11  0.046  0.004  0.006  0.056
   12  0.021  0.003  0.006  0.030
   13  0.043  0.004  0.007  0.053
   14  0.000  0.007  0.011  0.017
   15  0.004  0.003  0.005  0.013
   16  0.023  0.004  0.005  0.032
   17  0.004  0.004  0.005  0.013
   18  0.000  0.013  0.002  0.015
   19  0.001  0.003  0.005  0.009
   20  0.000  0.009  0.008  0.017
   21  0.037  0.004  0.007  0.048
   22  0.030  0.004  0.006  0.040
   23  0.040  0.004  0.006  0.050
   24  0.000  0.000  0.017  0.017
   25  0.000  0.011  0.004  0.015
   26  0.000  0.004  0.005  0.009
   27  0.033  0.004  0.005  0.042
   28  0.000  0.000  0.003  0.003
   29  0.003  0.001  0.002  0.007
   30  0.010  0.003  0.003  0.016
   31  0.002  0.001  0.002  0.006
   32  0.002  0.001  0.003  0.006
   33  0.010  0.003  0.003  0.016
   34  0.002  0.001  0.003  0.007
   35  0.000  0.001  0.005  0.006
   36  0.000  0.001  0.004  0.005
   37  0.000  0.000  0.000  0.000
   38  0.000  0.000  0.000  0.000
   39  0.000  0.000  0.000  0.000
tot    0.342  0.114  0.180  0.636
 
band    17 # energy   -5.85847171 # occ.  2.00000000
 
ion      s      p      d    tot
    1  0.000  0.001  0.004  0.005
    2  0.006  0.002  0.002  0.010
    3  0.000  0.001  0.002  0.003
    4  0.006  0.002  0.002  0.010
    5  0.000  0.003  0.006  0.009
    6  0.009  0.002  0.003  0.014
    7  0.000  0.001  0.002  0.004
    8  0.009  0.002  0.003  0.014
    9  0.000  0.001  0.003  0.004
   10  0.029  0.004  0.002  0.036
   11  0.013  0.006  0.009  0.028
   12  0.008  0.002  0.012  0.022
   13  0.017  0.006  0.009  0.031
   14  0.059  0.003  0.005  0.067
   15  0.001  0.010  0.003  0.014
   16  0.006  0.002  0.013  0.021
   17  0.002  0.009  0.003  0.014
   18  0.005  0.000  0.006  0.012
   19  0.000  0.009  0.004  0.013
   20  0.051  0.002  0.006  0.059
   21  0.014  0.007  0.007  0.029
   22  0.012  0.001  0.013  0.026
   23  0.011  0.008  0.007  0.026
   24  0.042  0.005  0.002  0.049
   25  0.001  0.001  0.005  0.007
   26  0.000  0.008  0.004  0.013
   27  0.009  0.001  0.014  0.024
   28  0.000  0.000  0.003  0.003
   29  0.007  0.002  0.003  0.012
   30  0.000  0.001  0.002  0.003
   31  0.007  0.002  0.003  0.013
   32  0.008  0.002  0.003  0.013
   33  0.000  0.001  0.002  0.003
   34  0.007  0.002  0.003  0.012
   35  0.000  0.001  0.005  0.006
   36  0.000  0.001  0.004  0.005
   37  0.000  0.000  0.000  0.000
   38  0.000  0.000  0.000  0.000
   39  0.000  0.000  0.000  0.000
tot    0.342  0.114  0.180  0.636
 
band    18 # energy   -5.71115475 # occ.  2.00000000
 
ion      s      p      d    tot
    1  0.000  0.000  0.001  0.001
    2  0.001  0.002  0.006  0.010
    3  0.001  0.002  0.006  0.010
    4  0.001  0.002  0.006  0.010
    5  0.040  0.004  0.000  0.044
    6  0.001  0.002  0.006  0.010
    7  0.001  0.002  0.006  0.010
    8  0.001  0.002  0.006  0.010
    9  0.006  0.002  0.003  0.012
   10  0.003  0.004  0.009  0.016
   11  0.022  0.009  0.004  0.035
   12  0.003  0.004  0.009  0.016
   13  0.022  0.009  0.004  0.035
   14  0.022  0.009  0.004  0.035
   15  0.027  0.002  0.013  0.041
   16  0.003  0.004  0.009  0.016
   17  0.027  0.002  0.013  0.041
   18  0.027  0.002  0.013  0.041
   19  0.005  0.002  0.007  0.014
   20  0.014  0.003  0.008  0.025
   21  0.014  0.003  0.008  0.025
   22  0.005  0.005  0.005  0.016
   23  0.014  0.003  0.008  0.025
   24  0.005  0.005  0.005  0.016
   25  0.005  0.002  0.007  0.014
   26  0.005  0.002  0.007  0.014
   27  0.005  0.005  0.005  0.016
   28  0.001  0.000  0.003  0.004
   29  0.002  0.000  0.002  0.005
   30  0.002  0.000  0.002  0.005
   31  0.002  0.000  0.002  0.005
   32  0.002  0.000  0.002  0.005
   33  0.002  0.000  0.002  0.005
   34  0.002  0.000  0.002  0.005
   35  0.000  0.000  0.002  0.002
   36  0.000  0.005  0.009  0.015
   37  0.021  0.014  0.000  0.035
   38  0.002  0.004  0.000  0.006
   39  0.001  0.000  0.000  0.001
tot    0.324  0.119  0.208  0.652
 
band    19 # energy   -5.17891515 # occ.  2.00000000
 
ion      s      p      d    tot
    1  0.000  0.004  0.010  0.014
    2  0.005  0.002  0.005  0.012
    3  0.021  0.004  0.005  0.030
    4  0.005  0.002  0.005  0.012
    5  0.000  0.000  0.011  0.011
    6  0.005  0.002  0.005  0.012
    7  0.021  0.004  0.005  0.030
    8  0.006  0.002  0.005  0.013
    9  0.000  0.005  0.009  0.013
   10  0.013  0.001  0.006  0.020
   11  0.001  0.003  0.012  0.016
   12  0.003  0.004  0.016  0.022
   13  0.001  0.003  0.012  0.016
   14  0.003  0.001  0.007  0.011
   15  0.007  0.001  0.018  0.026
   16  0.003  0.004  0.016  0.022
   17  0.007  0.001  0.018  0.026
   18  0.027  0.005  0.005  0.037
   19  0.003  0.002  0.014  0.018
   20  0.001  0.001  0.009  0.011
   21  0.000  0.002  0.012  0.014
   22  0.002  0.002  0.024  0.027
   23  0.000  0.002  0.012  0.014
   24  0.006  0.002  0.003  0.012
   25  0.013  0.007  0.009  0.029
   26  0.003  0.002  0.014  0.019
   27  0.002  0.002  0.024  0.027
   28  0.000  0.005  0.008  0.013
   29  0.007  0.002  0.008  0.017
   30  0.027  0.004  0.010  0.041
   31  0.007  0.002  0.008  0.017
   32  0.006  0.002  0.008  0.016
   33  0.027  0.004  0.010  0.041
   34  0.006  0.002  0.008  0.016
   35  0.000  0.005  0.011  0.016
   36  0.000  0.000  0.009  0.009
   37  0.000  0.000  0.000  0.000
   38  0.000  0.000  0.000  0.000
   39  0.000  0.000  0.000  0.000
tot    0.237  0.094  0.368  0.700
 
band    20 # energy   -5.17886219 # occ.  2.00000000
 
ion      s      p      d    tot
    1  0.000  0.004  0.010  0.014
    2  0.016  0.003  0.005  0.024
    3  0.000  0.002  0.005  0.006
    4  0.016  0.003  0.005  0.024
    5  0.000  0.000  0.011  0.011
    6  0.015  0.003  0.005  0.024
    7  0.000  0.002  0.005  0.006
    8  0.015  0.003  0.005  0.024
    9  0.000  0.005  0.009  0.013
   10  0.000  0.004  0.019  0.023
   11  0.002  0.002  0.009  0.013
   12  0.010  0.002  0.009  0.021
   13  0.002  0.002  0.009  0.013
   14  0.000  0.003  0.014  0.017
   15  0.021  0.004  0.009  0.034
   16  0.010  0.002  0.009  0.021
   17  0.020  0.004  0.009  0.033
   18  0.000  0.000  0.022  0.022
   19  0.009  0.005  0.011  0.025
   20  0.000  0.002  0.013  0.014
   21  0.001  0.001  0.010  0.012
   22  0.005  0.002  0.010  0.017
   23  0.001  0.001  0.010  0.012
   24  0.000  0.002  0.031  0.032
   25  0.000  0.000  0.015  0.015
   26  0.009  0.005  0.011  0.025
   27  0.005  0.002  0.010  0.017
   28  0.000  0.005  0.008  0.013
   29  0.020  0.003  0.009  0.032
   30  0.000  0.002  0.007  0.008
   31  0.020  0.003  0.009  0.032
   32  0.020  0.003  0.009  0.033
   33  0.000  0.002  0.007  0.008
   34  0.020  0.003  0.009  0.033
   35  0.000  0.005  0.011  0.016
   36  0.000  0.000  0.009  0.009
   37  0.000  0.000  0.000  0.000
   38  0.000  0.000  0.000  0.000
   39  0.000  0.000  0.000  0.000