 vasp.6.2.0 18Jan21 (build Jun 12 2021 23:27:24) complex                        
  
 executed on             LinuxIFC date 2022.05.26  19:20:24
 running on   28 total cores
 distrk:  each k-point on   28 cores,    1 groups
 distr:  one band on NCORE=   1 cores,   28 groups


--------------------------------------------------------------------------------------------------------


 INCAR:
   ISMEAR = -5
   SIGMA = 0.1
   ISPIN = 1
   EDIFF = 1.d-5
   EDIFFG = -0.01
   NSW = 0
   NELM = 150
   ENCUT = 500
   ISIF = 2
   IBRION = 2
   LREAL = Auto
   ALGO = Fast
   ICHARG = 11
   LORBIT = 10
   LCHARG = .F.
   LWAVE = .F.

 POTCAR:    PAW_PBE Au 04Oct2007                  
 POTCAR:    PAW_PBE Fe 06Sep2000                  
 POTCAR:    PAW_PBE O 08Apr2002                   
 -----------------------------------------------------------------------------
|                                                                             |
|           W    W    AA    RRRRR   N    N  II  N    N   GGGG   !!!           |
|           W    W   A  A   R    R  NN   N  II  NN   N  G    G  !!!           |
|           W    W  A    A  R    R  N N  N  II  N N  N  G       !!!           |
|           W WW W  AAAAAA  RRRRR   N  N N  II  N  N N  G  GGG   !            |
|           WW  WW  A    A  R   R   N   NN  II  N   NN  G    G                |
|           W    W  A    A  R    R  N    N  II  N    N   GGGG   !!!           |
|                                                                             |
|     For optimal performance we recommend to set                             |
|       NCORE = 2 up to number-of-cores-per-socket                            |
|     NCORE specifies how many cores store one orbital (NPAR=cpu/NCORE).      |
|     This setting can greatly improve the performance of VASP for DFT.       |
|     The default, NCORE=1 might be grossly inefficient on modern             |
|     multi-core architectures or massively parallel machines. Do your        |
|     own testing! More info at https://www.vasp.at/wiki/index.php/NCORE      |
|     Unfortunately you need to use the default for GW and RPA                |
|     calculations (for HF NCORE is supported but not extensively tested      |
|     yet).                                                                   |
|                                                                             |
 -----------------------------------------------------------------------------

 POTCAR:    PAW_PBE Au 04Oct2007                  
   VRHFIN =Au: s1d10                                                                                
   LEXCH  = PE                                                                                      
   EATOM  =   926.0867 eV,   68.0654 Ry                                                             
                                                                                                    
   TITEL  = PAW_PBE Au 04Oct2007                                                                    
   LULTRA =        F    use ultrasoft PP ?                                                          
   IUNSCR =        1    unscreen: 0-lin 1-nonlin 2-no                                               
   RPACOR =    2.330    partial core radius                                                         
   POMASS =  196.966; ZVAL   =   11.000    mass and valenz                                          
   RCORE  =    2.500    outmost cutoff radius                                                       
   RWIGS  =    2.840; RWIGS  =    1.503    wigner-seitz radius (au A)                               
   ENMAX  =  229.943; ENMIN  =  172.457 eV                                                          
   ICORE  =        3    local potential                                                             
   LCOR   =        T    correct aug charges                                                         
   LPAW   =        T    paw PP                                                                      
   EAUG   =  356.670                                                                                
   DEXC   =    0.000                                                                                
   RMAX   =    2.562    core radius for proj-oper                                                   
   RAUG   =    1.300    factor for augmentation sphere                                              
   RDEP   =    2.598    radius for radial grids                                                     
   RDEPT  =    2.193    core radius for aug-charge                                                  
                                                                                                    
   Atomic configuration                                                                             
   16 entries                                                                                       
     n  l   j            E        occ.                                                              
     1  0  0.50    -80748.5001   2.0000                                                             
     2  0  0.50    -14244.7466   2.0000                                                             
     2  1  1.50    -12310.9591   6.0000                                                             
     3  0  0.50     -3362.1768   2.0000                                                             
     3  1  1.50     -2801.5463   6.0000                                                             
     3  2  2.50     -2203.8206  10.0000                                                             
     4  0  0.50      -729.8168   2.0000                                                             
     4  1  1.50      -546.0527   6.0000                                                             
     4  2  2.50      -325.7302  10.0000                                                             
     4  3  3.50       -81.1472  14.0000                                                             
     5  0  0.50      -108.3201   2.0000                                                             
     5  1  1.50       -59.7479   6.0000                                                             
     5  2  2.50        -6.8783  10.0000                                                             
     6  0  0.50        -5.7602   1.0000                                                             
     6  1  1.50        -6.8029   0.0000                                                             
     5  3  2.50        -1.3606   0.0000                                                             
   Description                                                                                      
     l       E           TYP  RCUT    TYP  RCUT                                                     
     2     -6.8782861     23  2.500                                                                 
     2     -8.2388687     23  2.500                                                                 
     0     -5.7601759     23  2.500                                                                 
     0     -0.8493231     23  2.500                                                                 
     1     -2.7211652     23  2.500                                                                 
     1     27.2116520     23  2.500                                                                 
     3     -1.3605826     23  2.500                                                                 
  local pseudopotential read in
  partial core-charges read in
  partial kinetic energy density read in
  atomic valenz-charges read in
  non local Contribution for L=           2  read in
    real space projection operators read in
  non local Contribution for L=           2  read in
    real space projection operators read in
  non local Contribution for L=           0  read in
    real space projection operators read in
  non local Contribution for L=           0  read in
    real space projection operators read in
  non local Contribution for L=           1  read in
    real space projection operators read in
  non local Contribution for L=           1  read in
    real space projection operators read in
    PAW grid and wavefunctions read in
 
   number of l-projection  operators is LMAX  =           6
   number of lm-projection operators is LMMAX =          18
 
 POTCAR:    PAW_PBE Fe 06Sep2000                  
   VRHFIN =Fe:  d7 s1                                                                               
   LEXCH  = PE                                                                                      
   EATOM  =   594.3153 eV,   43.6809 Ry                                                             
                                                                                                    
   TITEL  = PAW_PBE Fe 06Sep2000                                                                    
   LULTRA =        F    use ultrasoft PP ?                                                          
   IUNSCR =        1    unscreen: 0-lin 1-nonlin 2-no                                               
   RPACOR =    2.000    partial core radius                                                         
   POMASS =   55.847; ZVAL   =    8.000    mass and valenz                                          
   RCORE  =    2.300    outmost cutoff radius                                                       
   RWIGS  =    2.460; RWIGS  =    1.302    wigner-seitz radius (au A)                               
   ENMAX  =  267.882; ENMIN  =  200.911 eV                                                          
   RCLOC  =    1.701    cutoff for local pot                                                        
   LCOR   =        T    correct aug charges                                                         
   LPAW   =        T    paw PP                                                                      
   EAUG   =  511.368                                                                                
   DEXC   =    0.000                                                                                
   RMAX   =    2.356    core radius for proj-oper                                                   
   RAUG   =    1.300    factor for augmentation sphere                                              
   RDEP   =    2.442    radius for radial grids                                                     
   RDEPT  =    1.890    core radius for aug-charge                                                  
                                                                                                    
   Atomic configuration                                                                             
    9 entries                                                                                       
     n  l   j            E        occ.                                                              
     1  0  0.50     -6993.8440   2.0000                                                             
     2  0  0.50      -814.6047   2.0000                                                             
     2  1  1.50      -693.3689   6.0000                                                             
     3  0  0.50       -89.4732   2.0000                                                             
     3  1  1.50       -55.6373   6.0000                                                             
     3  2  2.50        -3.8151   7.0000                                                             
     4  0  0.50        -4.2551   1.0000                                                             
     4  1  1.50        -3.4015   0.0000                                                             
     4  3  2.50        -1.3606   0.0000                                                             
   Description                                                                                      
     l       E           TYP  RCUT    TYP  RCUT                                                     
     2     -3.8151135     23  2.300                                                                 
     2     -5.1756961     23  2.300                                                                 
     0     -4.2550963     23  2.300                                                                 
     0      7.2035603     23  2.300                                                                 
     1     -2.7211652     23  2.300                                                                 
     1     18.4316424     23  2.300                                                                 
  local pseudopotential read in
  partial core-charges read in
  partial kinetic energy density read in
  atomic valenz-charges read in
  non local Contribution for L=           2  read in
    real space projection operators read in
  non local Contribution for L=           2  read in
    real space projection operators read in
  non local Contribution for L=           0  read in
    real space projection operators read in
  non local Contribution for L=           0  read in
    real space projection operators read in
  non local Contribution for L=           1  read in
    real space projection operators read in
  non local Contribution for L=           1  read in
    real space projection operators read in
    PAW grid and wavefunctions read in
 
   number of l-projection  operators is LMAX  =           6
   number of lm-projection operators is LMMAX =          18
 
 POTCAR:    PAW_PBE O 08Apr2002                   
   VRHFIN =O: s2p4                                                                                  
   LEXCH  = PE                                                                                      
   EATOM  =   432.3788 eV,   31.7789 Ry                                                             
                                                                                                    
   TITEL  = PAW_PBE O 08Apr2002                                                                     
   LULTRA =        F    use ultrasoft PP ?                                                          
   IUNSCR =        1    unscreen: 0-lin 1-nonlin 2-no                                               
   RPACOR =    1.200    partial core radius                                                         
   POMASS =   16.000; ZVAL   =    6.000    mass and valenz                                          
   RCORE  =    1.520    outmost cutoff radius                                                       
   RWIGS  =    1.550; RWIGS  =    0.820    wigner-seitz radius (au A)                               
   ENMAX  =  400.000; ENMIN  =  300.000 eV                                                          
   ICORE  =        2    local potential                                                             
   LCOR   =        T    correct aug charges                                                         
   LPAW   =        T    paw PP                                                                      
   EAUG   =  605.392                                                                                
   DEXC   =    0.000                                                                                
   RMAX   =    1.553    core radius for proj-oper                                                   
   RAUG   =    1.300    factor for augmentation sphere                                              
   RDEP   =    1.550    radius for radial grids                                                     
   RDEPT  =    1.329    core radius for aug-charge                                                  
                                                                                                    
   Atomic configuration                                                                             
    4 entries                                                                                       
     n  l   j            E        occ.                                                              
     1  0  0.50      -514.6923   2.0000                                                             
     2  0  0.50       -23.9615   2.0000                                                             
     2  1  0.50        -9.0305   4.0000                                                             
     3  2  1.50        -9.5241   0.0000                                                             
   Description                                                                                      
     l       E           TYP  RCUT    TYP  RCUT                                                     
     0    -23.9615318     23  1.200                                                                 
     0     -9.5240782     23  1.200                                                                 
     1     -9.0304911     23  1.520                                                                 
     1      8.1634956     23  1.520                                                                 
     2     -9.5240782      7  1.500                                                                 
  local pseudopotential read in
  partial core-charges read in
  partial kinetic energy density read in
  kinetic energy density of atom read in
  atomic valenz-charges read in
  non local Contribution for L=           0  read in
    real space projection operators read in
  non local Contribution for L=           0  read in
    real space projection operators read in
  non local Contribution for L=           1  read in
    real space projection operators read in
  non local Contribution for L=           1  read in
    real space projection operators read in
    PAW grid and wavefunctions read in
 
   number of l-projection  operators is LMAX  =           4
   number of lm-projection operators is LMMAX =           8
 
 Optimization of the real space projectors (new method)

 maximal supplied QI-value         = 15.12
 optimisation between [QCUT,QGAM] = [ 11.34, 22.83] = [ 36.00,145.93] Ry 
 Optimized for a Real-space Cutoff    1.39 Angstroem

   l    n(q)    QCUT    max X(q) W(low)/X(q) W(high)/X(q)  e(spline) 
   2      9    11.338    60.898    0.39E-03    0.42E-03    0.21E-06
   2      9    11.338    58.894    0.40E-03    0.42E-03    0.22E-06
   0      9    11.338   109.617    0.13E-03    0.20E-04    0.13E-06
   0      9    11.338    75.026    0.13E-03    0.20E-04    0.13E-06
   1      9    11.338    16.344    0.33E-04    0.24E-03    0.18E-06
   1      9    11.338    10.160    0.26E-04    0.19E-03    0.15E-06
 Optimization of the real space projectors (new method)

 maximal supplied QI-value         = 16.25
 optimisation between [QCUT,QGAM] = [ 11.38, 22.75] = [ 36.24,144.96] Ry 
 Optimized for a Real-space Cutoff    1.39 Angstroem

   l    n(q)    QCUT    max X(q) W(low)/X(q) W(high)/X(q)  e(spline) 
   2      8    11.376    80.901    0.45E-03    0.44E-04    0.21E-06
   2      8    11.376    75.754    0.45E-03    0.45E-04    0.22E-06
   0      9    11.376    58.752    0.65E-04    0.95E-04    0.17E-06
   0      9    11.376    30.679    0.59E-04    0.87E-04    0.16E-06
   1      9    11.376    17.977    0.38E-03    0.10E-03    0.14E-06
   1      9    11.376    13.559    0.31E-03    0.90E-04    0.12E-06
 Optimization of the real space projectors (new method)

 maximal supplied QI-value         = 24.76
 optimisation between [QCUT,QGAM] = [ 11.39, 22.77] = [ 36.31,145.25] Ry 
 Optimized for a Real-space Cutoff    1.00 Angstroem

   l    n(q)    QCUT    max X(q) W(low)/X(q) W(high)/X(q)  e(spline) 
   0      7    11.387    20.381    0.39E-03    0.13E-02    0.15E-06
   0      7    11.387    15.268    0.42E-03    0.14E-02    0.17E-06
   1      6    11.387     5.964    0.41E-03    0.11E-02    0.17E-06
   1      6    11.387     5.382    0.39E-03    0.87E-03    0.15E-06
  PAW_PBE Au 04Oct2007                  :
 energy of atom  1       EATOM= -926.0867
 kinetic energy error for atom=    0.0042 (will be added to EATOM!!)
  PAW_PBE Fe 06Sep2000                  :
 energy of atom  2       EATOM= -594.3153
 kinetic energy error for atom=    0.0026 (will be added to EATOM!!)
  PAW_PBE O 08Apr2002                   :
 energy of atom  3       EATOM= -432.3788
 kinetic energy error for atom=    0.0224 (will be added to EATOM!!)
 
 
 POSCAR: Au-Fe-O
  positions in direct lattice
  velocities in cartesian coordinates
 exchange correlation table for  LEXCH =        8
   RHO(1)=    0.500       N(1)  =     2000
   RHO(2)=  100.500       N(2)  =     4000

 VTST: version 3.2, (02/03/18)

 CHAIN: initializing optimizer
 
 OPT: Using VASP Conjugate-Gradient optimizer
 CHAIN: Read ICHAIN            0
 
 POSCAR: Au-Fe-O
  positions in direct lattice
  velocities in cartesian coordinates
 


--------------------------------------------------------------------------------------------------------


 ion  position               nearest neighbor table
   1  0.000  0.000  0.238-  16 2.94  12 2.94   6 2.94   8 2.94   7 2.94   3 2.94  10 2.94   4 2.94
                             2 2.94
   2  0.333  0.000  0.238-   9 2.94  11 2.94  17 2.94  10 2.94   8 2.94   4 2.94   5 2.94   1 2.94
                             3 2.94
   3  0.667  0.000  0.238-   7 2.94  18 2.94  12 2.94   1 2.94  11 2.94   5 2.94   6 2.94   9 2.94
                             2 2.94
   4  0.000  0.333  0.238-  10 2.94   6 2.94   5 2.94  13 2.94   2 2.94  15 2.94   9 2.94   1 2.94
                             7 2.94
   5  0.333  0.333  0.238-  13 2.94   7 2.94  11 2.94   4 2.94   2 2.94  14 2.94   3 2.94   8 2.94
                             6 2.94
   6  0.667  0.333  0.238-  15 2.94  14 2.94   1 2.94  12 2.94   4 2.94   9 2.94   8 2.94   3 2.94
                             5 2.94
   7  0.000  0.667  0.238-  18 2.94   3 2.94  16 2.94   5 2.94   1 2.94  13 2.94   8 2.94   4 2.94
                             9 2.94
   8  0.333  0.667  0.238-   9 2.94  17 2.94   1 2.94   2 2.94  14 2.94  16 2.94   6 2.94   7 2.94
                             5 2.94
   9  0.667  0.667  0.238-   2 2.94   8 2.94  17 2.94   6 2.94  15 2.94   4 2.94   3 2.94  18 2.94
                             7 2.94
  10  0.111  0.111  0.346-  20 2.93  26 2.94  19 2.94  11 2.94  17 2.94   2 2.94   4 2.94   1 2.94
                            12 2.94  16 2.94  13 2.94  15 2.94
  11  0.444  0.111  0.346-  20 2.91  21 2.91  27 2.93  13 2.94   2 2.94  10 2.94  17 2.94   5 2.94
                             3 2.94  18 2.94  14 2.94  12 2.94
  12  0.778  0.111  0.346-  21 2.93  25 2.94  19 2.94  16 2.94  18 2.94   1 2.94  14 2.94  15 2.94
                             3 2.94   6 2.94  10 2.94  11 2.94
  13  0.111  0.444  0.346-  23 2.91  20 2.91  22 2.93   5 2.94  18 2.94  11 2.94   7 2.94   4 2.94
                            16 2.94  10 2.94  14 2.94  15 2.94
  14  0.444  0.444  0.346-  21 2.91  23 2.91  24 2.93  15 2.94   6 2.94  12 2.94   8 2.94  17 2.94
                             5 2.94  16 2.94  13 2.94  11 2.94
  15  0.778  0.444  0.346-  24 2.92  22 2.92  19 2.94  14 2.94   6 2.94  17 2.94  12 2.94   9 2.94
                             4 2.94  10 2.94  13 2.94  18 2.94
  16  0.111  0.778  0.346-  23 2.93  25 2.94  26 2.94  18 2.94  12 2.94   7 2.94   1 2.94   8 2.94
                            13 2.94  10 2.94  14 2.94  17 2.94
  17  0.444  0.778  0.346-  27 2.92  24 2.92  26 2.94   9 2.94  15 2.94   2 2.94  10 2.94  11 2.94
                             8 2.94  14 2.94  16 2.94  18 2.94
  18  0.778  0.778  0.346-  22 2.92  27 2.92  25 2.94  16 2.94   7 2.94  13 2.94  12 2.94   3 2.94
                            11 2.94   9 2.94  15 2.94  17 2.94
  19  0.889  0.222  0.454-  10 2.94  12 2.94  15 2.94  26 2.94  25 2.94  24 2.94  22 2.94  28 2.95
                            21 2.95  20 2.95  32 2.98  31 2.98
  20  0.223  0.223  0.453-  36 2.70  23 2.91  21 2.91  11 2.91  13 2.91  29 2.92  31 2.92  10 2.93
                            27 2.95  22 2.95  26 2.95  19 2.95
  21  0.553  0.223  0.453-  36 2.70  20 2.91  23 2.91  14 2.91  11 2.91  30 2.92  32 2.92  12 2.93
                            27 2.95  24 2.95  25 2.95  19 2.95
  22  0.887  0.557  0.453-  24 2.91  27 2.91  18 2.92  15 2.92  13 2.93  25 2.94  19 2.94  33 2.95
                            31 2.95  23 2.95  20 2.95  35 2.95
  23  0.223  0.553  0.453-  36 2.70  20 2.91  21 2.91  13 2.91  14 2.91  33 2.92  34 2.92  16 2.93
                            22 2.95  24 2.95  25 2.95  26 2.95
  24  0.557  0.557  0.453-  27 2.91  22 2.91  15 2.92  17 2.92  14 2.93  26 2.94  19 2.94  32 2.95
                            34 2.95  21 2.95  23 2.95  35 2.95
  25  0.889  0.889  0.454-  16 2.94  12 2.94  18 2.94  19 2.94  26 2.94  22 2.94  27 2.94  28 2.95
                            23 2.95  21 2.95  33 2.98  30 2.98
  26  0.222  0.889  0.454-  10 2.94  16 2.94  17 2.94  19 2.94  25 2.94  27 2.94  24 2.94  28 2.95
                            20 2.95  23 2.95  29 2.98  34 2.98
  27  0.557  0.887  0.453-  24 2.91  22 2.91  17 2.92  18 2.92  11 2.93  26 2.94  25 2.94  29 2.95
                            30 2.95  20 2.95  21 2.95  35 2.95
  28  0.000  0.000  0.563-  25 2.95  19 2.95  26 2.95  34 2.98  32 2.98  33 2.98  30 2.98  31 2.98
                            29 2.98
  29  0.333  0.010  0.562-  30 2.85  31 2.85  36 2.87  20 2.92  27 2.95  26 2.98  35 2.98  28 2.98
                            34 3.11
  30  0.657  0.010  0.562-  29 2.85  32 2.85  36 2.87  21 2.92  27 2.95  25 2.98  35 2.98  28 2.98
                            33 3.11
  31  0.010  0.333  0.562-  33 2.85  29 2.85  36 2.87  20 2.92  22 2.95  19 2.98  35 2.98  28 2.98
                            32 3.11
  32  0.657  0.333  0.562-  34 2.85  30 2.85  36 2.87  21 2.92  24 2.95  19 2.98  35 2.98  28 2.98
                            31 3.11
  33  0.010  0.657  0.562-  31 2.85  34 2.85  36 2.87  23 2.92  22 2.95  25 2.98  35 2.98  28 2.98
                            30 3.11
  34  0.333  0.657  0.562-  32 2.85  33 2.85  36 2.87  23 2.92  24 2.95  26 2.98  35 2.98  28 2.98
                            29 3.11
  35  0.667  0.667  0.563-  24 2.95  27 2.95  22 2.95  29 2.98  34 2.98  32 2.98  31 2.98  30 2.98
                            33 2.98
  36  0.333  0.333  0.548-  37 1.60  20 2.70  23 2.70  21 2.70  33 2.87  31 2.87  29 2.87  30 2.87
                            34 2.87  32 2.87
  37  0.333  0.333  0.620-  36 1.60
 
  LATTYP: Found a hexagonal cell.
 ALAT       =     8.8135128021
 C/A-ratio  =     2.5184286595
  
  Lattice vectors:
  
 A1 = (  -4.4067569092,  -7.6327256898,   0.0000000000)
 A2 = (   8.8135128021,   0.0000000000,   0.0000000000)
 A3 = (   0.0000000000,   0.0000000000,  22.1962032318)


Analysis of symmetry for initial positions (statically):
=====================================================================
 Subroutine PRICEL returns:
 Original cell was already a primitive cell.
 

 Routine SETGRP: Setting up the symmetry group for a 
 hexagonal supercell.


 Subroutine GETGRP returns: Found  6 space group operations
 (whereof  6 operations were pure point group operations)
 out of a pool of 24 trial point group operations.


The static configuration has the point symmetry C_3v.


Analysis of symmetry for dynamics (positions and initial velocities):
=====================================================================
 Subroutine PRICEL returns:
 Original cell was already a primitive cell.
 

 Routine SETGRP: Setting up the symmetry group for a 
 hexagonal supercell.


 Subroutine GETGRP returns: Found  6 space group operations
 (whereof  6 operations were pure point group operations)
 out of a pool of 24 trial point group operations.


The dynamic configuration has the point symmetry C_3v.


Analysis of constrained symmetry for selective dynamics:
=====================================================================
 Subroutine PRICEL returns:
 Original cell was already a primitive cell.
 

 Routine SETGRP: Setting up the symmetry group for a 
 hexagonal supercell.


 Subroutine GETGRP returns: Found  6 space group operations
 (whereof  6 operations were pure point group operations)
 out of a pool of 24 trial point group operations.


The constrained configuration has the point symmetry C_3v.


 Subroutine INISYM returns: Found  6 space group operations
 (whereof  6 operations are pure point group operations),
 and found     1 'primitive' translations


----------------------------------------------------------------------------------------

                                     Primitive cell                                     

  volume of cell :    1493.1636

  direct lattice vectors                    reciprocal lattice vectors
     8.813512802  0.000000000  0.000000000     0.113462137 -0.065507406  0.000000000
     4.406756909  7.632725690  0.000000000     0.000000000  0.131014796  0.000000000
     0.000000000  0.000000000 22.196203232     0.000000000  0.000000000  0.045052750

  length of vectors
     8.813512802  8.813512802 22.196203232     0.131014796  0.131014796  0.045052750

  position of ions in fractional coordinates (direct lattice)
     0.000000000  0.000000000  0.237895638
     0.333333343  0.000000000  0.237895638
     0.666666687  0.000000000  0.237895638
     1.000000000  0.333333343  0.237895638
     0.333333313  0.333333343  0.237895638
     0.666666687  0.333333343  0.237895638
     1.000000000  0.666666687  0.237895638
     0.333333343  0.666666687  0.237895638
     0.666666627  0.666666687  0.237895638
     0.111111119  0.111111112  0.345965207
     0.444444418  0.111111112  0.345965207
     0.777777791  0.111111112  0.345965207
     0.111111127  0.444444448  0.345965207
     0.444444478  0.444444448  0.345965207
     0.777777731  0.444444448  0.345965207
     0.111111090  0.777777791  0.345965207
     0.444444448  0.777777791  0.345965207
     0.777777851  0.777777791  0.345965207
     0.888897724  0.222204568  0.453915194
     0.223341676  0.223341661  0.452810831
     0.553316708  0.223341661  0.452810831
     0.886702705  0.556648677  0.453283142
     0.223341631  0.553316708  0.452810831
     0.556648677  0.556648677  0.453283142
     0.888897724  0.888897724  0.453915194
     0.222204598  0.888897724  0.453915194
     0.556648617  0.886702705  0.453283142
     0.000000000  0.000000000  0.562572770
     0.333409010  0.009749430  0.561772089
     0.656841590  0.009749430  0.561772089
     0.009749430  0.333409010  0.561772089
     0.656841590  0.333409010  0.561772089
     0.009749430  0.656841590  0.561772089
     0.333409010  0.656841590  0.561772089
     0.666666627  0.666666687  0.562790780
     0.333333313  0.333333343  0.547862411
     0.333333313  0.333333343  0.620088870

  ion indices of the primitive-cell ions
   primitive index   ion index
                 1           1
                 2           2
                 3           3
                 4           4
                 5           5
                 6           6
                 7           7
                 8           8
                 9           9
                10          10
                11          11
                12          12
                13          13
                14          14
                15          15
                16          16
                17          17
                18          18
                19          19
                20          20
                21          21
                22          22
                23          23
                24          24
                25          25
                26          26
                27          27
                28          28
                29          29
                30          30
                31          31
                32          32
                33          33
                34          34
                35          35
                36          36
                37          37

----------------------------------------------------------------------------------------

 
 
 KPOINTS: Automatic mesh                          

Automatic generation of k-mesh.
 Grid dimensions read from file:
 generate k-points for:    8    8    1

 Generating k-lattice:

  Cartesian coordinates                     Fractional coordinates (reciprocal lattice)
     0.014182767 -0.008188426  0.000000000     0.125000000 -0.000000000  0.000000000
     0.000000000  0.016376850  0.000000000     0.000000000  0.125000000  0.000000000
     0.000000000  0.000000000  0.045052750     0.000000000  0.000000000  1.000000000

  Length of vectors
     0.016376850  0.016376850  0.045052750

  Shift w.r.t. Gamma in fractional coordinates (k-lattice)
     0.000000000  0.000000000  0.000000000

 TETIRR: Found     36 inequivalent tetrahedra from      384
 
 Subroutine IBZKPT returns following result:
 ===========================================
 
 Found     10 irreducible k-points:
 
 Following reciprocal coordinates:
            Coordinates               Weight
  0.000000  0.000000  0.000000      1.000000
  0.125000 -0.000000  0.000000      6.000000
  0.250000 -0.000000  0.000000      6.000000
  0.375000  0.000000  0.000000      6.000000
  0.500000 -0.000000  0.000000      3.000000
  0.250000  0.125000  0.000000      6.000000
  0.375000  0.125000  0.000000     12.000000
  0.500000  0.125000  0.000000     12.000000
  0.500000  0.250000  0.000000      6.000000
 -0.375000  0.250000  0.000000      6.000000
 
 Following cartesian coordinates:
            Coordinates               Weight
  0.000000  0.000000  0.000000      1.000000
  0.014183 -0.008188  0.000000      6.000000
  0.028366 -0.016377  0.000000      6.000000
  0.042548 -0.024565  0.000000      6.000000
  0.056731 -0.032754  0.000000      3.000000
  0.028366 -0.000000  0.000000      6.000000
  0.042548 -0.008188  0.000000     12.000000
  0.056731 -0.016377  0.000000     12.000000
  0.056731 -0.000000  0.000000      6.000000
 -0.042548  0.057319  0.000000      6.000000
 


--------------------------------------------------------------------------------------------------------




 Dimension of arrays:
   k-points           NKPTS =     10   k-points in BZ     NKDIM =     10   number of bands    NBANDS=    252
   number of dos      NEDOS =    301   number of ions     NIONS =     37
   non local maximal  LDIM  =      6   non local SUM 2l+1 LMDIM =     18
   total plane-waves  NPLWV = 290304
   max r-space proj   IRMAX =   2236   max aug-charges    IRDMAX=  12088
   dimension x,y,z NGX =    48 NGY =   48 NGZ =  126
   dimension x,y,z NGXF=    96 NGYF=   96 NGZF=  252
   support grid    NGXF=    96 NGYF=   96 NGZF=  252
   ions per type =              35   1   1
   NGX,Y,Z   is equivalent  to a cutoff of   9.05,  9.05,  9.44 a.u.
   NGXF,Y,Z  is equivalent  to a cutoff of  18.11, 18.11, 18.87 a.u.

 SYSTEM =  unknown system                          
 POSCAR =  Au-Fe-O                                 

 Startparameter for this run:
   NWRITE =      2    write-flag & timer
   PREC   = normal    normal or accurate (medium, high low for compatibility)
   ISTART =      0    job   : 0-new  1-cont  2-samecut
   ICHARG =     11    charge: 1-file 2-atom 10-const
   ISPIN  =      1    spin polarized calculation?
   LNONCOLLINEAR =      F non collinear calculations
   LSORBIT =      F    spin-orbit coupling
   INIWAV =      1    electr: 0-lowe 1-rand  2-diag
   LASPH  =      F    aspherical Exc in radial PAW
   METAGGA=      F    non-selfconsistent MetaGGA calc.

 Electronic Relaxation 1
   ENCUT  =  500.0 eV  36.75 Ry    6.06 a.u.  16.07 16.07 40.47*2*pi/ulx,y,z
   ENINI  =  500.0     initial cutoff
   ENAUG  =  605.4 eV  augmentation charge cutoff
   NELM   =    150;   NELMIN=  2; NELMDL= -5     # of ELM steps 
   EDIFF  = 0.1E-04   stopping-criterion for ELM
   LREAL  =      T    real-space projection
   NLSPLINE    = F    spline interpolate recip. space projectors
   LCOMPAT=      F    compatible to vasp.4.4
   GGA_COMPAT  = T    GGA compatible to vasp.4.4-vasp.4.6
   LMAXPAW     = -100 max onsite density
   LMAXMIX     =    2 max onsite mixed and CHGCAR
   VOSKOWN=      0    Vosko Wilk Nusair interpolation
   ROPT   =   -0.00050  -0.00050  -0.00050
 Ionic relaxation
   EDIFFG = -.1E-01   stopping-criterion for IOM
   NSW    =      0    number of steps for IOM
   NBLOCK =      1;   KBLOCK =      1    inner block; outer block 
   IBRION =     -1    ionic relax: 0-MD 1-quasi-New 2-CG
   NFREE  =      1    steps in history (QN), initial steepest desc. (CG)
   ISIF   =      2    stress and relaxation
   IWAVPR =     10    prediction:  0-non 1-charg 2-wave 3-comb
   ISYM   =      2    0-nonsym 1-usesym 2-fastsym
   LCORR  =      T    Harris-Foulkes like correction to forces

   POTIM  = 0.5000    time-step for ionic-motion
   TEIN   =    0.0    initial temperature
   TEBEG  =    0.0;   TEEND  =   0.0 temperature during run
   SMASS  =  -3.00    Nose mass-parameter (am)
   estimated Nose-frequenzy (Omega)   =  0.10E-29 period in steps = 0.13E+47 mass=  -0.178E-26a.u.
   SCALEE = 1.0000    scale energy and forces
   NPACO  =    256;   APACO  = 16.0  distance and # of slots for P.C.
   PSTRESS=    0.0 pullay stress

  Mass of Ions in am
   POMASS = 196.97 55.85 16.00
  Ionic Valenz
   ZVAL   =  11.00  8.00  6.00
  Atomic Wigner-Seitz radii
   RWIGS  =  -1.00 -1.00 -1.00
  virtual crystal weights 
   VCA    =   1.00  1.00  1.00
   NELECT =     399.0000    total number of electrons
   NUPDOWN=      -1.0000    fix difference up-down

 DOS related values:
   EMIN   =  10.00;   EMAX   =-10.00  energy-range for DOS
   EFERMI =   0.00
   ISMEAR =    -5;   SIGMA  =   0.10  broadening in eV -4-tet -1-fermi 0-gaus

 Electronic relaxation 2 (details)
   IALGO  =     68    algorithm
   LDIAG  =      T    sub-space diagonalisation (order eigenvalues)
   LSUBROT=      F    optimize rotation matrix (better conditioning)
   TURBO    =      0    0=normal 1=particle mesh
   IRESTART =      0    0=no restart 2=restart with 2 vectors
   NREBOOT  =      0    no. of reboots
   NMIN     =      0    reboot dimension
   EREF     =   0.00    reference energy to select bands
   IMIX   =      4    mixing-type and parameters
     AMIX     =   0.40;   BMIX     =  1.00
     AMIX_MAG =   1.60;   BMIX_MAG =  1.00
     AMIN     =   0.10
     WC   =   100.;   INIMIX=   1;  MIXPRE=   1;  MAXMIX= -45

 Intra band minimization:
   WEIMIN = 0.0000     energy-eigenvalue tresh-hold
   EBREAK =  0.99E-08  absolut break condition
   DEPER  =   0.30     relativ break condition  

   TIME   =   0.40     timestep for ELM

  volume/ion in A,a.u.               =      40.36       272.33
  Fermi-wavevector in a.u.,A,eV,Ry     =   1.054460  1.992640 15.128118  1.111885
  Thomas-Fermi vector in A             =   2.189621
 
 Write flags
   LWAVE        =      F    write WAVECAR
   LDOWNSAMPLE  =      F    k-point downsampling of WAVECAR
   LCHARG       =      F    write CHGCAR
   LVTOT        =      F    write LOCPOT, total local potential
   LVHAR        =      F    write LOCPOT, Hartree potential only
   LELF         =      F    write electronic localiz. function (ELF)
   LORBIT       =     10    0 simple, 1 ext, 2 COOP (PROOUT), +10 PAW based schemes


 Dipole corrections
   LMONO  =      F    monopole corrections only (constant potential shift)
   LDIPOL =      F    correct potential (dipole corrections)
   IDIPOL =      0    1-x, 2-y, 3-z, 4-all directions 
   EPSILON=  1.0000000 bulk dielectric constant

 Exchange correlation treatment:
   GGA     =    --    GGA type
   LEXCH   =     8    internal setting for exchange type
   VOSKOWN=      0    Vosko Wilk Nusair interpolation
   LHFCALC =     F    Hartree Fock is set to
   LHFONE  =     F    Hartree Fock one center treatment
   AEXX    =    0.0000 exact exchange contribution

 Linear response parameters
   LEPSILON=     F    determine dielectric tensor
   LRPA    =     F    only Hartree local field effects (RPA)
   LNABLA  =     F    use nabla operator in PAW spheres
   LVEL    =     F    velocity operator in full k-point grid
   LINTERFAST=   F  fast interpolation
   KINTER  =     0    interpolate to denser k-point grid
   CSHIFT  =0.1000    complex shift for real part using Kramers Kronig
   OMEGAMAX=  -1.0    maximum frequency
   DEG_THRESHOLD= 0.2000000E-02 threshold for treating states as degnerate
   RTIME   =   -0.100 relaxation time in fs
  (WPLASMAI=    0.000 imaginary part of plasma frequency in eV, 0.658/RTIME)
   DFIELD  = 0.0000000 0.0000000 0.0000000 field for delta impulse in time
 
 Orbital magnetization related:
   ORBITALMAG=     F  switch on orbital magnetization
   LCHIMAG   =     F  perturbation theory with respect to B field
   DQ        =  0.001000  dq finite difference perturbation B field
   LLRAUG    =     F  two centre corrections for induced B field



--------------------------------------------------------------------------------------------------------


 Static calculation
 charge density and potential remain constant during run
 non-spin polarized calculation
 RMM-DIIS sequential band-by-band and
  variant of blocked Davidson during initial phase
 perform sub-space diagonalisation
    before iterative eigenvector-optimisation
 no mixing
 using additional bands           52
 real space projection scheme for non local part
 use partial core corrections
 calculate Harris-corrections to forces 
   (improved forces if not selfconsistent)
 use gradient corrections 
 WARNING: stress and forces are not correct
  (second derivative of E(xc) not defined)
 use of overlap-Matrix (Vanderbilt PP)
 Fermi weights with tetrahedron method with Bloechl corrections


--------------------------------------------------------------------------------------------------------


  energy-cutoff  :      500.00
  volume of cell :     1493.16
      direct lattice vectors                 reciprocal lattice vectors
     8.813512802  0.000000000  0.000000000     0.113462137 -0.065507406  0.000000000
     4.406756909  7.632725690  0.000000000     0.000000000  0.131014796  0.000000000
     0.000000000  0.000000000 22.196203232     0.000000000  0.000000000  0.045052750

  length of vectors
     8.813512802  8.813512802 22.196203232     0.131014796  0.131014796  0.045052750


 
 k-points in units of 2pi/SCALE and weight: Automatic mesh                          
   0.00000000  0.00000000  0.00000000       0.016
   0.01418277 -0.00818843  0.00000000       0.094
   0.02836553 -0.01637685  0.00000000       0.094
   0.04254830 -0.02456528  0.00000000       0.094
   0.05673107 -0.03275370  0.00000000       0.047
   0.02836553 -0.00000000  0.00000000       0.094
   0.04254830 -0.00818843  0.00000000       0.188
   0.05673107 -0.01637685  0.00000000       0.188
   0.05673107 -0.00000000  0.00000000       0.094
  -0.04254830  0.05731898  0.00000000       0.094
 
 k-points in reciprocal lattice and weights: Automatic mesh                          
   0.00000000  0.00000000  0.00000000       0.016
   0.12500000 -0.00000000  0.00000000       0.094
   0.25000000 -0.00000000  0.00000000       0.094
   0.37500000  0.00000000  0.00000000       0.094
   0.50000000 -0.00000000  0.00000000       0.047
   0.25000000  0.12500000  0.00000000       0.094
   0.37500000  0.12500000  0.00000000       0.188
   0.50000000  0.12500000  0.00000000       0.188
   0.50000000  0.25000000  0.00000000       0.094
  -0.37500000  0.25000000  0.00000000       0.094
 
 position of ions in fractional coordinates (direct lattice) 
   0.00000000  0.00000000  0.23789564
   0.33333334  0.00000000  0.23789564
   0.66666669  0.00000000  0.23789564
   0.00000000  0.33333334  0.23789564
   0.33333331  0.33333334  0.23789564
   0.66666669  0.33333334  0.23789564
   0.00000000  0.66666669  0.23789564
   0.33333334  0.66666669  0.23789564
   0.66666663  0.66666669  0.23789564
   0.11111112  0.11111111  0.34596521
   0.44444442  0.11111111  0.34596521
   0.77777779  0.11111111  0.34596521
   0.11111113  0.44444445  0.34596521
   0.44444448  0.44444445  0.34596521
   0.77777773  0.44444445  0.34596521
   0.11111109  0.77777779  0.34596521
   0.44444445  0.77777779  0.34596521
   0.77777785  0.77777779  0.34596521
   0.88889772  0.22220457  0.45391519
   0.22334168  0.22334166  0.45281083
   0.55331671  0.22334166  0.45281083
   0.88670271  0.55664868  0.45328314
   0.22334163  0.55331671  0.45281083
   0.55664868  0.55664868  0.45328314
   0.88889772  0.88889772  0.45391519
   0.22220460  0.88889772  0.45391519
   0.55664862  0.88670271  0.45328314
   0.00000000  0.00000000  0.56257277
   0.33340901  0.00974943  0.56177209
   0.65684159  0.00974943  0.56177209
   0.00974943  0.33340901  0.56177209
   0.65684159  0.33340901  0.56177209
   0.00974943  0.65684159  0.56177209
   0.33340901  0.65684159  0.56177209
   0.66666663  0.66666669  0.56279078
   0.33333331  0.33333334  0.54786241
   0.33333331  0.33333334  0.62008887
 
 position of ions in cartesian coordinates  (Angst):
   0.00000000  0.00000000  5.28037993
   2.93783769  0.00000000  5.28037993
   5.87567538  0.00000000  5.28037993
   1.46891901  2.54424197  5.28037993
   4.40675643  2.54424197  5.28037993
   7.34459439  2.54424197  5.28037993
   2.93783803  5.08848395  5.28037993
   5.87567571  5.08848395  5.28037993
   8.81351288  5.08848395  5.28037993
   1.46891893  0.84808064  7.67911405
   4.40675623  0.84808064  7.67911405
   7.34459418  0.84808064  7.67911405
   2.93783798  3.39232256  7.67911405
   5.87567574  3.39232256  7.67911405
   8.81351263  3.39232256  7.67911405
   4.40675667  5.93656453  7.67911405
   7.34459449  5.93656453  7.67911405
  10.28243270  5.93656453  7.67911405
   8.81351299  1.69602652 10.07519390
   2.95263713  1.70470563 10.05068122
   5.86087630  1.70470563 10.05068122
  10.26798105  4.24874666 10.06116473
   4.40675655  4.22331465 10.05068122
   7.35904565  4.24874666 10.06116473
  11.75146765  6.78471249 10.07519390
   5.87555926  6.78471249 10.07519390
   8.81351299  6.76795852 10.06116473
   0.00000000  0.00000000 12.48697953
   2.98146795  0.07441473 12.46920745
   5.83204513  0.07441473 12.46920745
   1.55517919  2.54481952 12.46920745
   7.25833422  2.54481952 12.46920745
   2.98046794  5.01349168 12.46920745
   5.83304579  5.01349168 12.46920745
   8.81351288  5.08848395 12.49181854
   4.40675643  2.54424197 12.16046541
   4.40675643  2.54424197 13.76361858
 


--------------------------------------------------------------------------------------------------------


 k-point   1 :   0.0000 0.0000 0.0000  plane waves:   37827
 k-point   2 :   0.1250-0.0000 0.0000  plane waves:   37876
 k-point   3 :   0.2500-0.0000 0.0000  plane waves:   37924
 k-point   4 :   0.3750 0.0000 0.0000  plane waves:   37904
 k-point   5 :   0.5000-0.0000 0.0000  plane waves:   37912
 k-point   6 :   0.2500 0.1250 0.0000  plane waves:   37858
 k-point   7 :   0.3750 0.1250 0.0000  plane waves:   37928
 k-point   8 :   0.5000 0.1250 0.0000  plane waves:   37924
 k-point   9 :   0.5000 0.2500 0.0000  plane waves:   37926
 k-point  10 :  -0.3750 0.2500 0.0000  plane waves:   37916

 maximum and minimum number of plane-waves per node :     37928    37827

 maximum number of plane-waves:     37928
 maximum index in each direction: 
   IXMAX=   16   IYMAX=   16   IZMAX=   40
   IXMIN=  -16   IYMIN=  -16   IZMIN=  -40


 serial   3D FFT for wavefunctions
 parallel 3D FFT for charge:
    minimum data exchange during FFTs selected (reduces bandwidth)


 total amount of memory used by VASP MPI-rank0   121870. kBytes
=======================================================================

   base      :      30000. kBytes
   nonlr-proj:      13485. kBytes
   fftplans  :       4330. kBytes
   grid      :      17879. kBytes
   one-center:        575. kBytes
   wavefun   :      55601. kBytes
 
     INWAV:  cpu time    0.0000: real time    0.0000
 initial charge density was supplied:
 number of electron     399.0000054 magnetization 
 keeping initial charge density in first step


--------------------------------------------------------------------------------------------------------


 Maximum index for non-local projection operator         2121
 Maximum index for augmentation-charges          858 (set IRDMAX)


--------------------------------------------------------------------------------------------------------


 First call to EWALD:  gamma=   0.155
 Maximum number of real-space cells 4x 4x 2
 Maximum number of reciprocal cells 2x 2x 5

    FEWALD:  cpu time    0.0013: real time    0.0013


--------------------------------------- Iteration      1(   1)  ---------------------------------------


    POTLOK:  cpu time    0.0424: real time    0.0428
    SETDIJ:  cpu time    0.0051: real time    0.0052
     EDDAV:  cpu time    7.1162: real time    7.1177
 BZINTS: Fermi energy:   11.330161;  399.000000 electrons
         Band energy: 0.154887E+04;  BLOECHL correction:   -0.030462
       DOS:  cpu time    0.0106: real time    0.0107
    --------------------------------------------
      LOOP:  cpu time    7.1744: real time    7.1765

 eigenvalue-minimisations  :  5040
 total energy-change (2. order) : 0.2681485E+04  (-0.1808495E+05)
 number of electron     399.0000054 magnetization 
 augmentation part      399.0000054 magnetization 

 Free energy of the ion-electron system (eV)
  ---------------------------------------------------
  alpha Z        PSCENC =      1019.62874215
  Ewald energy   TEWEN  =     97422.26908330
  -Hartree energ DENC   =   -132016.47078656
  -exchange      EXHF   =         0.00000000
  -V(xc)+E(xc)   XCENC  =       548.16129782
  PAW double counting   =     36354.99376436   -35635.51899809
  entropy T*S    EENTRO =         0.00000000
  eigenvalues    EBANDS =      1548.86661224
  atomic energy  EATOM  =     33439.55530901
  Solvation  Ediel_sol  =         0.00000000
  ---------------------------------------------------
  free energy    TOTEN  =      2681.48502422 eV

  energy without entropy =     2681.48502422  energy(sigma->0) =     2681.48502422


--------------------------------------------------------------------------------------------------------




--------------------------------------- Iteration      1(   2)  ---------------------------------------


     EDDAV:  cpu time    7.6867: real time    7.6990
 BZINTS: Fermi energy:    1.418304;  399.000000 electrons
         Band energy:-0.111007E+04;  BLOECHL correction:   -0.055163
       DOS:  cpu time    0.0103: real time    0.0103
    --------------------------------------------
      LOOP:  cpu time    7.6970: real time    7.7093

 eigenvalue-minimisations  :  5572
 total energy-change (2. order) :-0.2658934E+04  (-0.2456797E+04)
 number of electron     399.0000054 magnetization 
 augmentation part      399.0000054 magnetization 

 Free energy of the ion-electron system (eV)
  ---------------------------------------------------
  alpha Z        PSCENC =      1019.62874215
  Ewald energy   TEWEN  =     97422.26908330
  -Hartree energ DENC   =   -132016.47078656
  -exchange      EXHF   =         0.00000000
  -V(xc)+E(xc)   XCENC  =       548.16129782
  PAW double counting   =     36354.99376436   -35635.51899809
  entropy T*S    EENTRO =         0.00000000
  eigenvalues    EBANDS =     -1110.06785792
  atomic energy  EATOM  =     33439.55530901
  Solvation  Ediel_sol  =         0.00000000
  ---------------------------------------------------
  free energy    TOTEN  =        22.55055406 eV

  energy without entropy =       22.55055406  energy(sigma->0) =       22.55055406


--------------------------------------------------------------------------------------------------------




--------------------------------------- Iteration      1(   3)  ---------------------------------------


     EDDAV:  cpu time    8.0171: real time    8.0174
 BZINTS: Fermi energy:    0.644603;  399.000000 electrons
         Band energy:-0.124877E+04;  BLOECHL correction:   -0.059794
       DOS:  cpu time    0.0102: real time    0.0102
    --------------------------------------------
      LOOP:  cpu time    8.0273: real time    8.0276

 eigenvalue-minimisations  :  5852
 total energy-change (2. order) :-0.1387066E+03  (-0.1336325E+03)
 number of electron     399.0000054 magnetization 
 augmentation part      399.0000054 magnetization 

 Free energy of the ion-electron system (eV)
  ---------------------------------------------------
  alpha Z        PSCENC =      1019.62874215
  Ewald energy   TEWEN  =     97422.26908330
  -Hartree energ DENC   =   -132016.47078656
  -exchange      EXHF   =         0.00000000
  -V(xc)+E(xc)   XCENC  =       548.16129782
  PAW double counting   =     36354.99376436   -35635.51899809
  entropy T*S    EENTRO =         0.00000000
  eigenvalues    EBANDS =     -1248.77449847
  atomic energy  EATOM  =     33439.55530901
  Solvation  Ediel_sol  =         0.00000000
  ---------------------------------------------------
  free energy    TOTEN  =      -116.15608649 eV

  energy without entropy =     -116.15608649  energy(sigma->0) =     -116.15608649


--------------------------------------------------------------------------------------------------------




--------------------------------------- Iteration      1(   4)  ---------------------------------------


     EDDAV:  cpu time    7.6012: real time    7.6012
 BZINTS: Fermi energy:    0.626611;  399.000000 electrons
         Band energy:-0.125190E+04;  BLOECHL correction:   -0.060003
       DOS:  cpu time    0.0100: real time    0.0100
    --------------------------------------------
      LOOP:  cpu time    7.6112: real time    7.6112

 eigenvalue-minimisations  :  5488
 total energy-change (2. order) :-0.3124649E+01  (-0.3117344E+01)
 number of electron     399.0000054 magnetization 
 augmentation part      399.0000054 magnetization 

 Free energy of the ion-electron system (eV)
  ---------------------------------------------------
  alpha Z        PSCENC =      1019.62874215
  Ewald energy   TEWEN  =     97422.26908330
  -Hartree energ DENC   =   -132016.47078656
  -exchange      EXHF   =         0.00000000
  -V(xc)+E(xc)   XCENC  =       548.16129782
  PAW double counting   =     36354.99376436   -35635.51899809
  entropy T*S    EENTRO =         0.00000000
  eigenvalues    EBANDS =     -1251.89914762
  atomic energy  EATOM  =     33439.55530901
  Solvation  Ediel_sol  =         0.00000000
  ---------------------------------------------------
  free energy    TOTEN  =      -119.28073563 eV

  energy without entropy =     -119.28073563  energy(sigma->0) =     -119.28073563


--------------------------------------------------------------------------------------------------------




--------------------------------------- Iteration      1(   5)  ---------------------------------------


     EDDAV:  cpu time    8.6274: real time    8.6276
 BZINTS: Fermi energy:    0.626198;  399.000000 electrons
         Band energy:-0.125201E+04;  BLOECHL correction:   -0.060006
       DOS:  cpu time    0.0102: real time    0.0102
    --------------------------------------------
      LOOP:  cpu time    8.6376: real time    8.6378

 eigenvalue-minimisations  :  6384
 total energy-change (2. order) :-0.1062841E+00  (-0.1062410E+00)
 number of electron     399.0000054 magnetization 
 augmentation part      399.0000054 magnetization 

 Free energy of the ion-electron system (eV)
  ---------------------------------------------------
  alpha Z        PSCENC =      1019.62874215
  Ewald energy   TEWEN  =     97422.26908330
  -Hartree energ DENC   =   -132016.47078656
  -exchange      EXHF   =         0.00000000
  -V(xc)+E(xc)   XCENC  =       548.16129782
  PAW double counting   =     36354.99376436   -35635.51899809
  entropy T*S    EENTRO =         0.00000000
  eigenvalues    EBANDS =     -1252.00543171
  atomic energy  EATOM  =     33439.55530901
  Solvation  Ediel_sol  =         0.00000000
  ---------------------------------------------------
  free energy    TOTEN  =      -119.38701973 eV

  energy without entropy =     -119.38701973  energy(sigma->0) =     -119.38701973


--------------------------------------------------------------------------------------------------------




--------------------------------------- Iteration      1(   6)  ---------------------------------------


    EDDIAG:  cpu time    1.4030: real time    1.4034
  RMM-DIIS:  cpu time    3.9724: real time    3.9724
    ORTHCH:  cpu time    0.2607: real time    0.2607
 BZINTS: Fermi energy:    0.626197;  399.000000 electrons
         Band energy:-0.125201E+04;  BLOECHL correction:   -0.060006
       DOS:  cpu time    0.0097: real time    0.0097
    --------------------------------------------
      LOOP:  cpu time    5.6458: real time    5.6462

 eigenvalue-minimisations  :  5121
 total energy-change (2. order) :-0.2391126E-02  (-0.2391135E-02)
 number of electron     399.0000054 magnetization 
 augmentation part      399.0000054 magnetization 

 Free energy of the ion-electron system (eV)
  ---------------------------------------------------
  alpha Z        PSCENC =      1019.62874215
  Ewald energy   TEWEN  =     97422.26908330
  -Hartree energ DENC   =   -132016.47078656
  -exchange      EXHF   =         0.00000000
  -V(xc)+E(xc)   XCENC  =       548.16129782
  PAW double counting   =     36354.99376436   -35635.51899809
  entropy T*S    EENTRO =         0.00000000
  eigenvalues    EBANDS =     -1252.00782284
  atomic energy  EATOM  =     33439.55530901
  Solvation  Ediel_sol  =         0.00000000
  ---------------------------------------------------
  free energy    TOTEN  =      -119.38941085 eV

  energy without entropy =     -119.38941085  energy(sigma->0) =     -119.38941085


--------------------------------------------------------------------------------------------------------




--------------------------------------- Iteration      1(   7)  ---------------------------------------


    EDDIAG:  cpu time    1.4045: real time    1.4046
  RMM-DIIS:  cpu time    5.4885: real time    5.4885
    ORTHCH:  cpu time    0.2606: real time    0.2606
 BZINTS: Fermi energy:    0.626197;  399.000000 electrons
         Band energy:-0.125201E+04;  BLOECHL correction:   -0.060006
       DOS:  cpu time    0.0099: real time    0.0099
    --------------------------------------------
      LOOP:  cpu time    7.1635: real time    7.1636

 eigenvalue-minimisations  :  7117
 total energy-change (2. order) :-0.9139263E-03  (-0.8956132E-03)
 number of electron     399.0000054 magnetization 
 augmentation part      399.0000054 magnetization 

 Free energy of the ion-electron system (eV)
  ---------------------------------------------------
  alpha Z        PSCENC =      1019.62874215
  Ewald energy   TEWEN  =     97422.26908330
  -Hartree energ DENC   =   -132016.47078656
  -exchange      EXHF   =         0.00000000
  -V(xc)+E(xc)   XCENC  =       548.16129782
  PAW double counting   =     36354.99376436   -35635.51899809
  entropy T*S    EENTRO =         0.00000000
  eigenvalues    EBANDS =     -1252.00873676
  atomic energy  EATOM  =     33439.55530901
  Solvation  Ediel_sol  =         0.00000000
  ---------------------------------------------------
  free energy    TOTEN  =      -119.39032478 eV

  energy without entropy =     -119.39032478  energy(sigma->0) =     -119.39032478


--------------------------------------------------------------------------------------------------------




--------------------------------------- Iteration      1(   8)  ---------------------------------------


    EDDIAG:  cpu time    1.4075: real time    1.4076
  RMM-DIIS:  cpu time    4.3321: real time    4.3321
    ORTHCH:  cpu time    0.2604: real time    0.2604
 BZINTS: Fermi energy:    0.626197;  399.000000 electrons
         Band energy:-0.125201E+04;  BLOECHL correction:   -0.060006
       DOS:  cpu time    0.0103: real time    0.0103
    --------------------------------------------
      LOOP:  cpu time    6.0103: real time    6.0104

 eigenvalue-minimisations  :  5565
 total energy-change (2. order) :-0.5806956E-04  (-0.5727099E-04)
 number of electron     399.0000054 magnetization 
 augmentation part      399.0000054 magnetization 

 Free energy of the ion-electron system (eV)
  ---------------------------------------------------
  alpha Z        PSCENC =      1019.62874215
  Ewald energy   TEWEN  =     97422.26908330
  -Hartree energ DENC   =   -132016.47078656
  -exchange      EXHF   =         0.00000000
  -V(xc)+E(xc)   XCENC  =       548.16129782
  PAW double counting   =     36354.99376436   -35635.51899809
  entropy T*S    EENTRO =         0.00000000
  eigenvalues    EBANDS =     -1252.00879483
  atomic energy  EATOM  =     33439.55530901
  Solvation  Ediel_sol  =         0.00000000
  ---------------------------------------------------
  free energy    TOTEN  =      -119.39038285 eV

  energy without entropy =     -119.39038285  energy(sigma->0) =     -119.39038285


--------------------------------------------------------------------------------------------------------




--------------------------------------- Iteration      1(   9)  ---------------------------------------


    EDDIAG:  cpu time    1.4047: real time    1.4048
  RMM-DIIS:  cpu time    4.5880: real time    4.5880
    ORTHCH:  cpu time    0.2605: real time    0.2605
 BZINTS: Fermi energy:    0.626197;  399.000000 electrons
         Band energy:-0.125201E+04;  BLOECHL correction:   -0.060006
       DOS:  cpu time    0.0103: real time    0.0103
    --------------------------------------------
      LOOP:  cpu time    6.2635: real time    6.2637

 eigenvalue-minimisations  :  5460
 total energy-change (2. order) :-0.1757834E-04  (-0.1739595E-04)
 number of electron     399.0000054 magnetization 
 augmentation part      399.0000054 magnetization 

 Free energy of the ion-electron system (eV)
  ---------------------------------------------------
  alpha Z        PSCENC =      1019.62874215
  Ewald energy   TEWEN  =     97422.26908330
  -Hartree energ DENC   =   -132016.47078656
  -exchange      EXHF   =         0.00000000
  -V(xc)+E(xc)   XCENC  =       548.16129782
  PAW double counting   =     36354.99376436   -35635.51899809
  entropy T*S    EENTRO =         0.00000000
  eigenvalues    EBANDS =     -1252.00881241
  atomic energy  EATOM  =     33439.55530901
  Solvation  Ediel_sol  =         0.00000000
  ---------------------------------------------------
  free energy    TOTEN  =      -119.39040043 eV

  energy without entropy =     -119.39040043  energy(sigma->0) =     -119.39040043


--------------------------------------------------------------------------------------------------------




--------------------------------------- Iteration      1(  10)  ---------------------------------------


    EDDIAG:  cpu time    1.4046: real time    1.4048
  RMM-DIIS:  cpu time    2.8684: real time    2.8684
    ORTHCH:  cpu time    0.2608: real time    0.2608
 BZINTS: Fermi energy:    0.626197;  399.000000 electrons
         Band energy:-0.125201E+04;  BLOECHL correction:   -0.060006
       DOS:  cpu time    0.0102: real time    0.0102
    --------------------------------------------
      LOOP:  cpu time    4.5440: real time    4.5441

 eigenvalue-minimisations  :  3002
 total energy-change (2. order) :-0.1137756E-05  (-0.1132818E-05)
 number of electron     399.0000054 magnetization 
 augmentation part      399.0000054 magnetization 

 Free energy of the ion-electron system (eV)
  ---------------------------------------------------
  alpha Z        PSCENC =      1019.62874215
  Ewald energy   TEWEN  =     97422.26908330
  -Hartree energ DENC   =   -132016.47078656
  -exchange      EXHF   =         0.00000000
  -V(xc)+E(xc)   XCENC  =       548.16129782
  PAW double counting   =     36354.99376436   -35635.51899809
  entropy T*S    EENTRO =         0.00000000
  eigenvalues    EBANDS =     -1252.00881355
  atomic energy  EATOM  =     33439.55530901
  Solvation  Ediel_sol  =         0.00000000
  ---------------------------------------------------
  free energy    TOTEN  =      -119.39040157 eV

  energy without entropy =     -119.39040157  energy(sigma->0) =     -119.39040157


--------------------------------------------------------------------------------------------------------




 average (electrostatic) potential at core
  the test charge radii are     1.2098  1.0103  0.7215
  (the norm of the test charge is              1.0000)
       1 -72.4201       2 -72.4049       3 -72.4048       4 -72.4049       5 -72.4092
       6 -72.4046       7 -72.4048       8 -72.4046       9 -72.4199      10 -72.7495
      11 -72.7358      12 -72.7493      13 -72.7358      14 -72.7355      15 -72.7476
      16 -72.7493      17 -72.7476      18 -72.7477      19 -72.6844      20 -72.8457
      21 -72.8455      22 -72.7287      23 -72.8455      24 -72.7286      25 -72.6844
      26 -72.6844      27 -72.7287      28 -72.2770      29 -72.3299      30 -72.3299
      31 -72.3299      32 -72.3297      33 -72.3299      34 -72.3297      35 -72.2633
      36 -49.0765      37 -75.7902
 
 
 
 E-fermi :   0.6262     XC(G=0):  -6.1231     alpha+bet : -5.7198

 Fermi energy:         0.6261967013

 k-point     1 :       0.0000    0.0000    0.0000
  band No.  band energies     occupation 
      1     -17.7105      2.00000
      2      -8.1954      2.00000
      3      -6.9988      2.00000
      4      -6.0789      2.00000
      5      -6.0614      2.00000
      6      -6.0453      2.00000
      7      -6.0453      2.00000
      8      -6.0264      2.00000
      9      -6.0043      2.00000
     10      -6.0042      2.00000
     11      -5.8641      2.00000
     12      -5.5713      2.00000
     13      -5.5571      2.00000
     14      -5.5571      2.00000
     15      -5.5493      2.00000
     16      -5.5122      2.00000
     17      -5.5122      2.00000
     18      -5.1764      2.00000
     19      -5.1764      2.00000
     20      -5.1665      2.00000
     21      -5.1517      2.00000
     22      -5.1216      2.00000
     23      -5.1216      2.00000
     24      -5.0341      2.00000
     25      -5.0009      2.00000
     26      -5.0008      2.00000
     27      -4.9771      2.00000
     28      -4.9625      2.00000
     29      -4.9625      2.00000
     30      -4.8347      2.00000
     31      -4.8347      2.00000
     32      -4.8162      2.00000
     33      -4.8104      2.00000
     34      -4.8104      2.00000
     35      -4.7936      2.00000
     36      -4.7935      2.00000
     37      -4.7935      2.00000
     38      -4.7758      2.00000
     39      -4.6595      2.00000
     40      -4.6070      2.00000
     41      -4.6070      2.00000
     42      -4.3682      2.00000
     43      -4.3171      2.00000
     44      -4.3171      2.00000
     45      -4.2734      2.00000
     46      -4.2734      2.00000
     47      -4.2515      2.00000
     48      -4.2515      2.00000
     49      -4.2282      2.00000
     50      -4.2185      2.00000
     51      -4.2032      2.00000
     52      -4.2032      2.00000
     53      -4.1622      2.00000
     54      -4.1501      2.00000
     55      -4.1023      2.00000
     56      -4.0088      2.00000
     57      -4.0088      2.00000
     58      -3.8732      2.00000
     59      -3.7296      2.00000
     60      -3.7162      2.00000
     61      -3.6911      2.00000
     62      -3.6911      2.00000
     63      -3.6907      2.00000
     64      -3.6769      2.00000
     65      -3.6769      2.00000
     66      -3.6543      2.00000
     67      -3.6543      2.00000
     68      -3.6055      2.00000
     69      -3.6055      2.00000
     70      -3.5517      2.00000
     71      -3.5517      2.00000
     72      -3.5452      2.00000
     73      -3.5023      2.00000
     74      -3.4701      2.00000
     75      -3.4701      2.00000
     76      -3.4650      2.00000
     77      -3.4519      2.00000
     78      -3.4518      2.00000
     79      -3.4473      2.00000
     80      -3.4440      2.00000
     81      -3.4440      2.00000
     82      -3.4314      2.00000
     83      -3.4314      2.00000
     84      -3.3829      2.00000
     85      -3.3828      2.00000
     86      -3.3828      2.00000
     87      -3.3348      2.00000
     88      -3.3348      2.00000
     89      -3.3245      2.00000
     90      -3.3245      2.00000
     91      -3.3140      2.00000
     92      -3.2363      2.00000
     93      -3.2363      2.00000
     94      -3.2243      2.00000
     95      -3.0498      2.00000
     96      -3.0498      2.00000
     97      -3.0472      2.00000
     98      -3.0472      2.00000
     99      -3.0310      2.00000
    100      -3.0310      2.00000
    101      -2.8587      2.00000
    102      -2.8587      2.00000
    103      -2.8565      2.00000
    104      -2.8357      2.00000
    105      -2.8357      2.00000
    106      -2.7932      2.00000
    107      -2.6877      2.00000
    108      -2.6877      2.00000
    109      -2.6665      2.00000
    110      -2.6377      2.00000
    111      -2.6377      2.00000
    112      -2.6132      2.00000
    113      -2.6132      2.00000
    114      -2.6056      2.00000
    115      -2.6011      2.00000
    116      -2.5334      2.00000
    117      -2.5264      2.00000
    118      -2.4987      2.00000
    119      -2.4987      2.00000
    120      -2.3908      2.00000
    121      -2.3442      2.00000
    122      -2.3442      2.00000
    123      -2.3297      2.00000
    124      -2.2855      2.00000
    125      -2.2854      2.00000
    126      -2.2732      2.00000
    127      -2.2732      2.00000
    128      -2.2302      2.00000
    129      -2.2302      2.00000
    130      -2.2034      2.00000
    131      -2.2033      2.00000
    132      -2.0975      2.00000
    133      -2.0975      2.00000
    134      -2.0914      2.00000
    135      -2.0798      2.00000
    136      -2.0798      2.00000
    137      -2.0727      2.00000
    138      -2.0545      2.00000
    139      -2.0408      2.00000
    140      -2.0408      2.00000
    141      -1.9503      2.00000
    142      -1.9503      2.00000
    143      -1.9344      2.00000
    144      -1.8579      2.00000
    145      -1.8579      2.00000
    146      -1.8311      2.00000
    147      -1.8311      2.00000
    148      -1.8297      2.00000
    149      -1.8108      2.00000
    150      -1.8108      2.00000
    151      -1.7901      2.00000
    152      -1.7829      2.00000
    153      -1.7828      2.00000
    154      -1.7582      2.00000
    155      -1.7569      2.00000
    156      -1.7147      2.00000
    157      -1.7147      2.00000
    158      -1.6486      2.00000
    159      -1.6302      2.00000
    160      -1.6223      2.00000
    161      -1.6223      2.00000
    162      -1.6193      2.00000
    163      -1.6024      2.00000
    164      -1.6001      2.00000
    165      -1.6000      2.00000
    166      -1.5689      2.00000
    167      -1.5689      2.00000
    168      -1.5545      2.00000
    169      -1.5545      2.00000
    170      -1.5314      2.00000
    171      -1.5314      2.00000
    172      -1.5129      2.00000
    173      -1.5079      2.00000
    174      -1.5035      2.00000
    175      -1.5035      2.00000
    176      -1.5033      2.00000
    177      -1.4589      2.00000
    178      -1.4589      2.00000
    179      -1.4555      2.00000
    180      -1.4181      2.00000
    181      -1.4177      2.00000
    182      -1.4141      2.00000
    183      -1.4141      2.00000
    184      -1.4033      2.00000
    185      -1.4033      2.00000
    186      -1.3503      2.00000
    187      -1.2763      2.00000
    188      -1.2763      2.00000
    189      -1.2290      2.00000
    190      -1.2289      2.00000
    191      -1.1931      2.00000
    192      -1.1931      2.00000
    193      -1.1858      2.00000
    194      -1.1546      2.00000
    195      -0.3387      2.00000
    196      -0.1069      2.00000
    197       0.0404      2.00000
    198       0.0404      2.00000
    199       0.0859      2.00000
    200       0.1478      2.00000
    201       0.1478      2.00000
    202       0.2954      2.00000
    203       0.2954      2.00000
    204       0.8627      0.00000
    205       0.8628      0.00000
    206       1.0667      0.00000
    207       1.5577      0.00000
    208       2.2113      0.00000
    209       2.2680      0.00000
    210       2.2680      0.00000
    211       2.2885      0.00000
    212       2.2885      0.00000
    213       2.9925      0.00000
    214       3.4011      0.00000
    215       3.4011      0.00000
    216       3.4468      0.00000
    217       3.4468      0.00000
    218       3.4940      0.00000
    219       3.6504      0.00000
    220       4.0955      0.00000
    221       4.7233      0.00000
    222       5.2203      0.00000
    223       5.2204      0.00000
    224       5.2664      0.00000
    225       5.3391      0.00000
    226       5.3465      0.00000
    227       5.3465      0.00000
    228       5.3803      0.00000
    229       5.3803      0.00000
    230       5.5226      0.00000
    231       5.5227      0.00000
    232       5.6697      0.00000
    233       5.6998      0.00000
    234       6.1188      0.00000
    235       6.6170      0.00000
    236       6.9114      0.00000
    237       6.9124      0.00000
    238       6.9125      0.00000
    239       6.9714      0.00000
    240       6.9720      0.00000
    241       6.9781      0.00000
    242       7.0374      0.00000
    243       7.0608      0.00000
    244       7.0620      0.00000
    245       7.2055      0.00000
    246       7.2079      0.00000
    247       7.2111      0.00000
    248       7.3609      0.00000
    249       7.3665      0.00000
    250       7.4125      0.00000
    251       7.4742      0.00000
    252       7.5130      0.00000

 k-point     2 :       0.1250   -0.0000    0.0000
  band No.  band energies     occupation 
      1     -17.7105      2.00000
      2      -8.1446      2.00000
      3      -6.9495      2.00000
      4      -6.2906      2.00000
      5      -6.1171      2.00000
      6      -6.1028      2.00000
      7      -6.0155      2.00000
      8      -5.9356      2.00000
      9      -5.9089      2.00000
     10      -5.8976      2.00000
     11      -5.8215      2.00000
     12      -5.5950      2.00000
     13      -5.5646      2.00000
     14      -5.5392      2.00000
     15      -5.5331      2.00000
     16      -5.5068      2.00000
     17      -5.4894      2.00000
     18      -5.2266      2.00000
     19      -5.1757      2.00000
     20      -5.1670      2.00000
     21      -5.1294      2.00000
     22      -5.1039      2.00000
     23      -5.1005      2.00000
     24      -5.0657      2.00000
     25      -5.0199      2.00000
     26      -5.0004      2.00000
     27      -4.9608      2.00000
     28      -4.9348      2.00000
     29      -4.9069      2.00000
     30      -4.9005      2.00000
     31      -4.8782      2.00000
     32      -4.8740      2.00000
     33      -4.8614      2.00000
     34      -4.7897      2.00000
     35      -4.7669      2.00000
     36      -4.7578      2.00000
     37      -4.7023      2.00000
     38      -4.6738      2.00000
     39      -4.6222      2.00000
     40      -4.5981      2.00000
     41      -4.5905      2.00000
     42      -4.4111      2.00000
     43      -4.3852      2.00000
     44      -4.3584      2.00000
     45      -4.3246      2.00000
     46      -4.3163      2.00000
     47      -4.3024      2.00000
     48      -4.2745      2.00000
     49      -4.2211      2.00000
     50      -4.1943      2.00000
     51      -4.1837      2.00000
     52      -4.1456      2.00000
     53      -4.1171      2.00000
     54      -4.1050      2.00000
     55      -4.0914      2.00000
     56      -3.9972      2.00000
     57      -3.9921      2.00000
     58      -3.9012      2.00000
     59      -3.7735      2.00000
     60      -3.7470      2.00000
     61      -3.7378      2.00000
     62      -3.7185      2.00000
     63      -3.7127      2.00000
     64      -3.7095      2.00000
     65      -3.6888      2.00000
     66      -3.6881      2.00000
     67      -3.6779      2.00000
     68      -3.6430      2.00000
     69      -3.6302      2.00000
     70      -3.6063      2.00000
     71      -3.6037      2.00000
     72      -3.5808      2.00000
     73      -3.5648      2.00000
     74      -3.5622      2.00000
     75      -3.5198      2.00000
     76      -3.4993      2.00000
     77      -3.4889      2.00000
     78      -3.4668      2.00000
     79      -3.4647      2.00000
     80      -3.4430      2.00000
     81      -3.4225      2.00000
     82      -3.4069      2.00000
     83      -3.4023      2.00000
     84      -3.3804      2.00000
     85      -3.3509      2.00000
     86      -3.3355      2.00000
     87      -3.3137      2.00000
     88      -3.3037      2.00000
     89      -3.2921      2.00000
     90      -3.2638      2.00000
     91      -3.2585      2.00000
     92      -3.2408      2.00000
     93      -3.2079      2.00000
     94      -3.1495      2.00000
     95      -3.1486      2.00000
     96      -3.1430      2.00000
     97      -3.0351      2.00000
     98      -3.0309      2.00000
     99      -2.9687      2.00000
    100      -2.9551      2.00000
    101      -2.9273      2.00000
    102      -2.9057      2.00000
    103      -2.9044      2.00000
    104      -2.8614      2.00000
    105      -2.8261      2.00000
    106      -2.7924      2.00000
    107      -2.7736      2.00000
    108      -2.7324      2.00000
    109      -2.7037      2.00000
    110      -2.6729      2.00000
    111      -2.6656      2.00000
    112      -2.6644      2.00000
    113      -2.6410      2.00000
    114      -2.6405      2.00000
    115      -2.6189      2.00000
    116      -2.6113      2.00000
    117      -2.5754      2.00000
    118      -2.5748      2.00000
    119      -2.5548      2.00000
    120      -2.5431      2.00000
    121      -2.4537      2.00000
    122      -2.4369      2.00000
    123      -2.4237      2.00000
    124      -2.3409      2.00000
    125      -2.3213      2.00000
    126      -2.2968      2.00000
[...]
  0.000   0.000   0.000   0.000   0.000   0.000   0.000   0.000   0.000   0.000   0.000   0.000   0.000   0.000   0.000   0.000
  0.000   0.000   0.000   0.000   0.000   0.000   0.000   0.000   0.000   0.000   0.000   0.000   0.000   0.000   0.000   0.000
  0.000   0.000   0.000   0.000   0.000   0.000   0.000   0.000   0.000   0.000   0.000   0.000   0.000   0.000   0.000   0.000
  0.000   0.000   0.000   0.000   0.000   0.000   0.000   0.000   0.000   0.000   0.000   0.000   0.000   0.000   0.000   0.000
  0.000   0.000   0.000   0.000   0.000   0.000   0.000   0.000   0.000   0.000   0.000   0.000   0.000   0.000   0.000   0.000
  0.000   0.000   0.000   0.000   0.000   0.000   0.000   0.000   0.000   0.000   1.000   0.000   0.000   0.000   0.000   0.000
  0.000   0.000   0.000   0.000   0.000   0.000   0.000   0.000   0.000   0.000   0.000   0.000   0.000   0.000   0.000   0.000
  0.000   0.000   0.000   0.000   0.000   0.000   0.000   0.000   0.000   0.000   0.000   0.000   0.000   0.000   0.000   0.000
  0.000   0.000   0.000   0.000   0.000   0.000   0.000   0.000   0.000   0.000   0.000   0.000   0.000   0.000   0.000   0.000
  0.000   0.000   0.000   0.000   0.000   0.000   0.000   0.000   0.000   0.000   0.000   0.000   0.000   0.000   0.000   0.000
  0.000   0.000   0.000   0.000   0.000   0.000   0.000   0.000   0.000   0.000   0.000   0.000   0.000   0.000   0.000   0.000
  0.000   0.000   0.000   0.000   0.000   0.000   0.000   0.000   0.000   0.000   0.000   0.000   0.000   0.000   0.000   0.000
  0.000   0.000   0.000   0.000   0.000   0.000   0.000   0.000   0.000   0.000   0.000   0.000   0.000   0.000   0.000   0.000


------------------------ aborting loop because EDIFF is reached ----------------------------------------





 total charge

# of ion       s       p       d       tot
------------------------------------------
    1        0.546   0.238   8.768   9.551
    2        0.543   0.241   8.764   9.548
    3        0.543   0.241   8.764   9.548
    4        0.543   0.241   8.764   9.548
    5        0.544   0.241   8.762   9.547
    6        0.543   0.241   8.764   9.548
    7        0.543   0.241   8.764   9.548
    8        0.543   0.241   8.764   9.548
    9        0.541   0.241   8.764   9.546
   10        0.522   0.308   8.771   9.600
   11        0.518   0.311   8.774   9.603
   12        0.522   0.308   8.771   9.600
   13        0.518   0.311   8.774   9.603
   14        0.518   0.311   8.774   9.603
   15        0.516   0.309   8.775   9.599
   16        0.522   0.308   8.771   9.600
   17        0.516   0.309   8.775   9.599
   18        0.516   0.309   8.775   9.599
   19        0.515   0.300   8.774   9.589
   20        0.546   0.332   8.751   9.629
   21        0.546   0.332   8.751   9.629
   22        0.510   0.309   8.774   9.594
   23        0.546   0.332   8.751   9.629
   24        0.510   0.309   8.774   9.594
   25        0.515   0.300   8.774   9.589
   26        0.515   0.300   8.774   9.589
   27        0.510   0.309   8.774   9.594
   28        0.540   0.222   8.771   9.532
   29        0.538   0.235   8.771   9.544
   30        0.538   0.235   8.771   9.544
   31        0.538   0.235   8.771   9.544
   32        0.538   0.235   8.771   9.544
   33        0.538   0.235   8.771   9.544
   34        0.538   0.235   8.771   9.544
   35        0.534   0.223   8.770   9.527
   36        0.438   0.557   6.386   7.381
   37        1.615   3.226   0.000   4.841
--------------------------------------------------
tot         20.625  13.410 313.286 347.321
 
    CHARGE:  cpu time    0.3374: real time    0.3375
    FORLOC:  cpu time    0.0101: real time    0.0101
    FORNL :  cpu time    1.4440: real time    1.4442
    STRESS:  cpu time    4.3268: real time    4.3270
    FORCOR:  cpu time    0.0447: real time    0.0448
    FORHAR:  cpu time    0.0165: real time    0.0166
    OFIELD:  cpu time    0.0002: real time    0.0003

  FORCE on cell =-STRESS in cart. coord.  units (eV):
  Direction    XX          YY          ZZ          XY          YZ          ZX
  --------------------------------------------------------------------------------------
  Alpha Z  1019.62874  1019.62874  1019.62874
  Ewald  120108.47835120108.47879************    -0.00031    -0.00008    -0.00012
  Hartree128900.78258128900.78260************     0.00001    -0.00002    -0.00002
  E(xc)   -1796.12738 -1796.12736 -1802.51117    -0.00001     0.00000     0.00001
  Local  ************************261423.63660     0.00203     0.00002    -0.00002
  n-local  -131.33282   -82.60316   -80.37381    23.69649    -1.41444     1.58998
  augment  2413.70843  2413.71000  2419.86344    -0.00136     0.00002     0.00007
  Kinetic  5550.82406  5560.20283  5584.50248     5.05945     0.36965     0.35100
  Fock        0.00000     0.00000     0.00000     0.00000     0.00000     0.00000
  -------------------------------------------------------------------------------------
  Total     -20.61058   -20.61058     1.41952    -0.00000    -0.00000    -0.00000
  in kB     -22.11533   -22.11533     1.52316    -0.00000    -0.00000    -0.00000
  external pressure =      -14.24 kB  Pullay stress =        0.00 kB


 VOLUME and BASIS-vectors are now :
 -----------------------------------------------------------------------------
  energy-cutoff  :      500.00
  volume of cell :     1493.16
      direct lattice vectors                 reciprocal lattice vectors
     8.813512802  0.000000000  0.000000000     0.113462137 -0.065507406  0.000000000
     4.406756909  7.632725690  0.000000000     0.000000000  0.131014796  0.000000000
     0.000000000  0.000000000 22.196203232     0.000000000  0.000000000  0.045052750

  length of vectors
     8.813512802  8.813512802 22.196203232     0.131014796  0.131014796  0.045052750


 FORCES acting on ions
    electron-ion (+dipol)            ewald-force                    non-local-force                 convergence-correction
 -----------------------------------------------------------------------------------------------
   -.195E-04 -.162E-04 0.249E+04   0.519E-04 0.434E-04 -.249E+04   0.373E-17 0.169E-17 -.741E+00   -.238E-03 -.150E-03 -.335E+00
   0.583E+00 0.488E+00 0.249E+04   -.680E+00 -.513E+00 -.249E+04   0.309E-01 0.644E-01 -.321E+00   0.647E-01 -.291E-01 -.356E+00
   -.583E+00 0.488E+00 0.249E+04   0.680E+00 -.513E+00 -.249E+04   -.309E-01 0.644E-01 -.321E+00   -.644E-01 -.272E-01 -.355E+00
   0.714E+00 0.261E+00 0.249E+04   -.785E+00 -.332E+00 -.249E+04   0.712E-01 -.540E-02 -.321E+00   0.723E-02 0.706E-01 -.356E+00
   0.963E-05 -.227E-04 0.250E+04   0.951E-04 0.173E-05 -.250E+04   0.136E-17 0.136E-17 -.276E+00   0.428E-02 0.260E-02 -.302E+00
   -.714E+00 0.261E+00 0.249E+04   0.784E+00 -.332E+00 -.249E+04   -.712E-01 -.540E-02 -.321E+00   -.877E-02 0.715E-01 -.355E+00
   0.131E+00 -.749E+00 0.249E+04   -.104E+00 0.845E+00 -.249E+04   0.403E-01 -.590E-01 -.321E+00   -.557E-01 -.422E-01 -.355E+00
   -.131E+00 -.749E+00 0.249E+04   0.104E+00 0.846E+00 -.249E+04   -.403E-01 -.590E-01 -.321E+00   0.575E-01 -.433E-01 -.355E+00
   0.195E-04 -.415E-04 0.249E+04   0.166E-03 -.201E-04 -.249E+04   -.142E-17 0.279E-18 -.459E+00   -.459E-02 -.237E-02 -.310E+00
   0.543E+01 0.314E+01 0.848E+03   -.515E+01 -.297E+01 -.847E+03   -.273E+00 -.158E+00 -.573E+00   0.983E-03 0.451E-03 -.178E+00
   0.151E-04 0.676E+01 0.858E+03   0.147E-03 -.687E+01 -.858E+03   0.565E-08 0.848E-01 -.284E+00   0.405E-02 -.228E-01 -.182E+00
   -.543E+01 0.314E+01 0.848E+03   0.515E+01 -.297E+01 -.847E+03   0.273E+00 -.158E+00 -.573E+00   -.234E-02 0.161E-02 -.178E+00
   0.585E+01 -.338E+01 0.858E+03   -.595E+01 0.344E+01 -.858E+03   0.734E-01 -.424E-01 -.284E+00   -.174E-01 0.152E-01 -.182E+00
   -.585E+01 -.338E+01 0.858E+03   0.595E+01 0.344E+01 -.858E+03   -.734E-01 -.424E-01 -.284E+00   0.251E-01 0.143E-01 -.183E+00
   0.308E-04 0.298E+01 0.851E+03   0.236E-03 -.312E+01 -.850E+03   0.136E-09 0.204E-02 -.458E+00   -.224E-02 0.930E-01 -.178E+00
   -.215E-04 -.628E+01 0.848E+03   0.163E-03 0.594E+01 -.847E+03   0.210E-07 0.316E+00 -.573E+00   -.173E-04 -.286E-02 -.178E+00
   0.258E+01 -.149E+01 0.851E+03   -.270E+01 0.156E+01 -.850E+03   0.176E-02 -.102E-02 -.458E+00   0.796E-01 -.480E-01 -.178E+00
   -.258E+01 -.149E+01 0.851E+03   0.270E+01 0.156E+01 -.850E+03   -.176E-02 -.102E-02 -.458E+00   -.792E-01 -.460E-01 -.178E+00
   -.407E-04 0.294E+01 -.833E+03   0.536E-04 -.317E+01 0.832E+03   0.622E-08 0.934E-01 0.628E+00   -.318E-02 0.111E+00 0.107E+00
   0.328E+02 0.189E+02 -.779E+03   -.318E+02 -.183E+02 0.780E+03   -.984E+00 -.568E+00 -.662E+00   -.264E-01 -.154E-01 0.921E-01
   -.328E+02 0.189E+02 -.779E+03   0.318E+02 -.183E+02 0.780E+03   0.984E+00 -.568E+00 -.662E+00   0.221E-01 -.150E-01 0.919E-01
   0.815E+01 -.470E+01 -.817E+03   -.839E+01 0.484E+01 0.816E+03   0.354E+00 -.205E+00 0.628E+00   -.721E-01 0.389E-01 0.109E+00
   -.104E-04 -.378E+02 -.779E+03   0.143E-03 0.367E+02 0.780E+03   0.756E-07 0.114E+01 -.662E+00   -.218E-02 0.266E-01 0.919E-01
   -.815E+01 -.470E+01 -.817E+03   0.839E+01 0.484E+01 0.816E+03   -.354E+00 -.205E+00 0.628E+00   0.669E-01 0.386E-01 0.109E+00
   -.255E+01 -.147E+01 -.833E+03   0.275E+01 0.159E+01 0.832E+03   -.809E-01 -.467E-01 0.628E+00   -.996E-01 -.576E-01 0.107E+00
   0.255E+01 -.147E+01 -.833E+03   -.275E+01 0.159E+01 0.832E+03   0.809E-01 -.467E-01 0.628E+00   0.950E-01 -.583E-01 0.107E+00
   0.120E-04 0.941E+01 -.817E+03   0.196E-03 -.969E+01 0.816E+03   0.272E-07 0.409E+00 0.628E+00   -.290E-02 -.820E-01 0.109E+00
   -.131E-04 -.139E-04 -.247E+04   0.302E-04 0.348E-04 0.247E+04   -.714E-17 -.112E-17 0.591E+00   -.351E-04 -.382E-04 0.337E+00
   0.399E+02 0.668E+02 -.245E+04   -.398E+02 -.668E+02 0.245E+04   -.312E+00 -.383E+00 0.783E+00   0.622E-01 -.204E-01 0.320E+00
   -.399E+02 0.668E+02 -.245E+04   0.398E+02 -.668E+02 0.245E+04   0.312E+00 -.383E+00 0.783E+00   -.619E-01 -.187E-01 0.320E+00
   0.778E+02 0.113E+01 -.245E+04   -.777E+02 -.110E+01 0.245E+04   -.488E+00 -.789E-01 0.783E+00   0.135E-01 0.640E-01 0.320E+00
   -.778E+02 0.113E+01 -.245E+04   0.777E+02 -.110E+01 0.245E+04   0.488E+00 -.789E-01 0.783E+00   -.147E-01 0.648E-01 0.320E+00
   0.379E+02 -.679E+02 -.245E+04   -.379E+02 0.679E+02 0.245E+04   -.176E+00 0.462E+00 0.783E+00   -.471E-01 -.442E-01 0.320E+00
   -.379E+02 -.679E+02 -.245E+04   0.379E+02 0.679E+02 0.245E+04   0.176E+00 0.462E+00 0.783E+00   0.488E-01 -.451E-01 0.320E+00
   0.348E-04 -.278E-04 -.248E+04   0.141E-03 -.502E-04 0.247E+04   0.919E-18 0.498E-17 0.601E+00   -.442E-02 -.226E-02 0.268E+00
   -.286E-04 -.211E-04 -.147E+04   0.846E-04 0.789E-05 0.147E+04   -.143E-17 -.391E-17 0.116E+01   0.494E-02 0.302E-02 0.502E+00
   0.182E-03 -.959E-04 -.170E+04   0.287E-04 0.182E-05 0.173E+04   0.453E-18 -.728E-18 -.283E+02   0.373E-02 0.228E-02 0.167E+00
 -----------------------------------------------------------------------------------------------
   -.581E-03 -.873E-03 0.279E+02   0.113E-12 0.336E-12 -.182E-11   -.278E-16 -.277E-15 -.268E+02   -.882E-02 -.428E-02 -.574E+00
 
 
 POSITION                                       TOTAL-FORCE (eV/Angst)
 -----------------------------------------------------------------------------------
      0.00000      0.00000      5.28038        -0.000000      0.000000     -0.121398
      2.93784      0.00000      5.28038        -0.000999      0.010910     -0.055629
      5.87568      0.00000      5.28038         0.000999      0.010910     -0.055629
      1.46892      2.54424      5.28038         0.008949     -0.006320     -0.055629
      4.40676      2.54424      5.28038        -0.000000      0.000000     -0.087486
      7.34459      2.54424      5.28038        -0.008949     -0.006320     -0.055629
      2.93784      5.08848      5.28038         0.009948     -0.004590     -0.055629
      5.87568      5.08848      5.28038        -0.009948     -0.004590     -0.055629
      8.81351      5.08848      5.28038        -0.000000     -0.000000     -0.085031
      1.46892      0.84808      7.67911         0.016466      0.009506      0.141197
      4.40676      0.84808      7.67911        -0.000000     -0.055732      0.055088
      7.34459      0.84808      7.67911        -0.016466      0.009506      0.141197
      2.93784      3.39232      7.67911        -0.048266      0.027866      0.055088
      5.87568      3.39232      7.67911         0.048266      0.027866      0.055088
      8.81351      3.39232      7.67911        -0.000000     -0.039381      0.101375
      4.40676      5.93656      7.67911        -0.000000     -0.019013      0.141197
      7.34459      5.93656      7.67911        -0.034105      0.019691      0.101375
     10.28243      5.93656      7.67911         0.034105      0.019691      0.101375
      8.81351      1.69603     10.07519        -0.000000     -0.021287     -0.005643
      2.95264      1.70471     10.05068        -0.009250     -0.005341     -0.067695
      5.86088      1.70471     10.05068         0.009250     -0.005341     -0.067695
     10.26798      4.24875     10.06116         0.045848     -0.026471      0.002798
      4.40676      4.22331     10.05068         0.000000      0.010681     -0.067695
      7.35905      4.24875     10.06116        -0.045848     -0.026471      0.002798
     11.75147      6.78471     10.07519         0.018435      0.010644     -0.005643
      5.87556      6.78471     10.07519        -0.018435      0.010644     -0.005643
      8.81351      6.76796     10.06116         0.000000      0.052941      0.002798
      0.00000      0.00000     12.48698        -0.000000     -0.000000     -0.024877
      2.98147      0.07441     12.46921        -0.183833     -0.350439     -0.163063
      5.83205      0.07441     12.46921         0.183833     -0.350439     -0.163063
      1.55518      2.54482     12.46921        -0.395406      0.016016     -0.163063
      7.25833      2.54482     12.46921         0.395406      0.016016     -0.163063
      2.98047      5.01349     12.46921        -0.211573      0.334423     -0.163063
      5.83305      5.01349     12.46921         0.211573      0.334423     -0.163063
      8.81351      5.08848     12.49182        -0.000000      0.000000      0.004270
      4.40676      2.54424     12.16047        -0.000000      0.000000      0.943101
      4.40676      2.54424     13.76362        -0.000000     -0.000000      0.002216
 -----------------------------------------------------------------------------------
    total drift:                               -0.009397     -0.005153      0.509951


--------------------------------------------------------------------------------------------------------



  FREE ENERGIE OF THE ION-ELECTRON SYSTEM (eV)
  ---------------------------------------------------
  free  energy   TOTEN  =      -119.39040157 eV

  energy  without entropy=     -119.39040157  energy(sigma->0) =     -119.39040157
 


--------------------------------------------------------------------------------------------------------


    POTLOK:  cpu time    0.0438: real time    0.0438


--------------------------------------------------------------------------------------------------------


 stress matrix after NEB project (eV)
    -20.61058     -0.00000     -0.00000
     -0.00000    -20.61058      0.00000
     -0.00000     -0.00000      1.41952
  FORCES: max atom, RMS     0.002216    0.000364
  FORCE total and by dimension    0.002216    0.002216
  Stress total and by dimension   29.182304   20.610579
     LOOP+:  cpu time   75.0448: real time   75.0658
 -----------------------------------------------------------------------------
|                                                                             |
|           W    W    AA    RRRRR   N    N  II  N    N   GGGG   !!!           |
|           W    W   A  A   R    R  NN   N  II  NN   N  G    G  !!!           |
|           W    W  A    A  R    R  N N  N  II  N N  N  G       !!!           |
|           W WW W  AAAAAA  RRRRR   N  N N  II  N  N N  G  GGG   !            |
|           WW  WW  A    A  R   R   N   NN  II  N   NN  G    G                |
|           W    W  A    A  R    R  N    N  II  N    N   GGGG   !!!           |
|                                                                             |
|     Tetrahedron method does not include variations of the Fermi             |
|     occupations, so forces and stress will be inaccurate. We suggest        |
|     using a different smearing scheme ISMEAR = 1 or 2 for metals in         |
|     relaxations.                                                            |
|                                                                             |
 -----------------------------------------------------------------------------

    4ORBIT:  cpu time    0.0000: real time    0.0000



 total charge

# of ion       s       p       d       tot
------------------------------------------
    1        0.546   0.238   8.768   9.551
    2        0.543   0.241   8.764   9.548
    3        0.543   0.241   8.764   9.548
    4        0.543   0.241   8.764   9.548
    5        0.544   0.241   8.762   9.547
    6        0.543   0.241   8.764   9.548
    7        0.543   0.241   8.764   9.548
    8        0.543   0.241   8.764   9.548
    9        0.541   0.241   8.764   9.546
   10        0.522   0.308   8.771   9.600
   11        0.518   0.311   8.774   9.603
   12        0.522   0.308   8.771   9.600
   13        0.518   0.311   8.774   9.603
   14        0.518   0.311   8.774   9.603
   15        0.516   0.309   8.775   9.599
   16        0.522   0.308   8.771   9.600
   17        0.516   0.309   8.775   9.599
   18        0.516   0.309   8.775   9.599
   19        0.515   0.300   8.774   9.589
   20        0.546   0.332   8.751   9.629
   21        0.546   0.332   8.751   9.629
   22        0.510   0.309   8.774   9.594
   23        0.546   0.332   8.751   9.629
   24        0.510   0.309   8.774   9.594
   25        0.515   0.300   8.774   9.589
   26        0.515   0.300   8.774   9.589
   27        0.510   0.309   8.774   9.594
   28        0.540   0.222   8.771   9.532
   29        0.538   0.235   8.771   9.544
   30        0.538   0.235   8.771   9.544
   31        0.538   0.235   8.771   9.544
   32        0.538   0.235   8.771   9.544
   33        0.538   0.235   8.771   9.544
   34        0.538   0.235   8.771   9.544
   35        0.534   0.223   8.770   9.527
   36        0.438   0.557   6.386   7.381
   37        1.615   3.226   0.000   4.841
--------------------------------------------------
tot         20.625  13.410 313.286 347.321
 
 BZINTS: Fermi energy:    0.626197;  399.000000 electrons
         Band energy:-0.125201E+04;  BLOECHL correction:   -0.060006

 total amount of memory used by VASP MPI-rank0   121870. kBytes
=======================================================================

   base      :      30000. kBytes
   nonlr-proj:      13485. kBytes
   fftplans  :       4330. kBytes
   grid      :      17879. kBytes
   one-center:        575. kBytes
   wavefun   :      55601. kBytes
 
  
  
 General timing and accounting informations for this job:
 ========================================================
  
                  Total CPU time used (sec):       82.355
                            User time (sec):       79.386
                          System time (sec):        2.969
                         Elapsed time (sec):       82.701
  
                   Maximum memory used (kb):      379176.
                   Average memory used (kb):          N/A
  
                          Minor page faults:        84264
                          Major page faults:            0
                 Voluntary context switches:         4706
