PROCAR new format
# of k-points:   10         # of bands:  252         # of ions:   37

 k-point     1 :    0.00000000 0.00000000 0.00000000     weight = 0.01562500

band     1 # energy  -17.71047259 # occ.  2.00000000
 
ion      s      p      d    tot
    1  0.000  0.000  0.000  0.000
    2  0.000  0.000  0.000  0.000
    3  0.000  0.000  0.000  0.000
    4  0.000  0.000  0.000  0.000
    5  0.000  0.000  0.000  0.000
    6  0.000  0.000  0.000  0.000
    7  0.000  0.000  0.000  0.000
    8  0.000  0.000  0.000  0.000
    9  0.000  0.000  0.000  0.000
   10  0.000  0.000  0.000  0.000
   11  0.000  0.000  0.000  0.000
   12  0.000  0.000  0.000  0.000
   13  0.000  0.000  0.000  0.000
   14  0.000  0.000  0.000  0.000
   15  0.000  0.000  0.000  0.000
   16  0.000  0.000  0.000  0.000
   17  0.000  0.000  0.000  0.000
   18  0.000  0.000  0.000  0.000
   19  0.000  0.000  0.000  0.000
   20  0.000  0.000  0.000  0.000
   21  0.000  0.000  0.000  0.000
   22  0.000  0.000  0.000  0.000
   23  0.000  0.000  0.000  0.000
   24  0.000  0.000  0.000  0.000
   25  0.000  0.000  0.000  0.000
   26  0.000  0.000  0.000  0.000
   27  0.000  0.000  0.000  0.000
   28  0.000  0.000  0.000  0.000
   29  0.000  0.000  0.000  0.000
   30  0.000  0.000  0.000  0.000
   31  0.000  0.000  0.000  0.000
   32  0.000  0.000  0.000  0.000
   33  0.000  0.000  0.000  0.000
   34  0.000  0.000  0.000  0.000
   35  0.000  0.000  0.000  0.000
   36  0.043  0.058  0.069  0.171
   37  0.775  0.013  0.000  0.787
tot    0.818  0.071  0.069  0.959
 
band     2 # energy   -8.19540416 # occ.  2.00000000
 
ion      s      p      d    tot
    1  0.007  0.001  0.000  0.007
    2  0.007  0.001  0.000  0.007
    3  0.007  0.001  0.000  0.007
    4  0.007  0.001  0.000  0.007
    5  0.007  0.001  0.000  0.007
    6  0.007  0.001  0.000  0.007
    7  0.007  0.001  0.000  0.007
    8  0.007  0.001  0.000  0.007
    9  0.007  0.001  0.000  0.007
   10  0.026  0.000  0.000  0.027
   11  0.027  0.000  0.000  0.028
   12  0.026  0.000  0.000  0.027
   13  0.027  0.000  0.000  0.028
   14  0.027  0.000  0.000  0.028
   15  0.027  0.000  0.000  0.027
   16  0.026  0.000  0.000  0.027
   17  0.027  0.000  0.000  0.027
   18  0.027  0.000  0.000  0.027
   19  0.023  0.000  0.000  0.024
   20  0.026  0.000  0.000  0.027
   21  0.026  0.000  0.000  0.027
   22  0.025  0.000  0.000  0.025
   23  0.026  0.000  0.000  0.027
   24  0.025  0.000  0.000  0.025
   25  0.023  0.000  0.000  0.024
   26  0.023  0.000  0.000  0.024
   27  0.025  0.000  0.000  0.025
   28  0.004  0.000  0.000  0.005
   29  0.005  0.000  0.000  0.005
   30  0.005  0.000  0.000  0.005
   31  0.005  0.000  0.000  0.005
   32  0.005  0.000  0.000  0.005
   33  0.005  0.000  0.000  0.005
   34  0.005  0.000  0.000  0.005
   35  0.005  0.000  0.000  0.005
   36  0.004  0.001  0.000  0.005
   37  0.000  0.000  0.000  0.001
tot    0.565  0.012  0.004  0.581
 
band     3 # energy   -6.99883207 # occ.  2.00000000
 
ion      s      p      d    tot
    1  0.017  0.000  0.001  0.019
    2  0.017  0.000  0.001  0.019
    3  0.017  0.000  0.001  0.019
    4  0.017  0.000  0.001  0.019
    5  0.017  0.000  0.001  0.018
    6  0.017  0.000  0.001  0.019
    7  0.017  0.000  0.001  0.019
    8  0.017  0.000  0.001  0.019
    9  0.017  0.000  0.001  0.019
   10  0.010  0.002  0.003  0.014
   11  0.010  0.002  0.003  0.014
   12  0.010  0.002  0.003  0.014
   13  0.010  0.002  0.003  0.014
   14  0.010  0.002  0.003  0.014
   15  0.010  0.002  0.003  0.014
   16  0.010  0.002  0.003  0.014
   17  0.010  0.002  0.003  0.014
   18  0.010  0.002  0.003  0.014
   19  0.014  0.001  0.004  0.019
   20  0.017  0.001  0.004  0.022
   21  0.017  0.001  0.004  0.022
   22  0.016  0.001  0.004  0.020
   23  0.017  0.001  0.004  0.022
   24  0.016  0.001  0.004  0.020
   25  0.014  0.001  0.004  0.019
   26  0.014  0.001  0.004  0.019
   27  0.016  0.001  0.004  0.020
   28  0.013  0.001  0.000  0.013
   29  0.012  0.001  0.000  0.013
   30  0.012  0.001  0.000  0.013
   31  0.012  0.001  0.000  0.013
   32  0.012  0.001  0.000  0.013
   33  0.012  0.001  0.000  0.013
   34  0.012  0.001  0.000  0.013
   35  0.013  0.001  0.000  0.013
   36  0.007  0.001  0.000  0.009
   37  0.001  0.001  0.000  0.001
tot    0.492  0.034  0.074  0.599
 
band     4 # energy   -6.07888979 # occ.  2.00000000
 
ion      s      p      d    tot
    1  0.001  0.001  0.006  0.007
    2  0.002  0.000  0.006  0.008
    3  0.002  0.000  0.006  0.008
    4  0.002  0.000  0.006  0.008
    5  0.000  0.000  0.001  0.002
    6  0.002  0.000  0.006  0.008
    7  0.002  0.000  0.006  0.008
    8  0.002  0.000  0.006  0.008
    9  0.023  0.001  0.000  0.024
   10  0.009  0.000  0.024  0.033
   11  0.013  0.003  0.009  0.025
   12  0.009  0.000  0.024  0.033
   13  0.013  0.003  0.009  0.025
   14  0.013  0.003  0.009  0.025
   15  0.018  0.002  0.012  0.033
   16  0.009  0.000  0.024  0.033
   17  0.018  0.002  0.012  0.033
   18  0.019  0.002  0.013  0.033
   19  0.000  0.001  0.022  0.023
   20  0.025  0.002  0.019  0.046
   21  0.025  0.002  0.019  0.046
   22  0.017  0.003  0.004  0.023
   23  0.025  0.002  0.019  0.046
   24  0.017  0.003  0.004  0.023
   25  0.000  0.001  0.022  0.023
   26  0.000  0.001  0.022  0.023
   27  0.017  0.003  0.004  0.023
   28  0.003  0.000  0.000  0.004
   29  0.001  0.000  0.005  0.006
   30  0.001  0.000  0.005  0.006
   31  0.001  0.000  0.005  0.006
   32  0.001  0.000  0.005  0.006
   33  0.001  0.000  0.005  0.006
   34  0.001  0.000  0.005  0.006
   35  0.010  0.001  0.000  0.010
   36  0.007  0.002  0.004  0.013
   37  0.000  0.003  0.000  0.003
tot    0.309  0.043  0.347  0.698
 
band     5 # energy   -6.06136060 # occ.  2.00000000
 
ion      s      p      d    tot
    1  0.028  0.000  0.016  0.043
    2  0.019  0.000  0.019  0.038
    3  0.019  0.000  0.019  0.038
    4  0.019  0.000  0.019  0.038
    5  0.019  0.000  0.020  0.039
    6  0.019  0.000  0.019  0.038
    7  0.019  0.000  0.019  0.038
    8  0.019  0.000  0.019  0.038
    9  0.012  0.000  0.021  0.032
   10  0.003  0.000  0.029  0.032
   11  0.006  0.001  0.025  0.032
   12  0.003  0.000  0.029  0.032
   13  0.006  0.001  0.025  0.032
   14  0.006  0.001  0.025  0.032
   15  0.018  0.001  0.020  0.039
   16  0.003  0.000  0.029  0.032
   17  0.018  0.001  0.020  0.039
   18  0.018  0.001  0.020  0.039
   19  0.001  0.000  0.005  0.006
   20  0.003  0.000  0.006  0.010
   21  0.003  0.000  0.006  0.010
   22  0.001  0.001  0.005  0.007
   23  0.003  0.000  0.006  0.010
   24  0.001  0.001  0.005  0.007
   25  0.001  0.000  0.005  0.006
   26  0.001  0.000  0.005  0.006
   27  0.001  0.001  0.005  0.007
   28  0.001  0.000  0.000  0.001
   29  0.000  0.000  0.000  0.001
   30  0.000  0.000  0.000  0.001
   31  0.000  0.000  0.000  0.001
   32  0.000  0.000  0.000  0.001
   33  0.000  0.000  0.000  0.001
   34  0.000  0.000  0.000  0.001
   35  0.000  0.000  0.000  0.000
   36  0.002  0.000  0.000  0.002
   37  0.000  0.001  0.000  0.001
tot    0.271  0.012  0.445  0.728
 
band     6 # energy   -6.04531539 # occ.  2.00000000
 
ion      s      p      d    tot
    1  0.000  0.000  0.006  0.006
    2  0.006  0.001  0.004  0.011
    3  0.005  0.001  0.003  0.009
    4  0.006  0.001  0.004  0.011
    5  0.000  0.001  0.009  0.010
    6  0.000  0.000  0.003  0.003
    7  0.005  0.001  0.003  0.009
    8  0.000  0.000  0.003  0.003
    9  0.000  0.001  0.002  0.002
   10  0.000  0.001  0.029  0.030
   11  0.044  0.002  0.015  0.061
   12  0.014  0.001  0.012  0.027
   13  0.046  0.002  0.014  0.062
   14  0.000  0.002  0.036  0.038
   15  0.009  0.001  0.012  0.022
   16  0.014  0.001  0.012  0.027
   17  0.009  0.001  0.012  0.022
   18  0.000  0.004  0.002  0.006
   19  0.001  0.001  0.010  0.012
   20  0.000  0.003  0.025  0.028
   21  0.039  0.002  0.015  0.055
   22  0.025  0.002  0.011  0.037
   23  0.038  0.002  0.015  0.055
   24  0.000  0.000  0.036  0.036
   25  0.000  0.003  0.004  0.007
   26  0.001  0.001  0.010  0.012
   27  0.024  0.001  0.012  0.037
   28  0.000  0.000  0.001  0.001
   29  0.000  0.000  0.002  0.003
   30  0.007  0.001  0.003  0.010
   31  0.000  0.000  0.002  0.003
   32  0.004  0.001  0.003  0.008
   33  0.006  0.001  0.003  0.010
   34  0.004  0.001  0.003  0.008
   35  0.000  0.000  0.006  0.006
   36  0.000  0.002  0.002  0.004
   37  0.000  0.000  0.000  0.000
tot    0.307  0.043  0.343  0.694
 
band     7 # energy   -6.04530175 # occ.  2.00000000
 
ion      s      p      d    tot
    1  0.000  0.000  0.006  0.006
    2  0.001  0.000  0.003  0.005
    3  0.003  0.001  0.004  0.007
    4  0.001  0.000  0.003  0.004
    5  0.000  0.001  0.009  0.010
    6  0.007  0.001  0.003  0.012
    7  0.002  0.001  0.004  0.007
    8  0.007  0.001  0.003  0.012
    9  0.000  0.001  0.002  0.002
   10  0.018  0.002  0.006  0.026
   11  0.016  0.002  0.028  0.046
   12  0.004  0.001  0.024  0.029
   13  0.014  0.002  0.029  0.045
   14  0.060  0.001  0.008  0.069
   15  0.003  0.003  0.006  0.012
   16  0.005  0.001  0.023  0.029
   17  0.003  0.003  0.005  0.011
   18  0.012  0.000  0.015  0.027
   19  0.000  0.003  0.006  0.009
   20  0.052  0.001  0.011  0.064
   21  0.012  0.003  0.022  0.037
   22  0.008  0.000  0.028  0.037
   23  0.013  0.003  0.021  0.038
   24  0.033  0.002  0.003  0.038
   25  0.001  0.000  0.012  0.014
   26  0.000  0.003  0.006  0.009
   27  0.009  0.001  0.028  0.037
   28  0.000  0.000  0.001  0.001
   29  0.007  0.001  0.003  0.011
   30  0.000  0.000  0.003  0.004
   31  0.007  0.001  0.003  0.011
   32  0.003  0.001  0.002  0.006
   33  0.001  0.000  0.003  0.004
   34  0.003  0.001  0.002  0.006
   35  0.000  0.000  0.006  0.006
   36  0.000  0.002  0.002  0.004
   37  0.000  0.000  0.000  0.000
tot    0.307  0.043  0.343  0.694
 
band     8 # energy   -6.02642677 # occ.  2.00000000
 
ion      s      p      d    tot
    1  0.007  0.001  0.001  0.010
    2  0.000  0.001  0.006  0.007
    3  0.000  0.001  0.006  0.007
    4  0.000  0.001  0.006  0.007
    5  0.017  0.002  0.001  0.020
    6  0.000  0.001  0.006  0.007
    7  0.000  0.001  0.006  0.007
    8  0.000  0.001  0.006  0.007
    9  0.000  0.000  0.002  0.002
   10  0.026  0.003  0.001  0.031
   11  0.020  0.001  0.023  0.044
   12  0.026  0.003  0.001  0.031
   13  0.020  0.001  0.023  0.044
   14  0.020  0.001  0.023  0.044
   15  0.000  0.001  0.024  0.025
   16  0.026  0.003  0.001  0.031
   17  0.000  0.001  0.024  0.025
   18  0.000  0.001  0.024  0.025
   19  0.026  0.002  0.005  0.033
   20  0.005  0.002  0.017  0.024
   21  0.005  0.002  0.017  0.024
   22  0.009  0.000  0.026  0.035
   23  0.005  0.002  0.017  0.024
   24  0.009  0.000  0.026  0.035
   25  0.026  0.002  0.005  0.033
   26  0.026  0.002  0.005  0.033
   27  0.009  0.000  0.026  0.035
   28  0.010  0.001  0.001  0.012
   29  0.000  0.000  0.004  0.004
   30  0.000  0.000  0.004  0.004
   31  0.000  0.000  0.004  0.004
   32  0.000  0.000  0.004  0.004
   33  0.000  0.000  0.004  0.004
   34  0.000  0.000  0.004  0.004
   35  0.005  0.001  0.002  0.007
   36  0.000  0.000  0.000  0.000
   37  0.000  0.000  0.000  0.000
tot    0.299  0.040  0.356  0.695
 
band     9 # energy   -6.00426450 # occ.  2.00000000
 
ion      s      p      d    tot
    1  0.000  0.001  0.006  0.007
    2  0.007  0.001  0.004  0.012
    3  0.006  0.001  0.003  0.010
    4  0.007  0.001  0.004  0.012
    5  0.000  0.000  0.002  0.002
    6  0.000  0.000  0.003  0.004
    7  0.006  0.001  0.003  0.011
    8  0.000  0.000  0.003  0.004
    9  0.000  0.001  0.011  0.012
   10  0.044  0.000  0.014  0.059
   11  0.000  0.002  0.012  0.015
   12  0.011  0.003  0.013  0.027
   13  0.000  0.002  0.012  0.015
   14  0.000  0.001  0.012  0.013
   15  0.014  0.001  0.036  0.050
   16  0.012  0.003  0.013  0.028
   17  0.013  0.001  0.037  0.050
   18  0.053  0.002  0.003  0.058
   19  0.013  0.001  0.027  0.041
   20  0.008  0.001  0.008  0.017
   21  0.002  0.001  0.018  0.021
   22  0.005  0.003  0.009  0.018
   23  0.002  0.001  0.018  0.021
   24  0.021  0.000  0.014  0.035
   25  0.049  0.002  0.004  0.055
   26  0.012  0.001  0.028  0.040
   27  0.005  0.003  0.010  0.018
   28  0.000  0.001  0.006  0.007
   29  0.000  0.000  0.002  0.002
   30  0.003  0.001  0.002  0.006
   31  0.000  0.000  0.002  0.002
   32  0.003  0.001  0.003  0.006
   33  0.003  0.001  0.002  0.006
   34  0.003  0.001  0.003  0.006
   35  0.000  0.000  0.002  0.002
   36  0.000  0.000  0.001  0.001
   37  0.000  0.000  0.000  0.000
tot    0.299  0.042  0.353  0.694
 
band    10 # energy   -6.00423712 # occ.  2.00000000
 
ion      s      p      d    tot
    1  0.000  0.001  0.006  0.007
    2  0.002  0.001  0.003  0.006
    3  0.003  0.001  0.004  0.007
    4  0.002  0.001  0.003  0.005
    5  0.000  0.000  0.002  0.002
    6  0.008  0.001  0.004  0.014
    7  0.002  0.001  0.004  0.007
    8  0.008  0.001  0.004  0.014
    9  0.000  0.001  0.011  0.012
   10  0.000  0.004  0.013  0.017
   11  0.000  0.001  0.012  0.014
   12  0.034  0.001  0.014  0.049
   13  0.000  0.001  0.012  0.014
   14  0.000  0.003  0.012  0.015
   15  0.039  0.001  0.015  0.055
   16  0.033  0.001  0.014  0.048
   17  0.040  0.001  0.014  0.055
   18  0.000  0.000  0.047  0.047
   19  0.036  0.002  0.012  0.050
   20  0.000  0.001  0.021  0.022
   21  0.006  0.001  0.011  0.018
   22  0.016  0.001  0.013  0.030
   23  0.006  0.001  0.012  0.018
   24  0.000  0.004  0.008  0.012
   25  0.000  0.001  0.035  0.036
   26  0.037  0.002  0.012  0.050
   27  0.015  0.001  0.013  0.029
   28  0.000  0.001  0.006  0.007
   29  0.004  0.001  0.002  0.007
   30  0.001  0.000  0.002  0.003
   31  0.004  0.001  0.002  0.007
   32  0.001  0.000  0.002  0.003
   33  0.001  0.000  0.002  0.003
   34  0.001  0.000  0.002  0.003
   35  0.000  0.000  0.002  0.002
   36  0.000  0.000  0.001  0.001
   37  0.000  0.000  0.000  0.000
tot    0.299  0.042  0.353  0.694
 
band    11 # energy   -5.86412553 # occ.  2.00000000
 
ion      s      p      d    tot
    1  0.001  0.000  0.000  0.001
    2  0.001  0.000  0.000  0.001
    3  0.001  0.000  0.000  0.001
    4  0.001  0.000  0.000  0.001
    5  0.002  0.000  0.000  0.002
    6  0.001  0.000  0.000  0.001
    7  0.001  0.000  0.000  0.001
    8  0.001  0.000  0.000  0.001
    9  0.000  0.000  0.001  0.001
   10  0.000  0.000  0.003  0.003
   11  0.001  0.000  0.002  0.003
   12  0.000  0.000  0.003  0.003
   13  0.001  0.000  0.002  0.003
   14  0.001  0.000  0.002  0.003
   15  0.001  0.000  0.003  0.004
   16  0.000  0.000  0.003  0.003
   17  0.001  0.000  0.003  0.004
   18  0.001  0.000  0.003  0.004
   19  0.004  0.001  0.019  0.024
   20  0.003  0.000  0.027  0.031
   21  0.003  0.000  0.027  0.031
   22  0.007  0.001  0.025  0.034
   23  0.003  0.000  0.027  0.031
   24  0.007  0.001  0.025  0.034
   25  0.004  0.001  0.019  0.024
   26  0.004  0.001  0.019  0.024
   27  0.007  0.001  0.025  0.034
   28  0.030  0.000  0.021  0.051
   29  0.026  0.000  0.022  0.048
   30  0.026  0.000  0.022  0.048
   31  0.026  0.000  0.022  0.048
   32  0.026  0.000  0.022  0.048
   33  0.026  0.000  0.022  0.048
   34  0.026  0.000  0.022  0.048
   35  0.030  0.000  0.023  0.053
   36  0.006  0.000  0.010  0.016
   37  0.001  0.000  0.000  0.001
tot    0.279  0.012  0.425  0.717
 
band    12 # energy   -5.57125236 # occ.  2.00000000
 
ion      s      p      d    tot
    1  0.014  0.002  0.002  0.018
    2  0.000  0.001  0.009  0.009
    3  0.000  0.001  0.009  0.009
    4  0.000  0.001  0.009  0.009
    5  0.001  0.000  0.002  0.002
    6  0.000  0.001  0.009  0.009
    7  0.000  0.001  0.009  0.009
    8  0.000  0.001  0.009  0.009
    9  0.019  0.002  0.000  0.020
   10  0.011  0.001  0.014  0.026
   11  0.002  0.000  0.045  0.047
   12  0.011  0.001  0.014  0.026
   13  0.002  0.000  0.045  0.047
   14  0.002  0.000  0.045  0.047
   15  0.004  0.001  0.022  0.027
   16  0.011  0.001  0.014  0.026
   17  0.004  0.001  0.022  0.027
   18  0.004  0.001  0.022  0.027
   19  0.004  0.001  0.014  0.018
   20  0.002  0.000  0.050  0.051
   21  0.002  0.000  0.050  0.051
   22  0.011  0.001  0.018  0.030
   23  0.002  0.000  0.050  0.051
   24  0.011  0.001  0.018  0.030
   25  0.004  0.001  0.014  0.018
   26  0.004  0.001  0.014  0.018
   27  0.011  0.001  0.018  0.030
   28  0.009  0.001  0.001  0.011
   29  0.000  0.000  0.005  0.005
   30  0.000  0.000  0.005  0.005
   31  0.000  0.000  0.005  0.005
   32  0.000  0.000  0.005  0.005
   33  0.000  0.000  0.005  0.005
   34  0.000  0.000  0.005  0.005
   35  0.008  0.001  0.002  0.012
   36  0.000  0.000  0.002  0.002
   37  0.000  0.000  0.000  0.000
tot    0.149  0.028  0.579  0.755
 
band    13 # energy   -5.55711023 # occ.  2.00000000
 
ion      s      p      d    tot
    1  0.000  0.001  0.004  0.005
    2  0.001  0.001  0.005  0.006
    3  0.009  0.001  0.005  0.015
    4  0.001  0.001  0.005  0.006
    5  0.000  0.001  0.011  0.012
    6  0.005  0.001  0.004  0.010
    7  0.009  0.001  0.005  0.015
    8  0.005  0.001  0.004  0.010
    9  0.000  0.000  0.009  0.009
   10  0.000  0.001  0.049  0.050
   11  0.016  0.001  0.021  0.038
   12  0.007  0.002  0.019  0.027
   13  0.016  0.001  0.021  0.038
   14  0.000  0.000  0.053  0.053
   15  0.002  0.000  0.020  0.023
   16  0.007  0.002  0.019  0.027
   17  0.002  0.000  0.020  0.022
   18  0.000  0.001  0.011  0.012
   19  0.006  0.000  0.018  0.025
   20  0.000  0.000  0.068  0.068
   21  0.017  0.001  0.022  0.041
   22  0.003  0.001  0.019  0.023
   23  0.017  0.001  0.022  0.040
   24  0.000  0.001  0.035  0.036
   25  0.000  0.001  0.012  0.013
   26  0.006  0.000  0.018  0.025
   27  0.003  0.001  0.019  0.023
   28  0.000  0.000  0.007  0.008
   29  0.002  0.001  0.004  0.006
   30  0.010  0.001  0.003  0.015
   31  0.002  0.001  0.004  0.006
   32  0.003  0.001  0.004  0.008
   33  0.010  0.001  0.003  0.015
   34  0.003  0.001  0.004  0.008
   35  0.000  0.000  0.003  0.003
   36  0.000  0.002  0.002  0.004
   37  0.000  0.000  0.000  0.000
tot    0.161  0.032  0.553  0.747
 
band    14 # energy   -5.55710258 # occ.  2.00000000
 
ion      s      p      d    tot
    1  0.000  0.001  0.004  0.005
    2  0.009  0.001  0.004  0.015
    3  0.001  0.000  0.005  0.006
    4  0.009  0.001  0.004  0.015
    5  0.000  0.001  0.011  0.012
    6  0.005  0.001  0.005  0.011
    7  0.001  0.000  0.005  0.006
    8  0.005  0.001  0.005  0.011
    9  0.000  0.000  0.009  0.009
   10  0.009  0.002  0.009  0.020
   11  0.005  0.000  0.042  0.048
   12  0.002  0.001  0.039  0.042
   13  0.005  0.000  0.042  0.048
   14  0.021  0.001  0.011  0.033
   15  0.001  0.001  0.014  0.015
   16  0.002  0.001  0.039  0.042
   17  0.001  0.001  0.014  0.015
   18  0.002  0.000  0.024  0.026
   19  0.002  0.001  0.014  0.017
   20  0.023  0.002  0.006  0.031
   21  0.006  0.000  0.053  0.059
   22  0.001  0.001  0.030  0.032
   23  0.006  0.000  0.053  0.059
   24  0.004  0.001  0.013  0.018
   25  0.008  0.000  0.020  0.029
   26  0.002  0.001  0.015  0.017
   27  0.001  0.001  0.030  0.032
   28  0.000  0.000  0.007  0.008
   29  0.008  0.001  0.004  0.013
   30  0.000  0.000  0.004  0.005
   31  0.008  0.001  0.004  0.013
   32  0.007  0.001  0.004  0.011
   33  0.000  0.000  0.004  0.005
   34  0.007  0.001  0.004  0.011
   35  0.000  0.000  0.003  0.003
   36  0.000  0.002  0.002  0.004
   37  0.000  0.000  0.000  0.000
tot    0.161  0.032  0.553  0.747
 
band    15 # energy   -5.54930945 # occ.  2.00000000
 
ion      s      p      d    tot
    1  0.007  0.000  0.001  0.008
    2  0.000  0.001  0.008  0.009
    3  0.000  0.001  0.008  0.009
    4  0.000  0.001  0.008  0.009
    5  0.017  0.002  0.001  0.020
    6  0.000  0.001  0.008  0.009
    7  0.000  0.001  0.008  0.009
    8  0.000  0.001  0.008  0.009
    9  0.003  0.001  0.002  0.005
   10  0.000  0.000  0.040  0.041
   11  0.008  0.002  0.007  0.016
   12  0.000  0.000  0.040  0.041
   13  0.008  0.002  0.007  0.016
   14  0.008  0.002  0.007  0.017
   15  0.008  0.001  0.028  0.036
   16  0.000  0.000  0.040  0.041
   17  0.008  0.001  0.028  0.036
   18  0.008  0.001  0.027  0.036
   19  0.011  0.001  0.035  0.047
   20  0.008  0.002  0.011  0.022
   21  0.008  0.002  0.011  0.022
   22  0.000  0.000  0.038  0.038
   23  0.008  0.002  0.011  0.022
   24  0.000  0.000  0.038  0.038
   25  0.011  0.001  0.035  0.047
   26  0.011  0.001  0.035  0.047
   27  0.000  0.000  0.038  0.038
   28  0.001  0.001  0.005  0.007
   29  0.000  0.000  0.005  0.006
   30  0.000  0.000  0.005  0.006
   31  0.000  0.000  0.005  0.006
   32  0.000  0.000  0.005  0.006
   33  0.000  0.000  0.005  0.006
   34  0.000  0.000  0.005  0.006
   35  0.001  0.000  0.000  0.002
   36  0.015  0.002  0.003  0.020
   37  0.001  0.006  0.000  0.007
tot    0.153  0.036  0.568  0.758
 
band    16 # energy   -5.51217331 # occ.  2.00000000
 
ion      s      p      d    tot
    1  0.000  0.001  0.015  0.016
    2  0.010  0.001  0.005  0.016
    3  0.002  0.000  0.005  0.007
    4  0.010  0.001  0.005  0.016
    5  0.000  0.000  0.005  0.005
    6  0.003  0.001  0.006  0.010
    7  0.002  0.000  0.005  0.007
    8  0.003  0.001  0.005  0.010
    9  0.000  0.001  0.007  0.009
   10  0.000  0.001  0.030  0.031
   11  0.001  0.001  0.020  0.022
   12  0.007  0.000  0.023  0.030
   13  0.001  0.001  0.020  0.022
   14  0.000  0.001  0.019  0.020
   15  0.011  0.002  0.021  0.034
   16  0.007  0.000  0.023  0.030
   17  0.011  0.002  0.021  0.034
   18  0.000  0.000  0.065  0.065
   19  0.013  0.001  0.020  0.035
   20  0.000  0.002  0.020  0.021
   21  0.000  0.001  0.022  0.022
   22  0.018  0.001  0.021  0.040
   23  0.000  0.001  0.022  0.022
   24  0.000  0.001  0.032  0.033
   25  0.000  0.000  0.067  0.067
   26  0.013  0.001  0.020  0.034
   27  0.018  0.001  0.021  0.039
   28  0.000  0.001  0.004  0.005
   29  0.005  0.001  0.004  0.010
   30  0.000  0.000  0.004  0.005
   31  0.005  0.001  0.004  0.010
   32  0.003  0.001  0.002  0.006
   33  0.000  0.000  0.004  0.005
   34  0.003  0.001  0.002  0.006
   35  0.000  0.001  0.007  0.008
   36  0.000  0.000  0.000  0.000
   37  0.000  0.000  0.000  0.000
tot    0.148  0.028  0.577  0.753
 
band    17 # energy   -5.51215868 # occ.  2.00000000
 
ion      s      p      d    tot
    1  0.000  0.001  0.015  0.016
    2  0.000  0.000  0.006  0.006
    3  0.008  0.001  0.005  0.015
    4  0.000  0.000  0.006  0.006
    5  0.000  0.000  0.005  0.005
    6  0.007  0.001  0.005  0.012
    7  0.008  0.001  0.005  0.015
    8  0.007  0.001  0.005  0.012
    9  0.000  0.001  0.007  0.009
   10  0.009  0.000  0.020  0.030
   11  0.000  0.001  0.019  0.021
   12  0.002  0.001  0.027  0.030
   13  0.000  0.001  0.019  0.021
   14  0.001  0.001  0.021  0.022
   15  0.004  0.001  0.050  0.055
   16  0.002  0.001  0.027  0.030
   17  0.004  0.001  0.051  0.055
   18  0.015  0.002  0.006  0.023
   19  0.005  0.001  0.051  0.056
   20  0.000  0.000  0.022  0.023
   21  0.000  0.001  0.020  0.022
   22  0.006  0.001  0.029  0.035
   23  0.000  0.001  0.020  0.022
   24  0.024  0.001  0.017  0.042
   25  0.018  0.001  0.004  0.023
   26  0.004  0.001  0.052  0.057
   27  0.006  0.001  0.029  0.035
   28  0.000  0.001  0.004  0.005
   29  0.001  0.000  0.003  0.004
   30  0.006  0.001  0.003  0.009
   31  0.001  0.000  0.003  0.004
   32  0.002  0.001  0.005  0.008
   33  0.006  0.001  0.003  0.009
   34  0.002  0.001  0.005  0.008
   35  0.000  0.001  0.007  0.008
   36  0.000  0.000  0.000  0.000
   37  0.000  0.000  0.000  0.000
tot    0.148  0.028  0.577  0.753
 
band    18 # energy   -5.17641005 # occ.  2.00000000
 
ion      s      p      d    tot
    1  0.000  0.000  0.015  0.016
    2  0.000  0.001  0.012  0.012
    3  0.007  0.000  0.015  0.022
    4  0.000  0.000  0.012  0.012
    5  0.000  0.000  0.030  0.030
    6  0.008  0.001  0.009  0.018
    7  0.006  0.000  0.015  0.022
    8  0.008  0.001  0.009  0.017
    9  0.000  0.001  0.007  0.009
   10  0.000  0.000  0.017  0.017
   11  0.000  0.000  0.047  0.048
   12  0.000  0.000  0.009  0.010
   13  0.000  0.000  0.047  0.048
   14  0.000  0.000  0.043  0.043
   15  0.000  0.000  0.031  0.031
   16  0.000  0.000  0.010  0.010
   17  0.000  0.000  0.031  0.031
   18  0.000  0.000  0.047  0.047
   19  0.000  0.000  0.011  0.011
   20  0.001  0.000  0.048  0.049
   21  0.000  0.000  0.034  0.035
   22  0.000  0.000  0.035  0.035
   23  0.000  0.000  0.035  0.035
   24  0.000  0.000  0.036  0.036
   25  0.001  0.000  0.012  0.012
   26  0.000  0.000  0.011  0.011
   27  0.000  0.000  0.035  0.035
   28  0.000  0.000  0.012  0.013
   29  0.008  0.001  0.011  0.019
   30  0.000  0.001  0.008  0.009
   31  0.007  0.001  0.011  0.019
   32  0.009  0.001  0.006  0.016
   33  0.000  0.001  0.008  0.009
   34  0.009  0.001  0.006  0.016
   35  0.000  0.000  0.017  0.017
   36  0.000  0.003  0.000  0.003
   37  0.000  0.001  0.000  0.001
tot    0.065  0.017  0.742  0.825
 
band    19 # energy   -5.17640793 # occ.  2.00000000
 
ion      s      p      d    tot
    1  0.000  0.000  0.015  0.016
    2  0.009  0.001  0.013  0.022
    3  0.003  0.001  0.009  0.013
    4  0.009  0.001  0.012  0.022
    5  0.000  0.000  0.030  0.030
    6  0.002  0.000  0.015  0.017
    7  0.003  0.001  0.009  0.013
    8  0.002  0.000  0.015  0.017
    9  0.000  0.001  0.007  0.009
   10  0.000  0.000  0.007  0.007
   11  0.000  0.000  0.044  0.045
   12  0.000  0.000  0.015  0.015
   13  0.000  0.000  0.044  0.045
   14  0.000  0.000  0.049  0.049
   15  0.000  0.000  0.041  0.042
   16  0.000  0.000  0.014  0.015
   17  0.000  0.000  0.042  0.042
   18  0.000  0.000  0.026  0.026
   19  0.001  0.000  0.011  0.012
   20  0.000  0.000  0.030  0.030
   21  0.001  0.000  0.044  0.045
   22  0.000  0.000  0.035  0.036
   23  0.001  0.000  0.043  0.044
   24  0.000  0.000  0.034  0.035
   25  0.000  0.000  0.011  0.011
   26  0.001  0.000  0.011  0.012
   27  0.000  0.000  0.035  0.036
   28  0.000  0.000  0.012  0.013
   29  0.003  0.001  0.006  0.010
   30  0.011  0.001  0.009  0.021
   31  0.004  0.001  0.006  0.010
   32  0.002  0.001  0.011  0.014
   33  0.011  0.001  0.009  0.021
   34  0.002  0.001  0.011  0.013
   35  0.000  0.000  0.017  0.017
   36  0.000  0.003  0.000  0.003
   37  0.000  0.001  0.000  0.001
tot    0.065  0.017  0.742  0.825
 
band    20 # energy   -5.16647878 # occ.  2.00000000
 
ion      s      p      d    tot
    1  0.011  0.000  0.002  0.014
    2  0.000  0.001  0.009  0.010
    3  0.000  0.001  0.009  0.010
    4  0.000  0.001  0.009  0.010
    5  0.002  0.000  0.014  0.016
    6  0.000  0.001  0.009  0.010
    7  0.000  0.001  0.009  0.010
    8  0.000  0.001  0.009  0.010
    9  0.004  0.001  0.004  0.009
   10  0.000  0.000  0.024  0.024
   11  0.000  0.000  0.049  0.050
   12  0.000  0.000  0.024  0.024
   13  0.000  0.000  0.049  0.050
   14  0.000  0.000  0.050  0.050
   15  0.000  0.000  0.038  0.039
   16  0.000  0.000  0.024  0.024
   17  0.000  0.000  0.038  0.039
   18  0.000  0.000  0.038  0.039
   19  0.000  0.000  0.022  0.022
   20  0.001  0.000  0.043  0.044
   21  0.001  0.000  0.043  0.044
   22  0.001  0.000  0.032  0.033
   23  0.001  0.000  0.043  0.044
   24  0.001  0.000  0.032  0.034
   25  0.000  0.000  0.022  0.022
   26  0.000  0.000  0.022  0.022
   27  0.001  0.000  0.032  0.033
   28  0.010  0.001  0.000  0.011
   29  0.000  0.001  0.010  0.011
   30  0.000  0.001  0.010  0.011
   31  0.000  0.001  0.010  0.011
   32  0.000  0.001  0.010  0.011
   33  0.000  0.001  0.010  0.011
   34  0.000  0.001  0.010  0.011
   35  0.009  0.000  0.003  0.012
   36  0.001  0.000  0.010  0.010
   37  0.000  0.005  0.000  0.005
tot    0.044  0.018  0.776  0.837
 
band    21 # energy   -5.15170175 # occ.  2.00000000
 
ion      s      p      d    tot
    1  0.000  0.000  0.011  0.011
    2  0.000  0.001  0.019  0.020
    3  0.000  0.001  0.019  0.020
    4  0.000  0.001  0.019  0.020
    5  0.019  0.001  0.000  0.021
    6  0.000  0.001  0.019  0.020
    7  0.000  0.001  0.019  0.020
    8  0.000  0.001  0.019  0.020
    9  0.020  0.000  0.011  0.031
   10  0.000  0.000  0.045  0.045
   11  0.000  0.001  0.033  0.034
   12  0.000  0.000  0.045  0.045
   13  0.000  0.001  0.033  0.034
   14  0.000  0.001  0.033  0.034
   15  0.000  0.000  0.035  0.035
   16  0.000  0.000  0.045  0.045
   17  0.000  0.000  0.035  0.035
   18  0.000  0.000  0.035  0.035
   19  0.001  0.000  0.025  0.026
   20  0.000  0.000  0.032  0.032
   21  0.000  0.000  0.032  0.032
   22  0.000  0.000  0.017  0.018
   23  0.000  0.000  0.032  0.032
   24  0.000  0.000  0.017  0.018
   25  0.001  0.000  0.025  0.026
   26  0.001  0.000  0.025  0.026
   27  0.000  0.000  0.017  0.018
   28  0.004  0.000  0.005  0.008
   29  0.000  0.000  0.009  0.010
   30  0.000  0.000  0.009  0.010
   31  0.000  0.000  0.009  0.010
   32  0.000  0.000  0.009  0.010
   33  0.000  0.000  0.009  0.010
   34  0.000  0.000  0.009  0.010
   35  0.000  0.000  0.002  0.003
   36  0.006  0.000  0.001  0.007