PROCAR new format
# of k-points:   10         # of bands:  252         # of ions:   38

 k-point     1 :    0.00000000 0.00000000 0.00000000     weight = 0.01562500

band     1 # energy  -22.08194713 # occ.  2.00000000
 
ion      s      p      d    tot
    1  0.000  0.000  0.000  0.000
    2  0.000  0.000  0.000  0.000
    3  0.000  0.000  0.000  0.000
    4  0.000  0.000  0.000  0.000
    5  0.000  0.000  0.000  0.000
    6  0.000  0.000  0.000  0.000
    7  0.000  0.000  0.000  0.000
    8  0.000  0.000  0.000  0.000
    9  0.000  0.000  0.000  0.000
   10  0.000  0.000  0.000  0.000
   11  0.000  0.000  0.000  0.000
   12  0.000  0.000  0.000  0.000
   13  0.000  0.000  0.000  0.000
   14  0.000  0.000  0.000  0.000
   15  0.000  0.000  0.000  0.000
   16  0.000  0.000  0.000  0.000
   17  0.000  0.000  0.000  0.000
   18  0.000  0.000  0.000  0.000
   19  0.000  0.000  0.000  0.000
   20  0.000  0.000  0.000  0.000
   21  0.000  0.000  0.000  0.000
   22  0.000  0.000  0.000  0.000
   23  0.000  0.000  0.000  0.000
   24  0.000  0.000  0.000  0.000
   25  0.000  0.000  0.000  0.000
   26  0.000  0.000  0.000  0.000
   27  0.000  0.000  0.000  0.000
   28  0.000  0.000  0.000  0.000
   29  0.000  0.000  0.000  0.000
   30  0.000  0.000  0.000  0.000
   31  0.000  0.000  0.000  0.000
   32  0.000  0.000  0.000  0.000
   33  0.000  0.000  0.000  0.000
   34  0.000  0.000  0.000  0.000
   35  0.000  0.000  0.000  0.000
   36  0.000  0.000  0.000  0.001
   37  0.159  0.113  0.000  0.272
   38  0.634  0.094  0.000  0.729
tot    0.793  0.208  0.000  1.002
 
band     2 # energy   -8.60273632 # occ.  2.00000000
 
ion      s      p      d    tot
    1  0.000  0.000  0.000  0.000
    2  0.000  0.000  0.000  0.000
    3  0.000  0.000  0.000  0.000
    4  0.000  0.000  0.000  0.000
    5  0.000  0.000  0.000  0.000
    6  0.000  0.000  0.000  0.000
    7  0.000  0.000  0.000  0.000
    8  0.000  0.000  0.000  0.000
    9  0.000  0.000  0.000  0.000
   10  0.002  0.000  0.000  0.002
   11  0.002  0.000  0.000  0.002
   12  0.002  0.000  0.000  0.002
   13  0.002  0.000  0.000  0.002
   14  0.002  0.000  0.000  0.002
   15  0.002  0.000  0.000  0.002
   16  0.002  0.000  0.000  0.002
   17  0.002  0.000  0.000  0.002
   18  0.002  0.000  0.000  0.002
   19  0.003  0.000  0.000  0.003
   20  0.010  0.001  0.002  0.013
   21  0.010  0.001  0.002  0.013
   22  0.003  0.000  0.000  0.003
   23  0.010  0.001  0.002  0.013
   24  0.003  0.000  0.000  0.003
   25  0.003  0.000  0.000  0.003
   26  0.003  0.000  0.000  0.003
   27  0.003  0.000  0.000  0.003
   28  0.001  0.000  0.000  0.001
   29  0.004  0.000  0.001  0.005
   30  0.004  0.000  0.001  0.005
   31  0.004  0.000  0.001  0.005
   32  0.004  0.000  0.001  0.005
   33  0.004  0.000  0.001  0.005
   34  0.004  0.000  0.001  0.005
   35  0.001  0.000  0.000  0.001
   36  0.106  0.025  0.103  0.234
   37  0.234  0.034  0.000  0.268
   38  0.083  0.074  0.000  0.157
tot    0.519  0.137  0.116  0.772
 
band     3 # energy   -8.04493371 # occ.  2.00000000
 
ion      s      p      d    tot
    1  0.007  0.001  0.000  0.007
    2  0.007  0.001  0.000  0.007
    3  0.007  0.001  0.000  0.007
    4  0.007  0.001  0.000  0.007
    5  0.007  0.001  0.000  0.007
    6  0.007  0.001  0.000  0.007
    7  0.007  0.001  0.000  0.007
    8  0.007  0.001  0.000  0.007
    9  0.007  0.001  0.000  0.007
   10  0.025  0.000  0.000  0.025
   11  0.026  0.000  0.000  0.026
   12  0.025  0.000  0.000  0.025
   13  0.026  0.000  0.000  0.026
   14  0.026  0.000  0.000  0.026
   15  0.026  0.000  0.000  0.026
   16  0.025  0.000  0.000  0.025
   17  0.026  0.000  0.000  0.026
   18  0.026  0.000  0.000  0.026
   19  0.019  0.000  0.000  0.019
   20  0.018  0.000  0.000  0.018
   21  0.018  0.000  0.000  0.018
   22  0.021  0.000  0.000  0.021
   23  0.018  0.000  0.000  0.018
   24  0.021  0.000  0.000  0.021
   25  0.019  0.000  0.000  0.019
   26  0.019  0.000  0.000  0.019
   27  0.021  0.000  0.000  0.021
   28  0.003  0.000  0.000  0.004
   29  0.002  0.000  0.000  0.003
   30  0.002  0.000  0.000  0.003
   31  0.002  0.000  0.000  0.003
   32  0.002  0.000  0.000  0.003
   33  0.002  0.000  0.000  0.003
   34  0.002  0.000  0.000  0.003
   35  0.003  0.000  0.000  0.004
   36  0.002  0.009  0.016  0.026
   37  0.042  0.002  0.000  0.045
   38  0.018  0.024  0.000  0.042
tot    0.546  0.047  0.021  0.614
 
band     4 # energy   -6.92818368 # occ.  2.00000000
 
ion      s      p      d    tot
    1  0.016  0.000  0.001  0.018
    2  0.016  0.000  0.001  0.017
    3  0.016  0.000  0.001  0.017
    4  0.016  0.000  0.001  0.017
    5  0.015  0.000  0.001  0.017
    6  0.016  0.000  0.001  0.017
    7  0.016  0.000  0.001  0.017
    8  0.016  0.000  0.001  0.017
    9  0.016  0.000  0.001  0.017
   10  0.010  0.001  0.002  0.014
   11  0.009  0.001  0.002  0.013
   12  0.010  0.001  0.002  0.014
   13  0.009  0.001  0.002  0.013
   14  0.009  0.001  0.002  0.013
   15  0.009  0.001  0.002  0.013
   16  0.010  0.001  0.002  0.014
   17  0.009  0.001  0.002  0.013
   18  0.009  0.001  0.002  0.013
   19  0.013  0.001  0.003  0.018
   20  0.014  0.001  0.003  0.019
   21  0.014  0.001  0.003  0.019
   22  0.014  0.001  0.003  0.018
   23  0.014  0.001  0.003  0.019
   24  0.014  0.001  0.003  0.018
   25  0.013  0.001  0.003  0.018
   26  0.013  0.001  0.003  0.018
   27  0.014  0.001  0.003  0.018
   28  0.013  0.000  0.000  0.014
   29  0.013  0.001  0.001  0.014
   30  0.013  0.001  0.001  0.014
   31  0.013  0.001  0.001  0.014
   32  0.013  0.001  0.001  0.014
   33  0.013  0.001  0.001  0.014
   34  0.013  0.001  0.001  0.014
   35  0.013  0.000  0.000  0.013
   36  0.010  0.003  0.003  0.016
   37  0.011  0.002  0.000  0.012
   38  0.010  0.028  0.000  0.038
tot    0.484  0.063  0.068  0.615
 
band     5 # energy   -6.12504248 # occ.  2.00000000
 
ion      s      p      d    tot
    1  0.008  0.000  0.000  0.008
    2  0.001  0.000  0.002  0.004
    3  0.001  0.000  0.002  0.004
    4  0.001  0.000  0.002  0.004
    5  0.002  0.000  0.001  0.003
    6  0.001  0.000  0.002  0.004
    7  0.001  0.000  0.002  0.004
    8  0.001  0.000  0.002  0.004
    9  0.001  0.001  0.002  0.004
   10  0.003  0.000  0.013  0.016
   11  0.002  0.001  0.005  0.008
   12  0.003  0.000  0.013  0.016
   13  0.002  0.001  0.005  0.008
   14  0.002  0.001  0.005  0.008
   15  0.013  0.001  0.002  0.017
   16  0.003  0.000  0.013  0.016
   17  0.013  0.001  0.002  0.017
   18  0.013  0.001  0.002  0.017
   19  0.003  0.000  0.014  0.018
   20  0.012  0.002  0.026  0.039
   21  0.012  0.002  0.026  0.039
   22  0.020  0.002  0.001  0.022
   23  0.012  0.002  0.026  0.039
   24  0.020  0.002  0.001  0.022
   25  0.003  0.000  0.014  0.018
   26  0.003  0.000  0.014  0.018
   27  0.020  0.002  0.001  0.022
   28  0.001  0.000  0.001  0.002
   29  0.000  0.001  0.004  0.004
   30  0.000  0.001  0.004  0.004
   31  0.000  0.001  0.004  0.004
   32  0.000  0.001  0.004  0.004
   33  0.000  0.001  0.004  0.004
   34  0.000  0.001  0.004  0.004
   35  0.005  0.001  0.001  0.006
   36  0.048  0.000  0.027  0.076
   37  0.003  0.062  0.000  0.065
   38  0.033  0.171  0.000  0.204
tot    0.264  0.259  0.253  0.776
 
band     6 # energy   -5.99159149 # occ.  2.00000000
 
ion      s      p      d    tot
    1  0.017  0.000  0.023  0.040
    2  0.020  0.000  0.019  0.040
    3  0.020  0.000  0.019  0.040
    4  0.020  0.000  0.019  0.040
    5  0.015  0.000  0.019  0.035
    6  0.021  0.000  0.019  0.040
    7  0.020  0.000  0.019  0.040
    8  0.021  0.000  0.019  0.040
    9  0.030  0.000  0.016  0.047
   10  0.009  0.001  0.021  0.031
   11  0.014  0.001  0.018  0.033
   12  0.009  0.001  0.021  0.031
   13  0.014  0.001  0.018  0.033
   14  0.014  0.001  0.018  0.033
   15  0.002  0.001  0.023  0.025
   16  0.009  0.001  0.021  0.031
   17  0.002  0.001  0.023  0.025
   18  0.002  0.001  0.023  0.026
   19  0.000  0.001  0.002  0.002
   20  0.002  0.001  0.002  0.005
   21  0.002  0.001  0.002  0.005
   22  0.001  0.001  0.001  0.002
   23  0.002  0.001  0.002  0.005
   24  0.001  0.001  0.001  0.002
   25  0.000  0.001  0.002  0.002
   26  0.000  0.001  0.002  0.002
   27  0.001  0.001  0.001  0.002
   28  0.005  0.000  0.001  0.006
   29  0.004  0.000  0.002  0.005
   30  0.004  0.000  0.002  0.006
   31  0.004  0.000  0.002  0.005
   32  0.004  0.000  0.002  0.006
   33  0.004  0.000  0.002  0.006
   34  0.004  0.000  0.002  0.006
   35  0.005  0.000  0.001  0.006
   36  0.001  0.000  0.001  0.002
   37  0.000  0.001  0.000  0.001
   38  0.000  0.003  0.000  0.003
tot    0.303  0.019  0.386  0.708
 
band     7 # energy   -5.98034489 # occ.  2.00000000
 
ion      s      p      d    tot
    1  0.000  0.001  0.009  0.009
    2  0.003  0.001  0.003  0.007
    3  0.006  0.001  0.003  0.010
    4  0.004  0.001  0.003  0.008
    5  0.000  0.001  0.006  0.007
    6  0.001  0.000  0.003  0.004
    7  0.007  0.001  0.003  0.011
    8  0.000  0.000  0.003  0.003
    9  0.000  0.000  0.001  0.001
   10  0.000  0.000  0.037  0.037
   11  0.034  0.002  0.015  0.051
   12  0.032  0.002  0.011  0.045
   13  0.039  0.001  0.014  0.054
   14  0.000  0.004  0.022  0.026
   15  0.000  0.001  0.010  0.012
   16  0.028  0.002  0.014  0.044
   17  0.000  0.001  0.011  0.012
   18  0.000  0.003  0.006  0.009
   19  0.008  0.001  0.010  0.020
   20  0.000  0.002  0.035  0.037
   21  0.051  0.001  0.015  0.067
   22  0.011  0.001  0.009  0.022
   23  0.044  0.002  0.017  0.063
   24  0.000  0.001  0.025  0.026
   25  0.000  0.004  0.004  0.008
   26  0.010  0.001  0.011  0.022
   27  0.010  0.001  0.011  0.022
   28  0.000  0.000  0.001  0.002
   29  0.000  0.000  0.002  0.003
   30  0.004  0.001  0.003  0.008
   31  0.000  0.000  0.002  0.002
   32  0.005  0.001  0.004  0.010
   33  0.004  0.001  0.003  0.007
   34  0.004  0.001  0.003  0.009
   35  0.000  0.000  0.003  0.004
   36  0.000  0.002  0.010  0.012
   37  0.000  0.000  0.000  0.000
   38  0.000  0.000  0.000  0.000
tot    0.306  0.044  0.346  0.695
 
band     8 # energy   -5.98034249 # occ.  2.00000000
 
ion      s      p      d    tot
    1  0.000  0.001  0.009  0.009
    2  0.004  0.001  0.003  0.007
    3  0.001  0.000  0.003  0.004
    4  0.003  0.001  0.003  0.006
    5  0.000  0.001  0.006  0.007
    6  0.006  0.001  0.003  0.011
    7  0.000  0.000  0.003  0.004
    8  0.006  0.001  0.003  0.011
    9  0.000  0.000  0.001  0.001
   10  0.039  0.002  0.005  0.047
   11  0.015  0.003  0.019  0.037
   12  0.008  0.000  0.030  0.039
   13  0.010  0.003  0.020  0.033
   14  0.049  0.001  0.012  0.061
   15  0.000  0.002  0.008  0.010
   16  0.012  0.001  0.027  0.040
   17  0.000  0.003  0.007  0.010
   18  0.001  0.000  0.012  0.013
   19  0.004  0.003  0.007  0.013
   20  0.063  0.001  0.010  0.075
   21  0.013  0.002  0.030  0.045
   22  0.003  0.001  0.021  0.025
   23  0.019  0.002  0.027  0.048
   24  0.014  0.002  0.005  0.021
   25  0.012  0.000  0.013  0.026
   26  0.002  0.003  0.006  0.011
   27  0.004  0.001  0.019  0.024
   28  0.000  0.000  0.001  0.002
   29  0.006  0.001  0.004  0.011
   30  0.002  0.000  0.003  0.005
   31  0.006  0.001  0.004  0.011
   32  0.001  0.000  0.002  0.004
   33  0.002  0.001  0.003  0.006
   34  0.001  0.000  0.003  0.004
   35  0.000  0.000  0.003  0.004
   36  0.000  0.002  0.010  0.012
   37  0.000  0.000  0.000  0.000
   38  0.000  0.000  0.000  0.000
tot    0.306  0.044  0.346  0.695
 
band     9 # energy   -5.92702343 # occ.  2.00000000
 
ion      s      p      d    tot
    1  0.009  0.001  0.001  0.011
    2  0.000  0.001  0.006  0.006
    3  0.000  0.001  0.006  0.006
    4  0.000  0.001  0.006  0.006
    5  0.014  0.002  0.001  0.017
    6  0.000  0.001  0.006  0.006
    7  0.000  0.001  0.006  0.006
    8  0.000  0.001  0.006  0.006
    9  0.000  0.000  0.001  0.001
   10  0.022  0.003  0.003  0.028
   11  0.021  0.000  0.019  0.040
   12  0.021  0.003  0.003  0.028
   13  0.021  0.000  0.019  0.040
   14  0.021  0.000  0.018  0.039
   15  0.000  0.001  0.022  0.023
   16  0.021  0.003  0.003  0.028
   17  0.000  0.001  0.022  0.023
   18  0.000  0.001  0.022  0.023
   19  0.032  0.002  0.002  0.037
   20  0.001  0.002  0.021  0.024
   21  0.001  0.002  0.021  0.024
   22  0.005  0.000  0.028  0.033
   23  0.001  0.002  0.021  0.024
   24  0.005  0.000  0.028  0.033
   25  0.032  0.002  0.002  0.037
   26  0.032  0.002  0.002  0.037
   27  0.005  0.000  0.028  0.033
   28  0.003  0.001  0.004  0.009
   29  0.002  0.000  0.005  0.008
   30  0.002  0.000  0.005  0.008
   31  0.002  0.000  0.005  0.008
   32  0.002  0.000  0.005  0.008
   33  0.002  0.000  0.005  0.008
   34  0.002  0.000  0.005  0.008
   35  0.012  0.001  0.000  0.013
   36  0.005  0.000  0.003  0.008
   37  0.000  0.000  0.000  0.000
   38  0.000  0.001  0.000  0.002
tot    0.297  0.040  0.361  0.698
 
band    10 # energy   -5.92126925 # occ.  2.00000000
 
ion      s      p      d    tot
    1  0.000  0.001  0.003  0.004
    2  0.004  0.001  0.004  0.009
    3  0.008  0.001  0.004  0.013
    4  0.004  0.001  0.004  0.009
    5  0.000  0.000  0.005  0.005
    6  0.001  0.000  0.003  0.004
    7  0.008  0.001  0.004  0.013
    8  0.001  0.000  0.003  0.004
    9  0.000  0.001  0.011  0.012
   10  0.022  0.000  0.017  0.039
   11  0.003  0.001  0.021  0.025
   12  0.005  0.004  0.006  0.015
   13  0.002  0.001  0.022  0.026
   14  0.011  0.001  0.007  0.019
   15  0.017  0.001  0.032  0.050
   16  0.006  0.003  0.007  0.016
   17  0.015  0.001  0.033  0.050
   18  0.064  0.002  0.006  0.071
   19  0.010  0.001  0.027  0.038
   20  0.000  0.001  0.013  0.014
   21  0.000  0.002  0.010  0.012
   22  0.009  0.003  0.017  0.028
   23  0.000  0.002  0.010  0.012
   24  0.038  0.001  0.011  0.050
   25  0.038  0.002  0.003  0.043
   26  0.009  0.001  0.028  0.037
   27  0.010  0.003  0.016  0.029
   28  0.000  0.000  0.006  0.007
   29  0.000  0.000  0.002  0.002
   30  0.002  0.001  0.002  0.005
   31  0.000  0.000  0.002  0.002
   32  0.005  0.001  0.003  0.008
   33  0.002  0.001  0.002  0.005
   34  0.005  0.001  0.003  0.008
   35  0.000  0.001  0.004  0.005
   36  0.000  0.000  0.001  0.001
   37  0.000  0.001  0.000  0.001
   38  0.000  0.001  0.000  0.001
tot    0.299  0.042  0.352  0.693
 
band    11 # energy   -5.92125303 # occ.  2.00000000
 
ion      s      p      d    tot
    1  0.000  0.001  0.003  0.004
    2  0.005  0.001  0.003  0.009
    3  0.001  0.000  0.004  0.005
    4  0.004  0.001  0.003  0.009
    5  0.000  0.000  0.005  0.005
    6  0.008  0.001  0.004  0.013
    7  0.000  0.000  0.004  0.004
    8  0.008  0.001  0.004  0.013
    9  0.000  0.001  0.011  0.012
   10  0.000  0.005  0.003  0.008
   11  0.008  0.001  0.012  0.021
   12  0.017  0.001  0.013  0.032
   13  0.008  0.001  0.012  0.021
   14  0.000  0.001  0.027  0.028
   15  0.047  0.001  0.016  0.064
   16  0.016  0.001  0.013  0.031
   17  0.049  0.001  0.014  0.065
   18  0.000  0.001  0.042  0.043
   19  0.028  0.002  0.012  0.041
   20  0.000  0.002  0.009  0.011
   21  0.000  0.001  0.012  0.013
   22  0.029  0.001  0.013  0.044
   23  0.000  0.001  0.012  0.013
   24  0.000  0.004  0.018  0.022
   25  0.000  0.000  0.036  0.036
   26  0.029  0.002  0.011  0.041
   27  0.028  0.001  0.013  0.043
   28  0.000  0.000  0.006  0.007
   29  0.004  0.001  0.002  0.008
   30  0.002  0.000  0.002  0.005
   31  0.005  0.001  0.002  0.008
   32  0.000  0.000  0.002  0.002
   33  0.003  0.000  0.002  0.006
   34  0.000  0.000  0.001  0.002
   35  0.000  0.001  0.004  0.005
   36  0.000  0.000  0.001  0.001
   37  0.000  0.001  0.000  0.001
   38  0.000  0.001  0.000  0.001
tot    0.299  0.042  0.352  0.693
 
band    12 # energy   -5.90910076 # occ.  2.00000000
 
ion      s      p      d    tot
    1  0.000  0.000  0.001  0.001
    2  0.000  0.000  0.002  0.002
    3  0.000  0.000  0.002  0.002
    4  0.000  0.000  0.002  0.002
    5  0.004  0.000  0.000  0.005
    6  0.000  0.000  0.002  0.002
    7  0.000  0.000  0.002  0.002
    8  0.000  0.000  0.002  0.002
    9  0.000  0.000  0.002  0.003
   10  0.003  0.000  0.009  0.012
   11  0.002  0.001  0.011  0.014
   12  0.003  0.000  0.009  0.012
   13  0.002  0.001  0.011  0.014
   14  0.002  0.001  0.011  0.014
   15  0.006  0.000  0.009  0.015
   16  0.003  0.000  0.009  0.012
   17  0.006  0.000  0.009  0.015
   18  0.006  0.000  0.009  0.015
   19  0.001  0.000  0.027  0.028
   20  0.017  0.001  0.024  0.043
   21  0.017  0.001  0.024  0.043
   22  0.004  0.000  0.024  0.029
   23  0.017  0.001  0.024  0.043
   24  0.004  0.000  0.024  0.029
   25  0.001  0.000  0.027  0.028
   26  0.001  0.000  0.027  0.028
   27  0.004  0.000  0.024  0.029
   28  0.023  0.000  0.010  0.032
   29  0.016  0.000  0.015  0.031
   30  0.016  0.000  0.015  0.031
   31  0.016  0.000  0.015  0.031
   32  0.016  0.000  0.015  0.031
   33  0.016  0.000  0.015  0.031
   34  0.016  0.000  0.015  0.031
   35  0.014  0.000  0.016  0.029
   36  0.012  0.002  0.008  0.021
   37  0.001  0.004  0.000  0.005
   38  0.002  0.016  0.000  0.018
tot    0.254  0.033  0.453  0.739
 
band    13 # energy   -5.74654075 # occ.  2.00000000
 
ion      s      p      d    tot
    1  0.004  0.000  0.000  0.004
    2  0.000  0.001  0.005  0.006
    3  0.000  0.001  0.005  0.006
    4  0.000  0.001  0.005  0.006
    5  0.006  0.000  0.000  0.007
    6  0.000  0.001  0.005  0.006
    7  0.000  0.001  0.005  0.006
    8  0.000  0.001  0.005  0.006
    9  0.009  0.002  0.003  0.013
   10  0.003  0.000  0.025  0.028
   11  0.004  0.002  0.006  0.012
   12  0.003  0.000  0.025  0.028
   13  0.004  0.002  0.006  0.012
   14  0.004  0.002  0.006  0.012
   15  0.025  0.002  0.007  0.034
   16  0.003  0.000  0.025  0.028
   17  0.025  0.002  0.007  0.034
   18  0.025  0.002  0.007  0.033
   19  0.001  0.001  0.003  0.005
   20  0.001  0.001  0.016  0.018
   21  0.001  0.001  0.016  0.018
   22  0.005  0.002  0.008  0.015
   23  0.001  0.001  0.016  0.018
   24  0.005  0.002  0.008  0.015
   25  0.001  0.001  0.003  0.005
   26  0.001  0.001  0.003  0.005
   27  0.005  0.002  0.008  0.015
   28  0.010  0.000  0.003  0.013
   29  0.004  0.000  0.004  0.009
   30  0.004  0.000  0.004  0.009
   31  0.004  0.000  0.004  0.009
   32  0.004  0.000  0.004  0.009
   33  0.004  0.000  0.004  0.009
   34  0.004  0.000  0.004  0.009
   35  0.004  0.000  0.004  0.008
   36  0.011  0.004  0.070  0.085
   37  0.001  0.074  0.000  0.074
   38  0.018  0.130  0.000  0.148
tot    0.206  0.238  0.331  0.776
 
band    14 # energy   -5.48599929 # occ.  2.00000000
 
ion      s      p      d    tot
    1  0.017  0.002  0.002  0.021
    2  0.000  0.001  0.008  0.009
    3  0.000  0.001  0.008  0.009
    4  0.000  0.001  0.008  0.009
    5  0.000  0.000  0.002  0.002
    6  0.000  0.001  0.008  0.008
    7  0.000  0.001  0.008  0.009
    8  0.000  0.001  0.008  0.008
    9  0.013  0.001  0.000  0.014
   10  0.008  0.001  0.012  0.021
   11  0.005  0.000  0.038  0.043
   12  0.010  0.002  0.011  0.022
   13  0.005  0.000  0.038  0.043
   14  0.003  0.000  0.040  0.043
   15  0.001  0.001  0.028  0.030
   16  0.010  0.002  0.011  0.022
   17  0.001  0.001  0.028  0.030
   18  0.002  0.001  0.032  0.035
   19  0.006  0.001  0.007  0.014
   20  0.000  0.000  0.048  0.049
   21  0.000  0.000  0.047  0.047
   22  0.012  0.001  0.027  0.039
   23  0.000  0.000  0.047  0.047
   24  0.010  0.001  0.024  0.036
   25  0.007  0.001  0.009  0.017
   26  0.006  0.001  0.007  0.014
   27  0.012  0.001  0.027  0.039
   28  0.014  0.001  0.000  0.016
   29  0.000  0.001  0.006  0.007
   30  0.000  0.001  0.006  0.007
   31  0.000  0.001  0.006  0.007
   32  0.000  0.000  0.006  0.007
   33  0.000  0.001  0.006  0.007
   34  0.000  0.000  0.006  0.007
   35  0.005  0.001  0.003  0.009
   36  0.001  0.000  0.003  0.004
   37  0.000  0.000  0.000  0.000
   38  0.000  0.000  0.000  0.000
tot    0.149  0.029  0.576  0.754
 
band    15 # energy   -5.48554973 # occ.  2.00000000
 
ion      s      p      d    tot
    1  0.000  0.001  0.004  0.005
    2  0.001  0.001  0.005  0.006
    3  0.009  0.001  0.005  0.015
    4  0.001  0.001  0.005  0.006
    5  0.000  0.001  0.011  0.012
    6  0.005  0.001  0.004  0.010
    7  0.009  0.001  0.005  0.015
    8  0.005  0.001  0.004  0.010
    9  0.000  0.000  0.009  0.009
   10  0.000  0.001  0.051  0.052
   11  0.016  0.001  0.021  0.038
   12  0.007  0.002  0.020  0.028
   13  0.016  0.001  0.021  0.038
   14  0.000  0.000  0.051  0.051
   15  0.001  0.000  0.020  0.022
   16  0.007  0.002  0.020  0.028
   17  0.001  0.000  0.020  0.022
   18  0.000  0.001  0.012  0.013
   19  0.005  0.000  0.018  0.023
   20  0.000  0.000  0.073  0.073
   21  0.017  0.001  0.022  0.040
   22  0.003  0.001  0.018  0.023
   23  0.017  0.001  0.022  0.040
   24  0.000  0.001  0.035  0.036
   25  0.000  0.001  0.010  0.011
   26  0.005  0.000  0.018  0.023
   27  0.003  0.001  0.018  0.023
   28  0.000  0.000  0.007  0.007
   29  0.002  0.001  0.004  0.007
   30  0.008  0.001  0.005  0.014
   31  0.002  0.001  0.004  0.007
   32  0.002  0.001  0.004  0.006
   33  0.008  0.001  0.005  0.014
   34  0.002  0.001  0.004  0.006
   35  0.000  0.000  0.002  0.003
   36  0.000  0.002  0.010  0.012
   37  0.000  0.001  0.000  0.001
   38  0.000  0.001  0.000  0.001
tot    0.152  0.032  0.567  0.751
 
band    16 # energy   -5.48554149 # occ.  2.00000000
 
ion      s      p      d    tot
    1  0.000  0.001  0.004  0.005
    2  0.009  0.001  0.004  0.014
    3  0.001  0.000  0.004  0.006
    4  0.009  0.001  0.004  0.014
    5  0.000  0.001  0.011  0.012
    6  0.005  0.001  0.006  0.012
    7  0.001  0.000  0.004  0.005
    8  0.005  0.001  0.006  0.012
    9  0.000  0.000  0.009  0.009
   10  0.010  0.002  0.009  0.021
   11  0.005  0.000  0.042  0.047
   12  0.002  0.001  0.041  0.043
   13  0.005  0.000  0.042  0.047
   14  0.023  0.001  0.009  0.033
   15  0.001  0.001  0.016  0.018
   16  0.002  0.001  0.041  0.043
   17  0.001  0.001  0.016  0.018
   18  0.002  0.000  0.020  0.022
   19  0.002  0.001  0.013  0.016
   20  0.023  0.001  0.004  0.029
   21  0.005  0.000  0.057  0.062
   22  0.001  0.001  0.029  0.030
   23  0.005  0.000  0.057  0.063
   24  0.005  0.001  0.014  0.021
   25  0.005  0.000  0.020  0.025
   26  0.002  0.001  0.013  0.016
   27  0.001  0.001  0.029  0.030
   28  0.000  0.000  0.007  0.007
   29  0.006  0.001  0.004  0.011
   30  0.000  0.000  0.003  0.004
   31  0.006  0.001  0.004  0.011
   32  0.006  0.001  0.004  0.012
   33  0.000  0.000  0.003  0.004
   34  0.006  0.001  0.004  0.011
   35  0.000  0.000  0.002  0.003
   36  0.000  0.002  0.010  0.012
   37  0.000  0.001  0.000  0.001
   38  0.000  0.001  0.000  0.001
tot    0.152  0.032  0.567  0.751
 
band    17 # energy   -5.43694251 # occ.  2.00000000
 
ion      s      p      d    tot
    1  0.000  0.001  0.015  0.015
    2  0.010  0.001  0.004  0.015
    3  0.001  0.000  0.005  0.007
    4  0.010  0.001  0.004  0.015
    5  0.000  0.000  0.005  0.006
    6  0.004  0.001  0.005  0.010
    7  0.001  0.000  0.005  0.007
    8  0.004  0.001  0.005  0.010
    9  0.000  0.001  0.006  0.008
   10  0.000  0.001  0.031  0.032
   11  0.000  0.001  0.019  0.021
   12  0.008  0.000  0.022  0.030
   13  0.000  0.001  0.019  0.021
   14  0.000  0.001  0.018  0.019
   15  0.011  0.002  0.020  0.033
   16  0.008  0.000  0.022  0.030
   17  0.011  0.002  0.020  0.032
   18  0.000  0.000  0.062  0.062
   19  0.014  0.001  0.020  0.035
   20  0.000  0.002  0.019  0.021
   21  0.000  0.001  0.023  0.023
   22  0.017  0.001  0.021  0.038
   23  0.000  0.001  0.023  0.023
   24  0.000  0.001  0.032  0.032
   25  0.000  0.000  0.067  0.067
   26  0.014  0.001  0.020  0.035
   27  0.017  0.001  0.021  0.038
   28  0.000  0.001  0.005  0.006
   29  0.005  0.001  0.004  0.010
   30  0.000  0.000  0.005  0.005
   31  0.005  0.001  0.004  0.010
   32  0.005  0.001  0.003  0.008
   33  0.000  0.000  0.005  0.005
   34  0.005  0.001  0.003  0.008
   35  0.000  0.001  0.008  0.009
   36  0.000  0.000  0.002  0.002
   37  0.000  0.000  0.000  0.000
   38  0.000  0.000  0.000  0.000
tot    0.150  0.029  0.571  0.750
 
band    18 # energy   -5.43691824 # occ.  2.00000000
 
ion      s      p      d    tot
    1  0.000  0.001  0.015  0.015
    2  0.000  0.000  0.005  0.006
    3  0.009  0.001  0.005  0.015
    4  0.000  0.000  0.005  0.006
    5  0.000  0.000  0.005  0.006
    6  0.006  0.001  0.004  0.011
    7  0.009  0.001  0.005  0.015
    8  0.006  0.001  0.004  0.011
    9  0.000  0.001  0.006  0.008
   10  0.010  0.000  0.019  0.029
   11  0.000  0.001  0.018  0.019
   12  0.003  0.001  0.028  0.031
   13  0.000  0.001  0.018  0.019
   14  0.001  0.001  0.020  0.021
   15  0.004  0.001  0.048  0.052
   16  0.003  0.001  0.028  0.031
   17  0.003  0.001  0.048  0.052
   18  0.014  0.002  0.006  0.023
   19  0.005  0.001  0.051  0.056
   20  0.000  0.000  0.024  0.024
   21  0.000  0.001  0.020  0.022
   22  0.006  0.001  0.028  0.034
   23  0.000  0.001  0.020  0.022
   24  0.023  0.001  0.017  0.041
   25  0.019  0.001  0.004  0.025
   26  0.005  0.001  0.051  0.056
   27  0.006  0.001  0.028  0.034
   28  0.000  0.001  0.005  0.006
   29  0.001  0.000  0.004  0.005
   30  0.007  0.001  0.003  0.010
   31  0.001  0.000  0.004  0.005
   32  0.002  0.001  0.005  0.007
   33  0.007  0.001  0.003  0.010
   34  0.002  0.001  0.005  0.007
   35  0.000  0.001  0.008  0.009
   36  0.000  0.000  0.002  0.002
   37  0.000  0.000  0.000  0.000
   38  0.000  0.000  0.000  0.000
tot    0.150  0.029  0.571  0.750
 
band    19 # energy   -5.36222079 # occ.  2.00000000
 
ion      s      p      d    tot
    1  0.008  0.000  0.001  0.009
    2  0.000  0.000  0.009  0.009
    3  0.000  0.000  0.009  0.009
    4  0.000  0.000  0.009  0.009
    5  0.017  0.002  0.001  0.019
    6  0.000  0.000  0.009  0.009
    7  0.000  0.000  0.009  0.009
    8  0.000  0.000  0.009  0.009
    9  0.002  0.000  0.002  0.004
   10  0.000  0.000  0.035  0.035
   11  0.003  0.001  0.023  0.027
   12  0.000  0.000  0.035  0.035
   13  0.003  0.001  0.023  0.027
   14  0.003  0.001  0.023  0.027
   15  0.003  0.001  0.017  0.021
   16  0.000  0.000  0.035  0.035
   17  0.003  0.001  0.017  0.021
   18  0.003  0.001  0.017  0.021
   19  0.004  0.000  0.045  0.049
   20  0.012  0.000  0.005  0.017
   21  0.012  0.000  0.005  0.017
   22  0.002  0.000  0.025  0.027
   23  0.012  0.000  0.005  0.017
   24  0.002  0.000  0.025  0.027
   25  0.004  0.000  0.045  0.049
   26  0.004  0.000  0.045  0.049
   27  0.002  0.000  0.025  0.027
   28  0.001  0.000  0.006  0.006
   29  0.001  0.000  0.007  0.008
   30  0.001  0.000  0.007  0.008
   31  0.001  0.000  0.007  0.008
   32  0.001  0.000  0.007  0.008
   33  0.001  0.000  0.007  0.008
   34  0.001  0.000  0.007  0.008
   35  0.003  0.001  0.000  0.004
   36  0.000  0.011  0.025  0.036
   37  0.002  0.032  0.000  0.033
   38  0.004  0.044  0.000  0.048
tot    0.110  0.105  0.576  0.790
 
band    20 # energy   -5.26174087 # occ.  2.00000000
 
ion      s      p      d    tot
    1  0.000  0.000  0.000  0.000
    2  0.000  0.000  0.000  0.001
    3  0.000  0.000  0.000  0.001
    4  0.000  0.000  0.000  0.001
    5  0.000  0.000  0.000  0.000
    6  0.000  0.000  0.000  0.000
    7  0.000  0.000  0.000  0.001
    8  0.000  0.000  0.000  0.000
    9  0.000  0.000  0.001  0.001
   10  0.000  0.000  0.003  0.003
   11  0.000  0.000  0.001  0.001
   12  0.000  0.000  0.001  0.001
   13  0.000  0.000  0.001  0.001
   14  0.000  0.000  0.000  0.001
   15  0.000  0.000  0.002  0.002
   16  0.000  0.000  0.001  0.001
   17  0.000  0.000  0.002  0.002
   18  0.002  0.000  0.000  0.002
   19  0.000  0.000  0.004  0.004
   20  0.000  0.000  0.008  0.008
   21  0.000  0.000  0.002  0.002
   22  0.000  0.000  0.001  0.001
   23  0.000  0.000  0.002  0.002
   24  0.000  0.000  0.000  0.000
   25  0.001  0.000  0.000  0.001
   26  0.000  0.000  0.004  0.004
   27  0.000  0.000  0.001  0.001
   28  0.000  0.000  0.005  0.006
   29  0.008  0.001  0.006  0.015
   30  0.000  0.000  0.004  0.005
   31  0.008  0.001  0.006  0.015
   32  0.006  0.001  0.005  0.012
   33  0.000  0.000  0.004  0.005
   34  0.006  0.001  0.005  0.012
   35  0.000  0.000  0.006  0.006
   36  0.000  0.006  0.055  0.061
   37  0.000  0.163  0.000  0.163
   38  0.000  0.331  0.000  0.331
tot    0.034  0.506  0.135  0.676
 
band    21 # energy   -5.26166061 # occ.  2.00000000
 
ion      s      p      d    tot
    1  0.000  0.000  0.000  0.000
    2  0.000  0.000  0.000  0.001
    3  0.000  0.000  0.000  0.000
    4  0.000  0.000  0.000  0.001
    5  0.000  0.000  0.000  0.000
    6  0.000  0.000  0.000  0.001
    7  0.000  0.000  0.000  0.000
    8  0.000  0.000  0.000  0.001
    9  0.000  0.000  0.001  0.001
   10  0.000  0.000  0.001  0.001
   11  0.000  0.000  0.001  0.001
   12  0.000  0.000  0.002  0.003
   13  0.000  0.000  0.001  0.001
   14  0.000  0.000  0.001  0.001
   15  0.001  0.000  0.001  0.002
   16  0.000  0.000  0.002  0.003