PROCAR new format
# of k-points:   10         # of bands:  252         # of ions:   38

 k-point     1 :    0.00000000 0.00000000 0.00000000     weight = 0.01562500

band     1 # energy  -20.46381562 # occ.  2.00000000
 
ion      s      p      d    tot
    1  0.000  0.000  0.000  0.000
    2  0.000  0.000  0.000  0.000
    3  0.000  0.000  0.000  0.000
    4  0.000  0.000  0.000  0.000
    5  0.000  0.000  0.000  0.000
    6  0.000  0.000  0.000  0.000
    7  0.000  0.000  0.000  0.000
    8  0.000  0.000  0.000  0.000
    9  0.000  0.000  0.000  0.000
   10  0.000  0.000  0.000  0.000
   11  0.000  0.000  0.000  0.000
   12  0.000  0.000  0.000  0.000
   13  0.000  0.000  0.000  0.000
   14  0.000  0.000  0.000  0.000
   15  0.000  0.000  0.000  0.000
   16  0.000  0.000  0.000  0.000
   17  0.000  0.000  0.000  0.000
   18  0.000  0.000  0.000  0.000
   19  0.000  0.000  0.000  0.000
   20  0.000  0.000  0.000  0.000
   21  0.000  0.000  0.000  0.000
   22  0.000  0.000  0.000  0.000
   23  0.000  0.000  0.000  0.000
   24  0.000  0.000  0.000  0.000
   25  0.000  0.000  0.000  0.000
   26  0.000  0.000  0.000  0.000
   27  0.000  0.000  0.000  0.000
   28  0.000  0.000  0.000  0.000
   29  0.000  0.000  0.000  0.000
   30  0.000  0.000  0.000  0.000
   31  0.000  0.000  0.000  0.000
   32  0.000  0.000  0.000  0.000
   33  0.000  0.000  0.000  0.000
   34  0.000  0.000  0.000  0.000
   35  0.000  0.000  0.000  0.000
   36  0.014  0.017  0.033  0.064
   37  0.746  0.013  0.000  0.759
   38  0.113  0.023  0.000  0.136
tot    0.874  0.053  0.034  0.960
 
band     2 # energy   -9.23162415 # occ.  2.00000000
 
ion      s      p      d    tot
    1  0.000  0.000  0.000  0.000
    2  0.000  0.000  0.000  0.000
    3  0.000  0.000  0.000  0.000
    4  0.000  0.000  0.000  0.000
    5  0.000  0.000  0.000  0.000
    6  0.000  0.000  0.000  0.000
    7  0.000  0.000  0.000  0.000
    8  0.000  0.000  0.000  0.000
    9  0.000  0.000  0.000  0.000
   10  0.000  0.000  0.000  0.000
   11  0.001  0.000  0.000  0.001
   12  0.000  0.000  0.000  0.000
   13  0.001  0.000  0.000  0.001
   14  0.001  0.000  0.000  0.001
   15  0.000  0.000  0.000  0.000
   16  0.000  0.000  0.000  0.000
   17  0.000  0.000  0.000  0.000
   18  0.000  0.000  0.000  0.000
   19  0.001  0.000  0.000  0.001
   20  0.005  0.001  0.001  0.007
   21  0.005  0.001  0.001  0.007
   22  0.001  0.000  0.000  0.001
   23  0.005  0.001  0.001  0.007
   24  0.001  0.000  0.000  0.001
   25  0.001  0.000  0.000  0.001
   26  0.001  0.000  0.000  0.001
   27  0.001  0.000  0.000  0.001
   28  0.000  0.000  0.000  0.000
   29  0.001  0.000  0.000  0.001
   30  0.001  0.000  0.000  0.001
   31  0.001  0.000  0.000  0.001
   32  0.001  0.000  0.000  0.001
   33  0.001  0.000  0.000  0.001
   34  0.001  0.000  0.000  0.001
   35  0.000  0.000  0.000  0.000
   36  0.089  0.030  0.144  0.263
   37  0.018  0.503  0.000  0.521
   38  0.167  0.018  0.000  0.186
tot    0.306  0.555  0.147  1.008
 
band     3 # energy   -8.33106210 # occ.  2.00000000
 
ion      s      p      d    tot
    1  0.007  0.001  0.000  0.007
    2  0.007  0.001  0.000  0.007
    3  0.007  0.001  0.000  0.007
    4  0.007  0.001  0.000  0.007
    5  0.007  0.001  0.000  0.007
    6  0.007  0.001  0.000  0.007
    7  0.007  0.001  0.000  0.007
    8  0.007  0.001  0.000  0.007
    9  0.007  0.001  0.000  0.007
   10  0.024  0.000  0.000  0.024
   11  0.024  0.000  0.000  0.024
   12  0.024  0.000  0.000  0.024
   13  0.024  0.000  0.000  0.024
   14  0.024  0.000  0.000  0.024
   15  0.024  0.000  0.000  0.024
   16  0.024  0.000  0.000  0.024
   17  0.024  0.000  0.000  0.024
   18  0.024  0.000  0.000  0.024
   19  0.023  0.000  0.000  0.023
   20  0.022  0.000  0.000  0.023
   21  0.022  0.000  0.000  0.023
   22  0.023  0.000  0.000  0.023
   23  0.022  0.000  0.000  0.023
   24  0.023  0.000  0.000  0.023
   25  0.023  0.000  0.000  0.023
   26  0.023  0.000  0.000  0.023
   27  0.023  0.000  0.000  0.023
   28  0.006  0.001  0.000  0.007
   29  0.006  0.001  0.000  0.007
   30  0.006  0.001  0.000  0.007
   31  0.006  0.001  0.000  0.007
   32  0.006  0.001  0.000  0.007
   33  0.006  0.001  0.000  0.007
   34  0.006  0.001  0.000  0.007
   35  0.006  0.001  0.000  0.007
   36  0.003  0.008  0.011  0.022
   37  0.002  0.027  0.000  0.029
   38  0.008  0.001  0.000  0.009
tot    0.542  0.051  0.013  0.605
 
band     4 # energy   -7.10041372 # occ.  2.00000000
 
ion      s      p      d    tot
    1  0.017  0.001  0.000  0.018
    2  0.017  0.001  0.000  0.018
    3  0.017  0.001  0.000  0.018
    4  0.017  0.001  0.000  0.018
    5  0.017  0.001  0.000  0.018
    6  0.017  0.001  0.000  0.018
    7  0.017  0.001  0.000  0.018
    8  0.017  0.001  0.000  0.018
    9  0.017  0.001  0.000  0.018
   10  0.010  0.002  0.001  0.013
   11  0.010  0.002  0.001  0.013
   12  0.010  0.002  0.001  0.013
   13  0.010  0.002  0.001  0.013
   14  0.010  0.002  0.001  0.013
   15  0.010  0.002  0.001  0.013
   16  0.010  0.002  0.001  0.013
   17  0.010  0.002  0.001  0.013
   18  0.010  0.002  0.001  0.013
   19  0.009  0.002  0.000  0.011
   20  0.008  0.002  0.000  0.011
   21  0.008  0.002  0.000  0.011
   22  0.009  0.002  0.000  0.012
   23  0.008  0.002  0.000  0.011
   24  0.009  0.002  0.000  0.012
   25  0.009  0.002  0.000  0.011
   26  0.009  0.002  0.000  0.011
   27  0.009  0.002  0.000  0.012
   28  0.018  0.001  0.001  0.020
   29  0.020  0.001  0.001  0.021
   30  0.020  0.001  0.001  0.021
   31  0.020  0.001  0.001  0.021
   32  0.020  0.001  0.001  0.021
   33  0.020  0.001  0.001  0.021
   34  0.020  0.001  0.001  0.021
   35  0.018  0.001  0.001  0.019
   36  0.025  0.004  0.015  0.045
   37  0.001  0.007  0.000  0.008
   38  0.002  0.000  0.000  0.002
tot    0.505  0.062  0.034  0.602
 
band     5 # energy   -5.55856856 # occ.  2.00000000
 
ion      s      p      d    tot
    1  0.015  0.000  0.005  0.020
    2  0.016  0.000  0.005  0.021
    3  0.016  0.000  0.005  0.021
    4  0.016  0.000  0.005  0.021
    5  0.013  0.000  0.005  0.019
    6  0.016  0.000  0.005  0.021
    7  0.016  0.000  0.005  0.021
    8  0.016  0.000  0.005  0.021
    9  0.020  0.000  0.004  0.024
   10  0.003  0.004  0.001  0.008
   11  0.004  0.004  0.001  0.009
   12  0.003  0.004  0.001  0.008
   13  0.004  0.004  0.001  0.009
   14  0.004  0.004  0.001  0.009
   15  0.001  0.003  0.002  0.006
   16  0.003  0.004  0.001  0.008
   17  0.001  0.003  0.002  0.006
   18  0.001  0.003  0.002  0.006
   19  0.006  0.003  0.004  0.013
   20  0.011  0.003  0.007  0.021
   21  0.011  0.003  0.007  0.021
   22  0.003  0.003  0.004  0.009
   23  0.011  0.003  0.007  0.021
   24  0.003  0.003  0.004  0.009
   25  0.006  0.003  0.004  0.013
   26  0.006  0.003  0.004  0.013
   27  0.003  0.003  0.004  0.009
   28  0.013  0.000  0.007  0.020
   29  0.018  0.000  0.009  0.027
   30  0.018  0.000  0.009  0.027
   31  0.018  0.000  0.009  0.027
   32  0.018  0.000  0.009  0.027
   33  0.018  0.000  0.009  0.027
   34  0.018  0.000  0.009  0.027
   35  0.017  0.000  0.006  0.023
   36  0.024  0.001  0.032  0.058
   37  0.000  0.000  0.000  0.000
   38  0.000  0.000  0.000  0.000
tot    0.392  0.062  0.195  0.649
 
band     6 # energy   -5.43565797 # occ.  2.00000000
 
ion      s      p      d    tot
    1  0.000  0.002  0.004  0.006
    2  0.008  0.002  0.002  0.011
    3  0.001  0.001  0.002  0.004
    4  0.008  0.002  0.002  0.012
    5  0.000  0.002  0.003  0.005
    6  0.004  0.001  0.002  0.007
    7  0.001  0.001  0.002  0.003
    8  0.003  0.001  0.002  0.006
    9  0.000  0.000  0.002  0.002
   10  0.051  0.005  0.003  0.059
   11  0.006  0.009  0.005  0.020
   12  0.015  0.002  0.010  0.027
   13  0.008  0.008  0.005  0.021
   14  0.028  0.001  0.006  0.034
   15  0.001  0.005  0.006  0.011
   16  0.011  0.002  0.011  0.023
   17  0.001  0.004  0.006  0.011
   18  0.003  0.002  0.003  0.008
   19  0.005  0.010  0.003  0.018
   20  0.072  0.003  0.009  0.084
   21  0.021  0.003  0.016  0.040
   22  0.003  0.004  0.008  0.015
   23  0.015  0.003  0.017  0.035
   24  0.009  0.003  0.003  0.015
   25  0.022  0.000  0.006  0.029
   26  0.007  0.009  0.003  0.019
   27  0.002  0.004  0.009  0.015
   28  0.000  0.002  0.003  0.005
   29  0.010  0.003  0.004  0.017
   30  0.004  0.001  0.003  0.008
   31  0.010  0.003  0.005  0.017
   32  0.002  0.001  0.005  0.008
   33  0.003  0.001  0.003  0.007
   34  0.001  0.001  0.004  0.007
   35  0.000  0.000  0.003  0.003
   36  0.000  0.005  0.034  0.039
   37  0.000  0.008  0.000  0.008
   38  0.000  0.000  0.000  0.000
tot    0.331  0.116  0.211  0.658
 
band     7 # energy   -5.43545458 # occ.  2.00000000
 
ion      s      p      d    tot
    1  0.000  0.002  0.004  0.006
    2  0.000  0.001  0.002  0.003
    3  0.007  0.002  0.002  0.010
    4  0.000  0.001  0.002  0.002
    5  0.000  0.002  0.003  0.005
    6  0.004  0.001  0.002  0.007
    7  0.007  0.002  0.002  0.011
    8  0.005  0.001  0.002  0.008
    9  0.000  0.000  0.002  0.002
   10  0.000  0.001  0.013  0.014
   11  0.022  0.003  0.006  0.031
   12  0.036  0.004  0.006  0.046
   13  0.020  0.004  0.005  0.029
   14  0.000  0.012  0.004  0.016
   15  0.003  0.003  0.004  0.009
   16  0.041  0.004  0.005  0.050
   17  0.002  0.003  0.004  0.009
   18  0.000  0.005  0.007  0.012
   19  0.017  0.003  0.006  0.026
   20  0.000  0.003  0.019  0.022
   21  0.051  0.003  0.012  0.066
   22  0.006  0.004  0.005  0.015
   23  0.057  0.003  0.011  0.071
   24  0.000  0.004  0.010  0.014
   25  0.000  0.013  0.002  0.015
   26  0.015  0.004  0.005  0.025
   27  0.007  0.003  0.004  0.015
   28  0.000  0.002  0.003  0.005
   29  0.000  0.001  0.003  0.004
   30  0.006  0.002  0.005  0.013
   31  0.000  0.001  0.003  0.004
   32  0.008  0.002  0.003  0.013
   33  0.007  0.003  0.005  0.015
   34  0.009  0.003  0.003  0.014
   35  0.000  0.000  0.003  0.003
   36  0.000  0.005  0.034  0.039
   37  0.000  0.008  0.000  0.008
   38  0.000  0.000  0.000  0.000
tot    0.331  0.116  0.211  0.658
 
band     8 # energy   -5.35201700 # occ.  2.00000000
 
ion      s      p      d    tot
    1  0.006  0.001  0.000  0.007
    2  0.000  0.002  0.004  0.006
    3  0.000  0.002  0.004  0.006
    4  0.000  0.002  0.004  0.006
    5  0.023  0.003  0.001  0.027
    6  0.000  0.002  0.004  0.006
    7  0.000  0.002  0.004  0.006
    8  0.000  0.002  0.004  0.006
    9  0.003  0.001  0.001  0.004
   10  0.009  0.007  0.005  0.021
   11  0.031  0.007  0.005  0.043
   12  0.008  0.007  0.005  0.020
   13  0.031  0.007  0.005  0.042
   14  0.029  0.007  0.005  0.041
   15  0.010  0.000  0.012  0.021
   16  0.008  0.007  0.004  0.020
   17  0.009  0.000  0.012  0.021
   18  0.008  0.000  0.012  0.020
   19  0.022  0.001  0.010  0.033
   20  0.024  0.009  0.003  0.037
   21  0.024  0.009  0.003  0.036
   22  0.001  0.004  0.008  0.012
   23  0.024  0.009  0.003  0.036
   24  0.001  0.004  0.008  0.013
   25  0.020  0.001  0.010  0.031
   26  0.021  0.001  0.010  0.032
   27  0.001  0.004  0.008  0.012
   28  0.009  0.002  0.001  0.012
   29  0.000  0.002  0.005  0.007
   30  0.000  0.002  0.005  0.007
   31  0.000  0.002  0.005  0.007
   32  0.000  0.002  0.005  0.007
   33  0.000  0.002  0.005  0.007
   34  0.000  0.002  0.005  0.007
   35  0.001  0.000  0.000  0.001
   36  0.025  0.010  0.001  0.037
   37  0.001  0.004  0.000  0.005
   38  0.001  0.000  0.000  0.001
tot    0.350  0.127  0.183  0.660
 
band     9 # energy   -5.34907084 # occ.  2.00000000
 
ion      s      p      d    tot
    1  0.000  0.001  0.002  0.003
    2  0.009  0.002  0.002  0.013
    3  0.002  0.001  0.002  0.005
    4  0.009  0.002  0.002  0.014
    5  0.000  0.001  0.004  0.005
    6  0.004  0.002  0.002  0.008
    7  0.001  0.001  0.002  0.004
    8  0.003  0.001  0.002  0.006
    9  0.000  0.003  0.005  0.008
   10  0.000  0.012  0.002  0.014
   11  0.023  0.004  0.004  0.031
   12  0.003  0.004  0.004  0.011
   13  0.020  0.003  0.006  0.029
   14  0.000  0.001  0.014  0.015
   15  0.044  0.003  0.006  0.053
   16  0.003  0.002  0.005  0.011
   17  0.036  0.004  0.006  0.046
   18  0.000  0.007  0.009  0.017
   19  0.033  0.004  0.005  0.041
   20  0.000  0.013  0.002  0.015
   21  0.001  0.005  0.005  0.010
   22  0.036  0.004  0.006  0.046
   23  0.001  0.003  0.005  0.009
   24  0.000  0.009  0.007  0.017
   25  0.000  0.000  0.017  0.017
   26  0.027  0.003  0.007  0.037
   27  0.044  0.003  0.006  0.053
   28  0.000  0.002  0.005  0.007
   29  0.013  0.003  0.003  0.019
   30  0.003  0.002  0.004  0.009
   31  0.013  0.003  0.003  0.019
   32  0.005  0.001  0.003  0.010
   33  0.002  0.002  0.004  0.007
   34  0.003  0.001  0.003  0.007
   35  0.000  0.004  0.005  0.009
   36  0.000  0.001  0.011  0.013
   37  0.000  0.000  0.000  0.000
   38  0.000  0.000  0.000  0.000
tot    0.340  0.115  0.182  0.638
 
band    10 # energy   -5.34884438 # occ.  2.00000000
 
ion      s      p      d    tot
    1  0.000  0.001  0.002  0.003
    2  0.001  0.001  0.002  0.003
    3  0.007  0.002  0.002  0.012
    4  0.000  0.001  0.002  0.003
    5  0.000  0.001  0.004  0.005
    6  0.005  0.002  0.002  0.008
    7  0.009  0.002  0.002  0.013
    8  0.006  0.002  0.002  0.010
    9  0.000  0.003  0.005  0.008
   10  0.004  0.000  0.005  0.010
   11  0.005  0.001  0.012  0.018
   12  0.001  0.008  0.003  0.013
   13  0.009  0.002  0.010  0.021
   14  0.030  0.004  0.002  0.036
   15  0.009  0.006  0.009  0.024
   16  0.001  0.010  0.003  0.013
   17  0.017  0.005  0.008  0.030
   18  0.054  0.003  0.005  0.062
   19  0.007  0.001  0.014  0.022
   20  0.001  0.001  0.006  0.008
   21  0.000  0.009  0.003  0.013
   22  0.018  0.007  0.007  0.031
   23  0.000  0.011  0.003  0.014
   24  0.053  0.002  0.005  0.060
   25  0.041  0.004  0.002  0.048
   26  0.013  0.002  0.012  0.026
   27  0.010  0.008  0.007  0.024
   28  0.000  0.002  0.005  0.007
   29  0.000  0.001  0.004  0.005
   30  0.010  0.002  0.003  0.015
   31  0.000  0.001  0.004  0.005
   32  0.008  0.003  0.004  0.014
   33  0.012  0.002  0.003  0.017
   34  0.010  0.003  0.004  0.016
   35  0.000  0.004  0.005  0.009
   36  0.000  0.001  0.011  0.013
   37  0.000  0.000  0.000  0.000
   38  0.000  0.000  0.000  0.000
tot    0.340  0.115  0.182  0.638
 
band    11 # energy   -5.33398791 # occ.  2.00000000
 
ion      s      p      d    tot
    1  0.018  0.002  0.001  0.020
    2  0.000  0.002  0.004  0.006
    3  0.000  0.002  0.004  0.006
    4  0.000  0.002  0.004  0.006
    5  0.001  0.000  0.000  0.001
    6  0.000  0.002  0.004  0.006
    7  0.000  0.002  0.004  0.006
    8  0.000  0.002  0.004  0.006
    9  0.014  0.003  0.001  0.018
   10  0.022  0.002  0.010  0.034
   11  0.000  0.002  0.009  0.012
   12  0.022  0.002  0.010  0.034
   13  0.000  0.002  0.009  0.012
   14  0.000  0.002  0.009  0.012
   15  0.025  0.009  0.001  0.035
   16  0.022  0.002  0.010  0.034
   17  0.025  0.009  0.001  0.036
   18  0.025  0.009  0.001  0.035
   19  0.010  0.008  0.004  0.021
   20  0.003  0.000  0.014  0.018
   21  0.003  0.000  0.014  0.018
   22  0.033  0.005  0.005  0.043
   23  0.003  0.000  0.014  0.018
   24  0.033  0.005  0.005  0.043
   25  0.010  0.008  0.004  0.021
   26  0.010  0.008  0.004  0.021
   27  0.033  0.005  0.005  0.043
   28  0.013  0.001  0.000  0.014
   29  0.000  0.002  0.004  0.006
   30  0.000  0.002  0.004  0.006
   31  0.000  0.002  0.004  0.006
   32  0.000  0.002  0.004  0.006
   33  0.000  0.002  0.004  0.006
   34  0.000  0.002  0.004  0.006
   35  0.015  0.003  0.002  0.020
   36  0.003  0.001  0.000  0.004
   37  0.000  0.001  0.000  0.001
   38  0.000  0.000  0.000  0.000
tot    0.343  0.114  0.185  0.642
 
band    12 # energy   -4.78224212 # occ.  2.00000000
 
ion      s      p      d    tot
    1  0.000  0.000  0.002  0.002
    2  0.002  0.001  0.001  0.004
    3  0.000  0.000  0.001  0.002
    4  0.002  0.001  0.001  0.004
    5  0.000  0.001  0.002  0.003
    6  0.004  0.001  0.001  0.006
    7  0.000  0.000  0.001  0.002
    8  0.004  0.001  0.001  0.006
    9  0.000  0.001  0.002  0.003
   10  0.003  0.000  0.001  0.004
   11  0.002  0.000  0.004  0.006
   12  0.001  0.000  0.004  0.005
   13  0.002  0.000  0.004  0.006
   14  0.009  0.001  0.001  0.011
   15  0.000  0.001  0.002  0.004
   16  0.001  0.000  0.004  0.005
   17  0.000  0.001  0.002  0.004
   18  0.002  0.000  0.002  0.004
   19  0.000  0.000  0.001  0.001
   20  0.001  0.002  0.006  0.009
   21  0.000  0.001  0.017  0.018
   22  0.000  0.000  0.003  0.003
   23  0.000  0.001  0.017  0.018
   24  0.001  0.001  0.003  0.005
   25  0.001  0.000  0.002  0.003
   26  0.000  0.000  0.001  0.001
   27  0.000  0.000  0.003  0.003
   28  0.000  0.001  0.000  0.001
   29  0.003  0.001  0.012  0.016
   30  0.003  0.000  0.003  0.006
   31  0.003  0.001  0.011  0.016
   32  0.000  0.002  0.009  0.012
   33  0.003  0.000  0.003  0.006
   34  0.000  0.002  0.010  0.012
   35  0.000  0.000  0.002  0.002
   36  0.000  0.005  0.158  0.163
   37  0.000  0.355  0.000  0.355
   38  0.000  0.005  0.000  0.005
tot    0.050  0.392  0.295  0.737
 
band    13 # energy   -4.78218109 # occ.  2.00000000
 
ion      s      p      d    tot
    1  0.000  0.000  0.002  0.002
    2  0.002  0.001  0.001  0.004
    3  0.004  0.001  0.001  0.006
    4  0.002  0.001  0.001  0.004
    5  0.000  0.001  0.002  0.003
    6  0.000  0.000  0.001  0.002
    7  0.004  0.001  0.001  0.006
    8  0.000  0.000  0.001  0.002
    9  0.000  0.001  0.002  0.003
   10  0.000  0.000  0.005  0.006
   11  0.007  0.001  0.002  0.009
   12  0.002  0.000  0.002  0.005
   13  0.007  0.001  0.002  0.010
   14  0.000  0.000  0.004  0.005
   15  0.001  0.000  0.002  0.004
   16  0.002  0.000  0.002  0.005
   17  0.001  0.000  0.002  0.004
   18  0.000  0.002  0.002  0.004
   19  0.001  0.000  0.001  0.002
   20  0.000  0.001  0.020  0.021
   21  0.001  0.002  0.010  0.012
   22  0.000  0.001  0.003  0.004
   23  0.000  0.002  0.010  0.012
   24  0.000  0.000  0.003  0.003
   25  0.000  0.000  0.001  0.001
   26  0.001  0.000  0.001  0.002
   27  0.000  0.001  0.003  0.004
   28  0.000  0.001  0.000  0.001
   29  0.001  0.001  0.004  0.006
   30  0.001  0.002  0.013  0.017
   31  0.001  0.001  0.004  0.006
   32  0.004  0.000  0.006  0.011
   33  0.001  0.002  0.013  0.017
   34  0.004  0.000  0.006  0.011
   35  0.000  0.000  0.002  0.002
   36  0.000  0.005  0.158  0.163
   37  0.000  0.355  0.000  0.355
   38  0.000  0.005  0.000  0.005
tot    0.050  0.392  0.295  0.737
 
band    14 # energy   -4.68028320 # occ.  2.00000000
 
ion      s      p      d    tot
    1  0.002  0.001  0.011  0.014
    2  0.007  0.001  0.010  0.017
    3  0.007  0.001  0.010  0.017
    4  0.007  0.001  0.010  0.017
    5  0.011  0.000  0.009  0.020
    6  0.007  0.001  0.010  0.017
    7  0.007  0.001  0.010  0.017
    8  0.007  0.001  0.010  0.017
    9  0.010  0.000  0.010  0.020
   10  0.012  0.000  0.024  0.036
   11  0.005  0.000  0.023  0.028
   12  0.012  0.000  0.024  0.036
   13  0.005  0.000  0.023  0.028
   14  0.005  0.000  0.023  0.028
   15  0.007  0.000  0.022  0.029
   16  0.012  0.000  0.024  0.036
   17  0.007  0.000  0.022  0.029
   18  0.007  0.000  0.022  0.029
   19  0.008  0.001  0.016  0.025
   20  0.005  0.000  0.032  0.037
   21  0.005  0.000  0.032  0.037
   22  0.003  0.000  0.014  0.018
   23  0.005  0.000  0.032  0.037
   24  0.003  0.000  0.014  0.018
   25  0.008  0.001  0.016  0.025
   26  0.008  0.001  0.016  0.025
   27  0.003  0.000  0.014  0.018
   28  0.000  0.001  0.005  0.006
   29  0.002  0.001  0.008  0.011
   30  0.002  0.001  0.008  0.011
   31  0.002  0.001  0.008  0.011
   32  0.002  0.001  0.008  0.011
   33  0.002  0.001  0.008  0.011
   34  0.002  0.001  0.008  0.011
   35  0.001  0.000  0.004  0.006
   36  0.012  0.001  0.018  0.031
   37  0.000  0.000  0.000  0.000
   38  0.000  0.000  0.000  0.000
tot    0.207  0.016  0.562  0.784
 
band    15 # energy   -4.66986472 # occ.  2.00000000
 
ion      s      p      d    tot
    1  0.000  0.004  0.008  0.012
    2  0.009  0.002  0.004  0.016
    3  0.001  0.001  0.004  0.007
    4  0.017  0.003  0.004  0.024
    5  0.000  0.000  0.009  0.009
    6  0.017  0.003  0.005  0.024
    7  0.001  0.002  0.004  0.007
    8  0.009  0.002  0.004  0.016
    9  0.000  0.004  0.008  0.012
   10  0.001  0.004  0.013  0.018
   11  0.002  0.001  0.007  0.010
   12  0.006  0.003  0.010  0.019
   13  0.001  0.002  0.010  0.013
   14  0.000  0.003  0.013  0.016
   15  0.023  0.004  0.005  0.032
   16  0.012  0.001  0.006  0.019
   17  0.013  0.002  0.011  0.026
   18  0.002  0.000  0.017  0.019
   19  0.007  0.005  0.007  0.019
   20  0.000  0.002  0.015  0.017
   21  0.000  0.002  0.013  0.015
   22  0.004  0.002  0.012  0.018
   23  0.001  0.001  0.011  0.013
   24  0.000  0.001  0.022  0.024
   25  0.000  0.000  0.010  0.011
   26  0.004  0.003  0.008  0.015
   27  0.007  0.003  0.003  0.013
   28  0.000  0.003  0.008  0.011
   29  0.018  0.002  0.012  0.032
   30  0.005  0.002  0.012  0.019
   31  0.026  0.002  0.010  0.038
   32  0.021  0.002  0.009  0.032
   33  0.000  0.002  0.010  0.013
   34  0.008  0.002  0.009  0.019
   35  0.000  0.005  0.006  0.011
   36  0.000  0.002  0.052  0.054
   37  0.000  0.036  0.000  0.036
   38  0.000  0.001  0.000  0.001
tot    0.216  0.122  0.371  0.709
 
band    16 # energy   -4.66982872 # occ.  2.00000000
 
ion      s      p      d    tot
    1  0.000  0.004  0.008  0.012
    2  0.009  0.002  0.004  0.016
    3  0.017  0.003  0.005  0.025
    4  0.001  0.002  0.004  0.007
    5  0.000  0.000  0.009  0.009
    6  0.001  0.001  0.004  0.007
    7  0.017  0.003  0.004  0.025
    8  0.009  0.002  0.004  0.016
    9  0.000  0.004  0.008  0.012
   10  0.012  0.001  0.006  0.019
   11  0.000  0.003  0.013  0.016
   12  0.006  0.003  0.010  0.019
   13  0.001  0.002  0.010  0.013
   14  0.002  0.001  0.007  0.010
   15  0.002  0.000  0.017  0.020
   16  0.001  0.004  0.013  0.018
   17  0.012  0.002  0.011  0.026
   18  0.024  0.004  0.004  0.032
   19  0.001  0.000  0.010  0.011
   20  0.001  0.001  0.011  0.013
   21  0.000  0.002  0.013  0.015
   22  0.004  0.002  0.013  0.019
   23  0.000  0.002  0.015  0.017
   24  0.007  0.003  0.003  0.013
   25  0.007  0.005  0.007  0.019
   26  0.004  0.003  0.008  0.015
   27  0.001  0.001  0.022  0.024
   28  0.000  0.003  0.008  0.011
   29  0.008  0.002  0.009  0.019
   30  0.021  0.002  0.009  0.032
   31  0.000  0.002  0.010  0.013
   32  0.005  0.002  0.012  0.019
   33  0.026  0.002  0.010  0.038
   34  0.018  0.002  0.012  0.032
   35  0.000  0.005  0.006  0.011
   36  0.000  0.002  0.052  0.054
   37  0.000  0.035  0.000  0.035
   38  0.000  0.001  0.000  0.001
tot    0.216  0.122  0.371  0.709
 
band    17 # energy   -4.60726037 # occ.  2.00000000
 
ion      s      p      d    tot
    1  0.000  0.002  0.008  0.010
    2  0.015  0.003  0.004  0.023
    3  0.002  0.001  0.004  0.007
    4  0.017  0.003  0.005  0.025
    5  0.000  0.005  0.008  0.013
    6  0.011  0.003  0.005  0.018
    7  0.000  0.001  0.004  0.006
    8  0.008  0.002  0.005  0.015
    9  0.000  0.001  0.010  0.011
   10  0.015  0.004  0.006  0.025
   11  0.003  0.002  0.019  0.024
   12  0.005  0.001  0.013  0.019
   13  0.005  0.002  0.016  0.024
   14  0.016  0.003  0.004  0.023
   15  0.000  0.003  0.012  0.015
   16  0.003  0.001  0.015  0.018
   17  0.000  0.002  0.012  0.014
   18  0.000  0.000  0.007  0.007
   19  0.001  0.003  0.020  0.023
   20  0.016  0.005  0.007  0.028
   21  0.005  0.002  0.021  0.029
   22  0.002  0.002  0.010  0.014
   23  0.003  0.001  0.024  0.029
   24  0.006  0.003  0.009  0.018
   25  0.003  0.000  0.006  0.009
   26  0.001  0.002  0.017  0.020
   27  0.001  0.001  0.010  0.013
   28  0.000  0.002  0.013  0.015
   29  0.020  0.003  0.005  0.027
   30  0.001  0.002  0.006  0.009
   31  0.023  0.003  0.004  0.030
   32  0.018  0.003  0.004  0.025
   33  0.000  0.002  0.006  0.008
   34  0.014  0.003  0.004  0.021
   35  0.000  0.001  0.012  0.013
   36  0.000  0.020  0.000  0.020
   37  0.000  0.051  0.000  0.051
   38  0.000  0.001  0.000  0.001
tot    0.213  0.149  0.338  0.699
 
band    18 # energy   -4.60717963 # occ.  2.00000000
 
ion      s      p      d    tot
    1  0.000  0.002  0.008  0.010
    2  0.003  0.002  0.004  0.009
    3  0.016  0.003  0.005  0.024
    4  0.001  0.001  0.004  0.007
    5  0.000  0.005  0.008  0.013
    6  0.007  0.002  0.004  0.013
    7  0.018  0.003  0.005  0.025
    8  0.010  0.002  0.004  0.016
    9  0.000  0.001  0.010  0.011
   10  0.000  0.000  0.016  0.017
   11  0.013  0.003  0.008  0.024
   12  0.010  0.003  0.010  0.022
   13  0.011  0.003  0.010  0.024
   14  0.000  0.002  0.022  0.024
   15  0.000  0.001  0.008  0.009
   16  0.012  0.003  0.008  0.024
   17  0.000  0.001  0.009  0.010
   18  0.000  0.003  0.014  0.017
   19  0.002  0.001  0.009  0.012
   20  0.000  0.000  0.028  0.029
   21  0.011  0.003  0.014  0.028
   22  0.004  0.002  0.009  0.016
   23  0.013  0.004  0.011  0.028
   24  0.000  0.001  0.011  0.012
   25  0.000  0.003  0.023  0.026
   26  0.002  0.001  0.011  0.014
   27  0.005  0.003  0.009  0.017
   28  0.000  0.002  0.013  0.015
   29  0.005  0.002  0.005  0.012
   30  0.024  0.003  0.004  0.031
   31  0.002  0.002  0.006  0.010
   32  0.007  0.002  0.006  0.015
   33  0.025  0.003  0.004  0.032
   34  0.011  0.003  0.006  0.019
   35  0.000  0.001  0.012  0.013
   36  0.000  0.020  0.000  0.020
   37  0.000  0.051  0.000  0.051
   38  0.000  0.001  0.000  0.001
tot    0.213  0.149  0.338  0.699
 
band    19 # energy   -4.59255027 # occ.  2.00000000
 
ion      s      p      d    tot
    1  0.043  0.003  0.000  0.046
    2  0.000  0.003  0.009  0.012
    3  0.000  0.003  0.009  0.012
    4  0.000  0.003  0.009  0.012
    5  0.013  0.002  0.002  0.017
    6  0.000  0.003  0.009  0.012
    7  0.000  0.003  0.009  0.012
    8  0.000  0.003  0.009  0.012
    9  0.002  0.001  0.000  0.003
   10  0.005  0.004  0.017  0.026
   11  0.011  0.002  0.010  0.023
   12  0.005  0.004  0.017  0.026
   13  0.011  0.002  0.010  0.023
   14  0.011  0.002  0.010  0.023
   15  0.001  0.000  0.015  0.016
   16  0.005  0.004  0.017  0.026
   17  0.001  0.000  0.015  0.016
   18  0.001  0.000  0.015  0.016
   19  0.007  0.004  0.012  0.023
   20  0.005  0.002  0.023  0.030
   21  0.005  0.002  0.023  0.030
   22  0.005  0.000  0.013  0.018
   23  0.005  0.002  0.023  0.030
   24  0.005  0.000  0.013  0.018
   25  0.007  0.004  0.012  0.023
   26  0.007  0.004  0.012  0.023
   27  0.005  0.000  0.013  0.018
   28  0.046  0.003  0.000  0.049
   29  0.000  0.003  0.013  0.016
   30  0.000  0.003  0.013  0.016
   31  0.000  0.003  0.013  0.016
   32  0.000  0.003  0.013  0.016
   33  0.000  0.003  0.013  0.016
   34  0.000  0.003  0.013  0.016
   35  0.001  0.001  0.001  0.003
   36  0.021  0.009  0.000  0.031
   37  0.001  0.002  0.000  0.003
   38  0.001  0.000  0.000  0.001
tot    0.228  0.095  0.404  0.727
 
band    20 # energy   -4.57476916 # occ.  2.00000000
 
ion      s      p      d    tot
    1  0.002  0.000  0.000  0.002
    2  0.000  0.003  0.010  0.013
    3  0.000  0.003  0.010  0.013
    4  0.000  0.003  0.010  0.013
    5  0.024  0.002  0.000  0.026
    6  0.000  0.003  0.010  0.013
    7  0.000  0.003  0.010  0.013
    8  0.000  0.003  0.010  0.013
    9  0.038  0.004  0.001  0.043
   10  0.002  0.000  0.013  0.015
   11  0.003  0.003  0.018  0.024
   12  0.002  0.000  0.013  0.015
   13  0.003  0.003  0.018  0.024
   14  0.003  0.003  0.018  0.024
   15  0.011  0.004  0.011  0.027
   16  0.002  0.000  0.013  0.015
   17  0.011  0.004  0.011  0.027
   18  0.011  0.004  0.011  0.027
   19  0.000  0.000  0.016  0.016
   20  0.007  0.002  0.011  0.021
   21  0.007  0.002  0.011  0.021
   22  0.008  0.004  0.016  0.028
   23  0.007  0.002  0.011  0.021
   24  0.008  0.004  0.016  0.028
   25  0.000  0.000  0.016  0.016
   26  0.000  0.000  0.016  0.016
   27  0.008  0.004  0.016  0.028
   28  0.003  0.000  0.000  0.003
   29  0.000  0.003  0.013  0.016
   30  0.000  0.003  0.013  0.016
   31  0.000  0.003  0.013  0.016
   32  0.000  0.003  0.013  0.016
   33  0.000  0.003  0.013  0.016
   34  0.000  0.003  0.013  0.016
   35  0.040  0.004  0.000  0.044
   36  0.026  0.008  0.001  0.035
   37  0.001  0.002  0.000  0.003
   38  0.001  0.000  0.000  0.001
tot    0.231  0.101  0.394  0.725
 
band    21 # energy   -4.07390264 # occ.  2.00000000
 
ion      s      p      d    tot
    1  0.000  0.001  0.025  0.026
    2  0.015  0.002  0.007  0.024
    3  0.008  0.001  0.007  0.016
    4  0.015  0.002  0.007  0.023
    5  0.000  0.001  0.011  0.012
    6  0.002  0.001  0.007  0.010
    7  0.006  0.001  0.007  0.014
    8  0.001  0.001  0.007  0.009
    9  0.000  0.003  0.005  0.008
   10  0.000  0.000  0.056  0.056
   11  0.000  0.004  0.015  0.019
   12  0.000  0.000  0.021  0.021
   13  0.000  0.003  0.014  0.017
   14  0.000  0.000  0.002  0.002
   15  0.000  0.005  0.013  0.018
   16  0.000  0.000  0.017  0.017