PROCAR new format
# of k-points:   10         # of bands:  252         # of ions:   38

 k-point     1 :    0.00000000 0.00000000 0.00000000     weight = 0.01562500

band     1 # energy  -23.37039606 # occ.  2.00000000
 
ion      s      p      d    tot
    1  0.000  0.000  0.000  0.000
    2  0.000  0.000  0.000  0.000
    3  0.000  0.000  0.000  0.000
    4  0.000  0.000  0.000  0.000
    5  0.000  0.000  0.000  0.000
    6  0.000  0.000  0.000  0.000
    7  0.000  0.000  0.000  0.000
    8  0.000  0.000  0.000  0.000
    9  0.000  0.000  0.000  0.000
   10  0.000  0.000  0.000  0.000
   11  0.000  0.000  0.000  0.000
   12  0.000  0.000  0.000  0.000
   13  0.000  0.000  0.000  0.000
   14  0.000  0.000  0.000  0.000
   15  0.000  0.000  0.000  0.000
   16  0.000  0.000  0.000  0.000
   17  0.000  0.000  0.000  0.000
   18  0.000  0.000  0.000  0.000
   19  0.000  0.000  0.000  0.000
   20  0.000  0.000  0.000  0.000
   21  0.000  0.000  0.000  0.000
   22  0.000  0.000  0.000  0.000
   23  0.000  0.000  0.000  0.000
   24  0.000  0.000  0.000  0.000
   25  0.000  0.000  0.000  0.000
   26  0.000  0.000  0.000  0.000
   27  0.000  0.000  0.000  0.000
   28  0.000  0.000  0.000  0.000
   29  0.000  0.000  0.000  0.000
   30  0.000  0.000  0.000  0.000
   31  0.000  0.000  0.000  0.000
   32  0.000  0.000  0.000  0.000
   33  0.000  0.000  0.000  0.000
   34  0.000  0.000  0.000  0.000
   35  0.000  0.000  0.000  0.000
   36  0.000  0.000  0.000  0.000
   37  0.156  0.113  0.000  0.269
   38  0.637  0.093  0.000  0.730
tot    0.793  0.206  0.000  1.000
 
band     2 # energy   -9.58001591 # occ.  2.00000000
 
ion      s      p      d    tot
    1  0.002  0.000  0.000  0.003
    2  0.002  0.000  0.000  0.003
    3  0.002  0.000  0.000  0.003
    4  0.002  0.000  0.000  0.003
    5  0.002  0.000  0.000  0.003
    6  0.002  0.000  0.000  0.003
    7  0.002  0.000  0.000  0.003
    8  0.002  0.000  0.000  0.003
    9  0.002  0.000  0.000  0.003
   10  0.011  0.000  0.000  0.011
   11  0.011  0.000  0.000  0.012
   12  0.011  0.000  0.000  0.011
   13  0.011  0.000  0.000  0.012
   14  0.011  0.000  0.000  0.012
   15  0.010  0.000  0.000  0.010
   16  0.011  0.000  0.000  0.011
   17  0.010  0.000  0.000  0.010
   18  0.010  0.000  0.000  0.010
   19  0.014  0.000  0.000  0.014
   20  0.021  0.000  0.000  0.022
   21  0.021  0.000  0.000  0.022
   22  0.014  0.000  0.000  0.014
   23  0.021  0.000  0.000  0.022
   24  0.014  0.000  0.000  0.014
   25  0.014  0.000  0.000  0.014
   26  0.014  0.000  0.000  0.014
   27  0.014  0.000  0.000  0.014
   28  0.005  0.000  0.000  0.006
   29  0.008  0.000  0.000  0.008
   30  0.008  0.000  0.000  0.008
   31  0.008  0.000  0.000  0.008
   32  0.008  0.000  0.000  0.008
   33  0.008  0.000  0.000  0.008
   34  0.008  0.000  0.000  0.008
   35  0.005  0.000  0.000  0.006
   36  0.073  0.004  0.026  0.103
   37  0.113  0.008  0.000  0.122
   38  0.048  0.055  0.000  0.103
tot    0.561  0.076  0.028  0.665
 
band     3 # energy   -9.19659709 # occ.  2.00000000
 
ion      s      p      d    tot
    1  0.005  0.000  0.000  0.005
    2  0.005  0.000  0.000  0.005
    3  0.005  0.000  0.000  0.005
    4  0.005  0.000  0.000  0.005
    5  0.005  0.000  0.000  0.005
    6  0.005  0.000  0.000  0.005
    7  0.005  0.000  0.000  0.005
    8  0.005  0.000  0.000  0.005
    9  0.005  0.000  0.000  0.005
   10  0.014  0.000  0.000  0.015
   11  0.014  0.000  0.000  0.014
   12  0.014  0.000  0.000  0.015
   13  0.014  0.000  0.000  0.014
   14  0.014  0.000  0.000  0.014
   15  0.015  0.000  0.000  0.015
   16  0.014  0.000  0.000  0.015
   17  0.015  0.000  0.000  0.015
   18  0.015  0.000  0.000  0.015
   19  0.010  0.000  0.000  0.010
   20  0.006  0.001  0.000  0.007
   21  0.006  0.001  0.000  0.007
   22  0.009  0.000  0.000  0.009
   23  0.006  0.001  0.000  0.007
   24  0.009  0.000  0.000  0.009
   25  0.010  0.000  0.000  0.010
   26  0.010  0.000  0.000  0.010
   27  0.009  0.000  0.000  0.009
   28  0.001  0.000  0.000  0.002
   29  0.000  0.001  0.000  0.001
   30  0.000  0.001  0.000  0.001
   31  0.000  0.001  0.000  0.001
   32  0.000  0.001  0.000  0.001
   33  0.000  0.001  0.000  0.001
   34  0.000  0.001  0.000  0.001
   35  0.001  0.000  0.000  0.002
   36  0.016  0.017  0.033  0.066
   37  0.159  0.003  0.000  0.162
   38  0.078  0.118  0.000  0.197
tot    0.502  0.151  0.036  0.690
 
band     4 # energy   -8.13001624 # occ.  2.00000000
 
ion      s      p      d    tot
    1  0.016  0.001  0.000  0.018
    2  0.016  0.001  0.000  0.017
    3  0.016  0.001  0.000  0.017
    4  0.016  0.001  0.000  0.017
    5  0.016  0.001  0.000  0.017
    6  0.016  0.001  0.000  0.017
    7  0.016  0.001  0.000  0.017
    8  0.016  0.001  0.000  0.017
    9  0.016  0.001  0.000  0.017
   10  0.010  0.002  0.000  0.012
   11  0.010  0.002  0.000  0.012
   12  0.010  0.002  0.000  0.012
   13  0.010  0.002  0.000  0.012
   14  0.010  0.002  0.000  0.012
   15  0.010  0.002  0.000  0.012
   16  0.010  0.002  0.000  0.012
   17  0.010  0.002  0.000  0.012
   18  0.010  0.002  0.000  0.012
   19  0.009  0.002  0.000  0.011
   20  0.008  0.002  0.000  0.011
   21  0.008  0.002  0.000  0.011
   22  0.009  0.002  0.000  0.011
   23  0.008  0.002  0.000  0.011
   24  0.009  0.002  0.000  0.011
   25  0.009  0.002  0.000  0.011
   26  0.009  0.002  0.000  0.011
   27  0.009  0.002  0.000  0.011
   28  0.017  0.001  0.001  0.018
   29  0.017  0.001  0.001  0.019
   30  0.017  0.001  0.001  0.019
   31  0.017  0.001  0.001  0.019
   32  0.017  0.001  0.001  0.019
   33  0.017  0.001  0.001  0.019
   34  0.017  0.001  0.001  0.019
   35  0.017  0.001  0.001  0.018
   36  0.026  0.002  0.005  0.033
   37  0.011  0.004  0.000  0.015
   38  0.012  0.040  0.000  0.053
tot    0.496  0.095  0.022  0.614
 
band     5 # energy   -6.84389570 # occ.  2.00000000
 
ion      s      p      d    tot
    1  0.002  0.000  0.001  0.003
    2  0.003  0.000  0.001  0.004
    3  0.003  0.000  0.001  0.004
    4  0.003  0.000  0.001  0.004
    5  0.008  0.000  0.000  0.008
    6  0.003  0.000  0.001  0.004
    7  0.003  0.000  0.001  0.004
    8  0.003  0.000  0.001  0.004
    9  0.001  0.000  0.001  0.002
   10  0.000  0.001  0.001  0.003
   11  0.002  0.001  0.001  0.003
   12  0.000  0.001  0.001  0.003
   13  0.002  0.001  0.001  0.003
   14  0.002  0.001  0.001  0.003
   15  0.003  0.001  0.001  0.005
   16  0.000  0.001  0.001  0.003
   17  0.003  0.001  0.001  0.005
   18  0.003  0.001  0.001  0.005
   19  0.011  0.000  0.002  0.014
   20  0.003  0.005  0.007  0.014
   21  0.003  0.005  0.007  0.014
   22  0.009  0.002  0.001  0.011
   23  0.003  0.005  0.007  0.014
   24  0.009  0.002  0.001  0.011
   25  0.011  0.000  0.002  0.014
   26  0.011  0.000  0.002  0.014
   27  0.009  0.002  0.001  0.011
   28  0.002  0.001  0.001  0.003
   29  0.000  0.002  0.002  0.004
   30  0.000  0.002  0.002  0.004
   31  0.000  0.002  0.002  0.004
   32  0.000  0.002  0.002  0.004
   33  0.000  0.002  0.002  0.004
   34  0.000  0.002  0.002  0.004
   35  0.002  0.001  0.000  0.004
   36  0.102  0.006  0.057  0.165
   37  0.004  0.146  0.000  0.149
   38  0.026  0.241  0.000  0.267
tot    0.250  0.436  0.114  0.800
 
band     6 # energy   -6.55179288 # occ.  2.00000000
 
ion      s      p      d    tot
    1  0.014  0.000  0.005  0.018
    2  0.013  0.000  0.005  0.018
    3  0.013  0.000  0.005  0.018
    4  0.013  0.000  0.005  0.018
    5  0.005  0.000  0.006  0.011
    6  0.013  0.000  0.005  0.018
    7  0.013  0.000  0.005  0.018
    8  0.013  0.000  0.005  0.018
    9  0.023  0.000  0.003  0.027
   10  0.003  0.003  0.002  0.008
   11  0.011  0.005  0.001  0.017
   12  0.002  0.003  0.002  0.008
   13  0.011  0.005  0.001  0.017
   14  0.011  0.005  0.001  0.017
   15  0.000  0.002  0.003  0.006
   16  0.002  0.003  0.002  0.008
   17  0.000  0.002  0.003  0.006
   18  0.000  0.002  0.003  0.006
   19  0.001  0.003  0.006  0.009
   20  0.022  0.005  0.005  0.032
   21  0.022  0.005  0.005  0.032
   22  0.000  0.004  0.004  0.008
   23  0.022  0.005  0.005  0.032
   24  0.000  0.004  0.004  0.008
   25  0.001  0.003  0.006  0.009
   26  0.001  0.003  0.006  0.009
   27  0.000  0.004  0.004  0.008
   28  0.020  0.000  0.005  0.025
   29  0.016  0.000  0.007  0.024
   30  0.016  0.000  0.007  0.024
   31  0.016  0.000  0.007  0.024
   32  0.016  0.000  0.007  0.024
   33  0.016  0.000  0.007  0.024
   34  0.016  0.000  0.007  0.024
   35  0.026  0.000  0.005  0.031
   36  0.002  0.001  0.039  0.042
   37  0.001  0.003  0.000  0.003
   38  0.000  0.002  0.000  0.002
tot    0.376  0.073  0.198  0.647
 
band     7 # energy   -6.45614627 # occ.  2.00000000
 
ion      s      p      d    tot
    1  0.000  0.002  0.005  0.007
    2  0.008  0.002  0.002  0.012
    3  0.002  0.001  0.002  0.004
    4  0.008  0.002  0.002  0.012
    5  0.000  0.002  0.003  0.005
    6  0.003  0.001  0.002  0.006
    7  0.001  0.001  0.002  0.004
    8  0.002  0.001  0.002  0.005
    9  0.000  0.000  0.002  0.002
   10  0.054  0.004  0.004  0.062
   11  0.005  0.010  0.004  0.019
   12  0.016  0.002  0.011  0.029
   13  0.007  0.009  0.004  0.020
   14  0.024  0.000  0.006  0.031
   15  0.001  0.004  0.007  0.012
   16  0.012  0.002  0.011  0.025
   17  0.002  0.004  0.007  0.012
   18  0.006  0.002  0.003  0.011
   19  0.006  0.010  0.003  0.019
   20  0.066  0.003  0.007  0.077
   21  0.019  0.002  0.015  0.037
   22  0.002  0.005  0.007  0.013
   23  0.014  0.002  0.016  0.033
   24  0.005  0.003  0.003  0.011
   25  0.027  0.000  0.007  0.034
   26  0.008  0.009  0.004  0.020
   27  0.001  0.005  0.007  0.013
   28  0.000  0.003  0.003  0.006
   29  0.009  0.003  0.004  0.016
   30  0.005  0.001  0.003  0.009
   31  0.009  0.003  0.004  0.016
   32  0.001  0.001  0.004  0.006
   33  0.004  0.001  0.003  0.008
   34  0.001  0.001  0.004  0.005
   35  0.000  0.000  0.002  0.003
   36  0.000  0.004  0.024  0.028
   37  0.000  0.007  0.000  0.007
   38  0.000  0.015  0.000  0.015
tot    0.327  0.129  0.197  0.653
 
band     8 # energy   -6.45594593 # occ.  2.00000000
 
ion      s      p      d    tot
    1  0.000  0.002  0.005  0.007
    2  0.000  0.001  0.002  0.003
    3  0.007  0.002  0.002  0.010
    4  0.000  0.001  0.002  0.002
    5  0.000  0.002  0.003  0.005
    6  0.005  0.002  0.002  0.009
    7  0.007  0.002  0.002  0.011
    8  0.006  0.002  0.002  0.009
    9  0.000  0.000  0.002  0.002
   10  0.000  0.002  0.013  0.015
   11  0.019  0.003  0.005  0.027
   12  0.039  0.004  0.006  0.049
   13  0.017  0.004  0.005  0.026
   14  0.000  0.012  0.003  0.015
   15  0.004  0.003  0.004  0.011
   16  0.043  0.004  0.006  0.052
   17  0.004  0.003  0.004  0.011
   18  0.000  0.005  0.008  0.013
   19  0.021  0.003  0.006  0.030
   20  0.000  0.002  0.019  0.021
   21  0.047  0.003  0.010  0.061
   22  0.004  0.003  0.005  0.012
   23  0.052  0.003  0.009  0.065
   24  0.000  0.005  0.009  0.014
   25  0.000  0.013  0.003  0.015
   26  0.019  0.004  0.005  0.028
   27  0.004  0.003  0.004  0.012
   28  0.000  0.003  0.003  0.006
   29  0.000  0.001  0.003  0.004
   30  0.005  0.002  0.004  0.011
   31  0.001  0.001  0.003  0.004
   32  0.008  0.002  0.003  0.014
   33  0.005  0.002  0.004  0.012
   34  0.009  0.002  0.003  0.014
   35  0.000  0.000  0.002  0.002
   36  0.000  0.004  0.024  0.028
   37  0.000  0.007  0.000  0.007
   38  0.000  0.015  0.000  0.015
tot    0.327  0.129  0.197  0.653
 
band     9 # energy   -6.39009425 # occ.  2.00000000
 
ion      s      p      d    tot
    1  0.000  0.001  0.002  0.003
    2  0.009  0.002  0.002  0.014
    3  0.003  0.001  0.002  0.006
    4  0.010  0.002  0.002  0.014
    5  0.000  0.001  0.004  0.005
    6  0.004  0.001  0.002  0.007
    7  0.001  0.001  0.002  0.004
    8  0.002  0.001  0.002  0.005
    9  0.000  0.003  0.005  0.008
   10  0.000  0.011  0.003  0.014
   11  0.029  0.004  0.004  0.037
   12  0.001  0.004  0.005  0.010
   13  0.024  0.003  0.006  0.033
   14  0.000  0.000  0.015  0.015
   15  0.042  0.003  0.006  0.051
   16  0.001  0.003  0.005  0.009
   17  0.035  0.004  0.006  0.045
   18  0.000  0.008  0.008  0.016
   19  0.028  0.004  0.005  0.037
   20  0.000  0.013  0.002  0.015
   21  0.002  0.005  0.005  0.012
   22  0.039  0.004  0.006  0.049
   23  0.002  0.003  0.005  0.011
   24  0.000  0.008  0.009  0.017
   25  0.000  0.000  0.016  0.017
   26  0.024  0.003  0.007  0.033
   27  0.047  0.003  0.006  0.056
   28  0.000  0.001  0.005  0.006
   29  0.013  0.003  0.003  0.018
   30  0.004  0.002  0.003  0.010
   31  0.013  0.003  0.003  0.018
   32  0.004  0.001  0.003  0.008
   33  0.003  0.002  0.003  0.008
   34  0.002  0.001  0.003  0.006
   35  0.000  0.004  0.005  0.009
   36  0.000  0.002  0.008  0.010
   37  0.000  0.000  0.000  0.000
   38  0.000  0.000  0.000  0.000
tot    0.341  0.116  0.180  0.637
 
band    10 # energy   -6.38986733 # occ.  2.00000000
 
ion      s      p      d    tot
    1  0.000  0.001  0.002  0.003
    2  0.000  0.001  0.002  0.003
    3  0.007  0.002  0.002  0.011
    4  0.000  0.001  0.002  0.003
    5  0.000  0.001  0.004  0.005
    6  0.006  0.002  0.002  0.010
    7  0.008  0.002  0.002  0.013
    8  0.007  0.002  0.002  0.011
    9  0.000  0.003  0.005  0.008
   10  0.002  0.001  0.005  0.008
   11  0.006  0.001  0.013  0.020
   12  0.001  0.008  0.004  0.012
   13  0.011  0.002  0.011  0.024
   14  0.034  0.004  0.002  0.041
   15  0.009  0.007  0.008  0.024
   16  0.000  0.009  0.003  0.013
   17  0.016  0.006  0.007  0.030
   18  0.051  0.002  0.005  0.059
   19  0.007  0.001  0.014  0.021
   20  0.003  0.001  0.006  0.010
   21  0.001  0.009  0.003  0.013
   22  0.019  0.006  0.008  0.032
   23  0.001  0.011  0.002  0.014
   24  0.057  0.003  0.005  0.064
   25  0.034  0.005  0.002  0.041
   26  0.011  0.002  0.012  0.025
   27  0.011  0.007  0.008  0.026
   28  0.000  0.001  0.005  0.006
   29  0.000  0.001  0.003  0.004
   30  0.008  0.002  0.003  0.013
   31  0.000  0.001  0.003  0.004
   32  0.009  0.003  0.003  0.015
   33  0.010  0.002  0.003  0.015
   34  0.011  0.003  0.003  0.017
   35  0.000  0.004  0.005  0.009
   36  0.000  0.002  0.008  0.010
   37  0.000  0.000  0.000  0.000
   38  0.000  0.000  0.000  0.000
tot    0.341  0.116  0.180  0.637
 
band    11 # energy   -6.38053898 # occ.  2.00000000
 
ion      s      p      d    tot
    1  0.023  0.003  0.001  0.027
    2  0.000  0.002  0.004  0.006
    3  0.000  0.002  0.004  0.006
    4  0.000  0.002  0.004  0.006
    5  0.002  0.000  0.001  0.003
    6  0.000  0.002  0.004  0.006
    7  0.000  0.002  0.004  0.006
    8  0.000  0.002  0.004  0.006
    9  0.008  0.001  0.000  0.009
   10  0.030  0.006  0.006  0.041
   11  0.007  0.000  0.012  0.018
   12  0.030  0.006  0.006  0.041
   13  0.007  0.000  0.012  0.018
   14  0.007  0.000  0.012  0.019
   15  0.011  0.008  0.004  0.022
   16  0.030  0.006  0.006  0.041
   17  0.011  0.008  0.004  0.022
   18  0.011  0.008  0.004  0.022
   19  0.022  0.009  0.002  0.033
   20  0.000  0.003  0.011  0.014
   21  0.000  0.003  0.011  0.014
   22  0.023  0.002  0.009  0.034
   23  0.000  0.003  0.011  0.014
   24  0.024  0.002  0.009  0.035
   25  0.022  0.009  0.002  0.034
   26  0.022  0.009  0.002  0.033
   27  0.023  0.002  0.009  0.034
   28  0.019  0.003  0.000  0.022
   29  0.000  0.002  0.004  0.006
   30  0.000  0.002  0.004  0.006
   31  0.000  0.002  0.004  0.006
   32  0.000  0.002  0.004  0.006
   33  0.000  0.002  0.004  0.006
   34  0.000  0.002  0.004  0.006
   35  0.011  0.002  0.001  0.015
   36  0.000  0.000  0.000  0.000
   37  0.000  0.000  0.000  0.000
   38  0.000  0.000  0.000  0.000
tot    0.342  0.113  0.183  0.639
 
band    12 # energy   -6.33472621 # occ.  2.00000000
 
ion      s      p      d    tot
    1  0.000  0.000  0.000  0.000
    2  0.000  0.000  0.000  0.001
    3  0.000  0.000  0.000  0.000
    4  0.000  0.000  0.000  0.001
    5  0.000  0.000  0.000  0.000
    6  0.000  0.000  0.000  0.000
    7  0.000  0.000  0.000  0.000
    8  0.000  0.000  0.000  0.000
    9  0.000  0.000  0.000  0.000
   10  0.002  0.000  0.000  0.003
   11  0.000  0.000  0.000  0.001
   12  0.001  0.000  0.000  0.001
   13  0.000  0.000  0.000  0.001
   14  0.001  0.000  0.000  0.001
   15  0.000  0.000  0.000  0.001
   16  0.001  0.000  0.001  0.001
   17  0.000  0.000  0.000  0.001
   18  0.000  0.000  0.000  0.001
   19  0.000  0.000  0.000  0.001
   20  0.002  0.000  0.000  0.002
   21  0.000  0.000  0.000  0.001
   22  0.000  0.000  0.000  0.001
   23  0.000  0.000  0.000  0.001
   24  0.000  0.000  0.000  0.000
   25  0.002  0.000  0.000  0.002
   26  0.000  0.000  0.000  0.001
   27  0.000  0.000  0.000  0.001
   28  0.000  0.000  0.000  0.001
   29  0.003  0.000  0.001  0.004
   30  0.000  0.000  0.001  0.001
   31  0.003  0.000  0.001  0.004
   32  0.001  0.001  0.001  0.003
   33  0.000  0.000  0.001  0.001
   34  0.001  0.001  0.001  0.002
   35  0.000  0.000  0.001  0.001
   36  0.000  0.005  0.020  0.025
   37  0.000  0.171  0.000  0.171
   38  0.000  0.430  0.000  0.430
tot    0.020  0.613  0.032  0.665
 
band    13 # energy   -6.33464474 # occ.  2.00000000
 
ion      s      p      d    tot
    1  0.000  0.000  0.000  0.000
    2  0.000  0.000  0.000  0.000
    3  0.000  0.000  0.000  0.000
    4  0.000  0.000  0.000  0.000
    5  0.000  0.000  0.000  0.000
    6  0.000  0.000  0.000  0.000
    7  0.000  0.000  0.000  0.000
    8  0.000  0.000  0.000  0.001
    9  0.000  0.000  0.000  0.000
   10  0.000  0.000  0.001  0.001
   11  0.001  0.000  0.000  0.001
   12  0.002  0.000  0.000  0.002
   13  0.001  0.000  0.000  0.001
   14  0.000  0.000  0.000  0.001
   15  0.000  0.000  0.000  0.001
   16  0.002  0.000  0.000  0.002
   17  0.000  0.000  0.000  0.001
   18  0.000  0.000  0.000  0.001
   19  0.001  0.000  0.000  0.002
   20  0.000  0.000  0.000  0.000
   21  0.001  0.000  0.000  0.002
   22  0.000  0.000  0.000  0.000
   23  0.001  0.000  0.000  0.002
   24  0.000  0.000  0.000  0.001
   25  0.000  0.001  0.000  0.001
   26  0.001  0.000  0.000  0.002
   27  0.000  0.000  0.000  0.000
   28  0.000  0.000  0.000  0.001
   29  0.000  0.000  0.000  0.001
   30  0.003  0.001  0.001  0.004
   31  0.000  0.000  0.000  0.001
   32  0.002  0.000  0.001  0.003
   33  0.003  0.001  0.001  0.004
   34  0.002  0.000  0.001  0.003
   35  0.000  0.000  0.001  0.001
   36  0.000  0.005  0.020  0.025
   37  0.000  0.171  0.000  0.171
   38  0.000  0.429  0.000  0.429
tot    0.020  0.613  0.032  0.665
 
band    14 # energy   -6.20347707 # occ.  2.00000000
 
ion      s      p      d    tot
    1  0.000  0.000  0.000  0.001
    2  0.001  0.002  0.006  0.009
    3  0.001  0.002  0.006  0.009
    4  0.001  0.002  0.006  0.009
    5  0.034  0.003  0.000  0.038
    6  0.001  0.002  0.006  0.009
    7  0.001  0.002  0.006  0.009
    8  0.001  0.002  0.006  0.009
    9  0.008  0.002  0.003  0.013
   10  0.002  0.003  0.009  0.013
   11  0.020  0.009  0.002  0.031
   12  0.002  0.003  0.009  0.013
   13  0.020  0.009  0.002  0.031
   14  0.020  0.009  0.002  0.031
   15  0.025  0.002  0.011  0.037
   16  0.002  0.003  0.009  0.013
   17  0.025  0.002  0.011  0.037
   18  0.025  0.002  0.011  0.037
   19  0.003  0.002  0.005  0.009
   20  0.009  0.001  0.012  0.023
   21  0.009  0.001  0.012  0.023
   22  0.005  0.005  0.004  0.013
   23  0.009  0.001  0.012  0.023
   24  0.005  0.005  0.004  0.013
   25  0.003  0.002  0.005  0.009
   26  0.003  0.002  0.005  0.009
   27  0.005  0.005  0.004  0.013
   28  0.002  0.000  0.002  0.004
   29  0.002  0.000  0.003  0.006
   30  0.002  0.000  0.003  0.006
   31  0.002  0.000  0.003  0.006
   32  0.002  0.000  0.003  0.006
   33  0.002  0.000  0.003  0.006
   34  0.002  0.000  0.003  0.006
   35  0.000  0.000  0.001  0.002
   36  0.000  0.014  0.046  0.061
   37  0.009  0.052  0.000  0.060
   38  0.003  0.055  0.000  0.058
tot    0.264  0.204  0.237  0.705
 
band    15 # energy   -5.70668094 # occ.  2.00000000
 
ion      s      p      d    tot
    1  0.000  0.003  0.009  0.012
    2  0.016  0.003  0.005  0.024
    3  0.003  0.002  0.004  0.009
    4  0.018  0.003  0.005  0.026
    5  0.000  0.000  0.009  0.009
    6  0.011  0.003  0.005  0.018
    7  0.000  0.001  0.004  0.006
    8  0.007  0.002  0.005  0.013
    9  0.000  0.005  0.008  0.013
   10  0.000  0.005  0.013  0.018
   11  0.007  0.002  0.008  0.016
   12  0.004  0.002  0.009  0.015
   13  0.005  0.002  0.009  0.016
   14  0.000  0.002  0.015  0.016
   15  0.022  0.004  0.006  0.032
   16  0.005  0.001  0.008  0.013
   17  0.017  0.003  0.010  0.029
   18  0.000  0.001  0.020  0.021
   19  0.007  0.005  0.009  0.021
   20  0.000  0.003  0.025  0.028
   21  0.000  0.001  0.016  0.018
   22  0.007  0.003  0.011  0.022
   23  0.000  0.001  0.014  0.014
   24  0.000  0.001  0.026  0.028
   25  0.000  0.000  0.010  0.011
   26  0.006  0.004  0.009  0.018
   27  0.010  0.004  0.006  0.020
   28  0.000  0.003  0.009  0.012
   29  0.022  0.003  0.010  0.035
   30  0.003  0.003  0.011  0.016
   31  0.026  0.003  0.010  0.039
   32  0.018  0.002  0.010  0.030
   33  0.000  0.002  0.011  0.013
   34  0.012  0.002  0.010  0.024
   35  0.000  0.006  0.008  0.014
   36  0.000  0.001  0.038  0.039
   37  0.000  0.000  0.000  0.000
   38  0.000  0.000  0.000  0.000
tot    0.226  0.090  0.393  0.709
 
band    16 # energy   -5.70658971 # occ.  2.00000000
 
ion      s      p      d    tot
    1  0.000  0.003  0.009  0.012
    2  0.002  0.002  0.004  0.008
    3  0.016  0.003  0.005  0.024
    4  0.000  0.001  0.004  0.006
    5  0.000  0.000  0.009  0.009
    6  0.007  0.002  0.004  0.014
    7  0.018  0.003  0.005  0.026
    8  0.012  0.003  0.004  0.019
    9  0.000  0.005  0.008  0.013
   10  0.006  0.000  0.007  0.013
   11  0.001  0.002  0.014  0.016
   12  0.002  0.003  0.011  0.016
   13  0.003  0.002  0.012  0.016
   14  0.008  0.002  0.006  0.016
   15  0.004  0.001  0.017  0.023
   16  0.001  0.004  0.012  0.017
   17  0.009  0.002  0.014  0.026
   18  0.026  0.004  0.004  0.034
   19  0.001  0.001  0.010  0.012
   20  0.000  0.000  0.012  0.012
   21  0.000  0.002  0.020  0.022
   22  0.004  0.002  0.018  0.024
   23  0.000  0.003  0.023  0.026
   24  0.011  0.004  0.003  0.018
   25  0.008  0.005  0.009  0.023
   26  0.003  0.002  0.010  0.015
   27  0.002  0.002  0.023  0.026
   28  0.000  0.003  0.009  0.012
   29  0.005  0.002  0.010  0.017
   30  0.024  0.002  0.009  0.036
   31  0.001  0.002  0.011  0.014
   32  0.009  0.003  0.011  0.022
   33  0.027  0.003  0.009  0.039
   34  0.015  0.003  0.010  0.028
   35  0.000  0.006  0.008  0.014
   36  0.000  0.001  0.038  0.039
   37  0.000  0.000  0.000  0.000
   38  0.000  0.000  0.000  0.000
tot    0.226  0.090  0.393  0.709
 
band    17 # energy   -5.69885649 # occ.  2.00000000
 
ion      s      p      d    tot
    1  0.002  0.001  0.011  0.014
    2  0.006  0.001  0.010  0.017
    3  0.006  0.001  0.010  0.017
    4  0.006  0.001  0.010  0.017
    5  0.005  0.000  0.009  0.015
    6  0.006  0.001  0.010  0.017
    7  0.006  0.001  0.010  0.017
    8  0.006  0.001  0.010  0.017
    9  0.013  0.000  0.009  0.022
   10  0.011  0.000  0.025  0.036
   11  0.007  0.000  0.023  0.030
   12  0.011  0.000  0.025  0.036
   13  0.007  0.000  0.023  0.030
   14  0.007  0.000  0.023  0.029
   15  0.004  0.000  0.022  0.027
   16  0.011  0.000  0.025  0.036
   17  0.004  0.000  0.022  0.027
   18  0.005  0.000  0.022  0.027
   19  0.007  0.000  0.018  0.026
   20  0.007  0.000  0.031  0.038
   21  0.006  0.000  0.031  0.038
   22  0.003  0.000  0.016  0.019
   23  0.006  0.000  0.031  0.038
   24  0.003  0.000  0.016  0.019
   25  0.007  0.000  0.018  0.026
   26  0.007  0.000  0.018  0.026
   27  0.003  0.000  0.016  0.019
   28  0.000  0.001  0.006  0.007
   29  0.003  0.000  0.008  0.011
   30  0.003  0.000  0.008  0.011
   31  0.003  0.000  0.008  0.011
   32  0.003  0.000  0.008  0.011
   33  0.003  0.000  0.008  0.011
   34  0.003  0.000  0.008  0.011
   35  0.005  0.000  0.005  0.010
   36  0.005  0.001  0.016  0.022
   37  0.000  0.000  0.000  0.000
   38  0.000  0.000  0.000  0.000
tot    0.203  0.013  0.568  0.784
 
band    18 # energy   -5.65063823 # occ.  2.00000000
 
ion      s      p      d    tot
    1  0.000  0.004  0.009  0.013
    2  0.021  0.004  0.006  0.030
    3  0.004  0.002  0.005  0.011
    4  0.022  0.004  0.006  0.032
    5  0.000  0.006  0.010  0.016
    6  0.011  0.003  0.006  0.019
    7  0.002  0.002  0.005  0.009
    8  0.008  0.003  0.006  0.016
    9  0.000  0.000  0.012  0.013
   10  0.021  0.005  0.008  0.034
   11  0.003  0.003  0.022  0.028
   12  0.007  0.002  0.017  0.025
   13  0.005  0.003  0.020  0.028
   14  0.017  0.003  0.005  0.025
   15  0.000  0.003  0.014  0.017
   16  0.004  0.001  0.019  0.024
   17  0.000  0.003  0.014  0.016
   18  0.000  0.000  0.009  0.010
   19  0.001  0.002  0.020  0.023
   20  0.019  0.006  0.005  0.030
   21  0.006  0.002  0.024  0.032
   22  0.001  0.002  0.011  0.014
   23  0.004  0.001  0.027  0.032
   24  0.005  0.002  0.010  0.017
   25  0.004  0.001  0.006  0.010
   26  0.001  0.002  0.018  0.021
   27  0.001  0.001  0.011  0.013
   28  0.000  0.003  0.010  0.013
   29  0.016  0.003  0.006  0.026
   30  0.002  0.001  0.005  0.009
   31  0.017  0.004  0.007  0.028
   32  0.010  0.003  0.007  0.019
   33  0.001  0.001  0.005  0.007
   34  0.007  0.002  0.007  0.016
   35  0.000  0.000  0.010  0.010
   36  0.000  0.010  0.014  0.024
   37  0.000  0.000  0.000  0.000
   38  0.000  0.000  0.000  0.000
tot    0.220  0.096  0.397  0.713
 
band    19 # energy   -5.65054401 # occ.  2.00000000
 
ion      s      p      d    tot
    1  0.000  0.004  0.009  0.013
    2  0.001  0.002  0.005  0.009
    3  0.019  0.004  0.006  0.028
    4  0.000  0.002  0.005  0.007
    5  0.000  0.006  0.010  0.016
    6  0.011  0.003  0.005  0.020
    7  0.021  0.004  0.006  0.030
    8  0.014  0.003  0.005  0.023
    9  0.000  0.000  0.012  0.012
   10  0.000  0.000  0.022  0.022
   11  0.014  0.003  0.009  0.026
   12  0.015  0.004  0.012  0.030
   13  0.012  0.003  0.012  0.026
   14  0.000  0.003  0.026  0.029
   15  0.000  0.001  0.010  0.011
   16  0.017  0.004  0.010  0.032
   17  0.000  0.001  0.011  0.013
   18  0.000  0.004  0.016  0.019
   19  0.003  0.001  0.009  0.014
   20  0.000  0.000  0.032  0.033
   21  0.013  0.004  0.014  0.031
   22  0.003  0.002  0.010  0.015
   23  0.016  0.005  0.010  0.031
   24  0.000  0.001  0.011  0.013
   25  0.000  0.003  0.024  0.026
   26  0.003  0.001  0.011  0.015
   27  0.004  0.002  0.010  0.016
   28  0.000  0.003  0.010  0.013
   29  0.002  0.001  0.006  0.009
   30  0.016  0.003  0.007  0.026
   31  0.001  0.001  0.006  0.008
   32  0.008  0.002  0.005  0.016
   33  0.017  0.004  0.007  0.028
   34  0.010  0.003  0.006  0.019
   35  0.000  0.000  0.010  0.010
   36  0.000  0.010  0.014  0.024
   37  0.000  0.000  0.000  0.000
   38  0.000  0.000  0.000  0.000
tot    0.220  0.096  0.397  0.713
 
band    20 # energy   -5.63254641 # occ.  2.00000000
 
ion      s      p      d    tot
    1  0.036  0.003  0.000  0.039
    2  0.000  0.003  0.010  0.013
    3  0.000  0.003  0.010  0.013
    4  0.000  0.003  0.010  0.013
    5  0.000  0.000  0.001  0.001
    6  0.000  0.003  0.010  0.013
    7  0.000  0.003  0.010  0.013
    8  0.000  0.003  0.010  0.013
    9  0.025  0.004  0.001  0.030
   10  0.007  0.003  0.011  0.021
   11  0.002  0.000  0.015  0.017
   12  0.007  0.003  0.011  0.021
   13  0.002  0.000  0.015  0.017
   14  0.002  0.000  0.015  0.017
   15  0.008  0.003  0.016  0.027
   16  0.007  0.003  0.011  0.021
   17  0.008  0.003  0.016  0.027
   18  0.008  0.003  0.016  0.027
   19  0.004  0.003  0.018  0.025
   20  0.000  0.000  0.016  0.016
   21  0.000  0.000  0.016  0.016
   22  0.012  0.003  0.010  0.025
   23  0.000  0.000  0.016  0.016
   24  0.012  0.003  0.010  0.025
   25  0.004  0.003  0.018  0.025
   26  0.004  0.003  0.018  0.025
   27  0.012  0.003  0.010  0.025
   28  0.039  0.003  0.000  0.042
   29  0.000  0.003  0.012  0.015
   30  0.000  0.003  0.012  0.015
   31  0.000  0.003  0.012  0.015
   32  0.000  0.003  0.012  0.015
   33  0.000  0.003  0.012  0.015
   34  0.000  0.003  0.012  0.015
   35  0.025  0.003  0.001  0.030
   36  0.000  0.000  0.000  0.000
   37  0.000  0.000  0.000  0.000
   38  0.000  0.000  0.000  0.000
tot    0.225  0.088  0.393  0.707
 
band    21 # energy   -5.47164410 # occ.  2.00000000
 
ion      s      p      d    tot
    1  0.013  0.001  0.000  0.013
    2  0.000  0.003  0.010  0.012
    3  0.000  0.003  0.010  0.012
    4  0.000  0.003  0.010  0.012
    5  0.036  0.004  0.000  0.040
    6  0.000  0.003  0.010  0.012
    7  0.000  0.003  0.010  0.012
    8  0.000  0.003  0.010  0.012
    9  0.007  0.001  0.000  0.008
   10  0.000  0.001  0.023  0.024
   11  0.005  0.004  0.018  0.027
   12  0.000  0.001  0.023  0.024
   13  0.005  0.004  0.018  0.027
   14  0.005  0.004  0.018  0.027
   15  0.002  0.001  0.006  0.009
   16  0.000  0.001  0.023  0.024