 vasp.6.2.0 18Jan21 (build Jun 12 2021 23:27:24) complex                        
  
 executed on             LinuxIFC date 2022.05.26  20:02:07
 running on   28 total cores
 distrk:  each k-point on   28 cores,    1 groups
 distr:  one band on NCORE=   1 cores,   28 groups


--------------------------------------------------------------------------------------------------------


 INCAR:
   ISMEAR = -5
   SIGMA = 0.1
   ISPIN = 1
   EDIFF = 1.d-5
   EDIFFG = -0.01
   NSW = 0
   NELM = 150
   ENCUT = 500
   ISIF = 2
   IBRION = 2
   LREAL = Auto
   ALGO = Fast
   ICHARG = 11
   LORBIT = 10
   LCHARG = .F.
   LWAVE = .F.

 POTCAR:    PAW_PBE Cu 22Jun2005                  
 POTCAR:    PAW_PBE Nb_sv 25May2007               
 POTCAR:    PAW_PBE H 15Jun2001                   
 -----------------------------------------------------------------------------
|                                                                             |
|           W    W    AA    RRRRR   N    N  II  N    N   GGGG   !!!           |
|           W    W   A  A   R    R  NN   N  II  NN   N  G    G  !!!           |
|           W    W  A    A  R    R  N N  N  II  N N  N  G       !!!           |
|           W WW W  AAAAAA  RRRRR   N  N N  II  N  N N  G  GGG   !            |
|           WW  WW  A    A  R   R   N   NN  II  N   NN  G    G                |
|           W    W  A    A  R    R  N    N  II  N    N   GGGG   !!!           |
|                                                                             |
|     For optimal performance we recommend to set                             |
|       NCORE = 2 up to number-of-cores-per-socket                            |
|     NCORE specifies how many cores store one orbital (NPAR=cpu/NCORE).      |
|     This setting can greatly improve the performance of VASP for DFT.       |
|     The default, NCORE=1 might be grossly inefficient on modern             |
|     multi-core architectures or massively parallel machines. Do your        |
|     own testing! More info at https://www.vasp.at/wiki/index.php/NCORE      |
|     Unfortunately you need to use the default for GW and RPA                |
|     calculations (for HF NCORE is supported but not extensively tested      |
|     yet).                                                                   |
|                                                                             |
 -----------------------------------------------------------------------------

 POTCAR:    PAW_PBE Cu 22Jun2005                  
   VRHFIN =Cu: d10 p1                                                                               
   LEXCH  = PE                                                                                      
   EATOM  =  1390.9808 eV,  102.2342 Ry                                                             
                                                                                                    
   TITEL  = PAW_PBE Cu 22Jun2005                                                                    
   LULTRA =        F    use ultrasoft PP ?                                                          
   IUNSCR =        1    unscreen: 0-lin 1-nonlin 2-no                                               
   RPACOR =    2.000    partial core radius                                                         
   POMASS =   63.546; ZVAL   =   11.000    mass and valenz                                          
   RCORE  =    2.300    outmost cutoff radius                                                       
   RWIGS  =    2.200; RWIGS  =    1.164    wigner-seitz radius (au A)                               
   ENMAX  =  295.446; ENMIN  =  221.585 eV                                                          
   ICORE  =        3    local potential                                                             
   LCOR   =        T    correct aug charges                                                         
   LPAW   =        T    paw PP                                                                      
   EAUG   =  586.980                                                                                
   DEXC   =    0.000                                                                                
   RMAX   =    2.344    core radius for proj-oper                                                   
   RAUG   =    1.300    factor for augmentation sphere                                              
   RDEP   =    2.302    radius for radial grids                                                     
   RDEPT  =    1.771    core radius for aug-charge                                                  
                                                                                                    
   Atomic configuration                                                                             
    9 entries                                                                                       
     n  l   j            E        occ.                                                              
     1  0  0.50     -8850.2468   2.0000                                                             
     2  0  0.50     -1062.3498   2.0000                                                             
     2  1  1.50      -916.8226   6.0000                                                             
     3  0  0.50      -114.6929   2.0000                                                             
     3  1  1.50       -72.1325   6.0000                                                             
     3  2  2.50        -5.0394  10.0000                                                             
     4  0  0.50        -4.6097   1.0000                                                             
     4  1  0.50        -4.0817   0.0000                                                             
     4  3  2.50        -1.3606   0.0000                                                             
   Description                                                                                      
     l       E           TYP  RCUT    TYP  RCUT                                                     
     2     -5.0393973     23  2.200                                                                 
     2     10.8846608     23  2.200                                                                 
     0     -4.6097109     23  2.200                                                                 
     0      8.2520465     23  2.200                                                                 
     1     -2.7211652     23  2.200                                                                 
     1     21.7055443     23  2.200                                                                 
     3      2.7211652     23  2.300                                                                 
  local pseudopotential read in
  partial core-charges read in
  partial kinetic energy density read in
  atomic valenz-charges read in
  non local Contribution for L=           2  read in
    real space projection operators read in
  non local Contribution for L=           2  read in
    real space projection operators read in
  non local Contribution for L=           0  read in
    real space projection operators read in
  non local Contribution for L=           0  read in
    real space projection operators read in
  non local Contribution for L=           1  read in
    real space projection operators read in
  non local Contribution for L=           1  read in
    real space projection operators read in
    PAW grid and wavefunctions read in
 
   number of l-projection  operators is LMAX  =           6
   number of lm-projection operators is LMMAX =          18
 
 POTCAR:    PAW_PBE Nb_sv 25May2007               
   VRHFIN =Nb: 4p5s4d                                                                               
   LEXCH  = PE                                                                                      
   EATOM  =  1555.1913 eV,  114.3033 Ry                                                             
                                                                                                    
   TITEL  = PAW_PBE Nb_sv 25May2007                                                                 
   LULTRA =        F    use ultrasoft PP ?                                                          
   IUNSCR =        1    unscreen: 0-lin 1-nonlin 2-no                                               
   RPACOR =    1.800    partial core radius                                                         
   POMASS =   92.910; ZVAL   =   13.000    mass and valenz                                          
   RCORE  =    2.400    outmost cutoff radius                                                       
   RWIGS  =    2.400; RWIGS  =    1.270    wigner-seitz radius (au A)                               
   ENMAX  =  293.235; ENMIN  =  219.927 eV                                                          
   ICORE  =        3    local potential                                                             
   LCOR   =        T    correct aug charges                                                         
   LPAW   =        T    paw PP                                                                      
   EAUG   =  455.659                                                                                
   DEXC   =    0.000                                                                                
   RMAX   =    2.456    core radius for proj-oper                                                   
   RAUG   =    1.300    factor for augmentation sphere                                              
   RDEP   =    2.451    radius for radial grids                                                     
   RDEPT  =    1.956    core radius for aug-charge                                                  
                                                                                                    
   Atomic configuration                                                                             
   11 entries                                                                                       
     n  l   j            E        occ.                                                              
     1  0  0.50    -18805.2457   2.0000                                                             
     2  0  0.50     -2630.2869   2.0000                                                             
     2  1  1.50     -2348.4046   6.0000                                                             
     3  0  0.50      -438.8757   2.0000                                                             
     3  1  1.50      -346.7588   6.0000                                                             
     3  2  2.50      -196.2560  10.0000                                                             
     4  0  0.50       -58.3859   2.0000                                                             
     5  0  0.50        -3.9816   1.0000                                                             
     4  1  1.50       -34.5141   6.0000                                                             
     4  2  2.50        -3.0408   4.0000                                                             
     4  3  2.50        -1.3606   0.0000                                                             
   Description                                                                                      
     l       E           TYP  RCUT    TYP  RCUT                                                     
     0    -58.3859094     23  2.200                                                                 
     0     -3.9816262     23  2.200                                                                 
     1    -34.5140738     23  2.200                                                                 
     1     13.6058260     23  2.200                                                                 
     2     -3.0408010     23  2.200                                                                 
     2     -0.1283038     23  2.200                                                                 
     3     -1.3605826     23  2.400                                                                 
  local pseudopotential read in
  partial core-charges read in
  partial kinetic energy density read in
  atomic valenz-charges read in
  non local Contribution for L=           0  read in
    real space projection operators read in
  non local Contribution for L=           0  read in
    real space projection operators read in
  non local Contribution for L=           1  read in
    real space projection operators read in
  non local Contribution for L=           1  read in
    real space projection operators read in
  non local Contribution for L=           2  read in
    real space projection operators read in
  non local Contribution for L=           2  read in
    real space projection operators read in
    PAW grid and wavefunctions read in
 
   number of l-projection  operators is LMAX  =           6
   number of lm-projection operators is LMMAX =          18
 
 POTCAR:    PAW_PBE H 15Jun2001                   
   VRHFIN =H: ultrasoft test                                                                        
   LEXCH  = PE                                                                                      
   EATOM  =    12.4884 eV,    0.9179 Ry                                                             
                                                                                                    
   TITEL  = PAW_PBE H 15Jun2001                                                                     
   LULTRA =        F    use ultrasoft PP ?                                                          
   IUNSCR =        0    unscreen: 0-lin 1-nonlin 2-no                                               
   RPACOR =    0.000    partial core radius                                                         
   POMASS =    1.000; ZVAL   =    1.000    mass and valenz                                          
   RCORE  =    1.100    outmost cutoff radius                                                       
   RWIGS  =    0.700; RWIGS  =    0.370    wigner-seitz radius (au A)                               
   ENMAX  =  250.000; ENMIN  =  200.000 eV                                                          
   RCLOC  =    0.701    cutoff for local pot                                                        
   LCOR   =        T    correct aug charges                                                         
   LPAW   =        T    paw PP                                                                      
   EAUG   =  400.000                                                                                
   RMAX   =    1.123    core radius for proj-oper                                                   
   RAUG   =    1.200    factor for augmentation sphere                                              
   RDEP   =    1.112    radius for radial grids                                                     
   RDEPT  =    0.926    core radius for aug-charge                                                  
                                                                                                    
   Atomic configuration                                                                             
    2 entries                                                                                       
     n  l   j            E        occ.                                                              
     1  0  0.50        -6.4927   1.0000                                                             
     2  1  0.50        -3.4015   0.0000                                                             
   Description                                                                                      
     l       E           TYP  RCUT    TYP  RCUT                                                     
     0     -6.4927494     23  1.100                                                                 
     0      6.8029130     23  1.100                                                                 
     1     -4.0817478     23  1.100                                                                 
  local pseudopotential read in
  atomic valenz-charges read in
  non local Contribution for L=           0  read in
    real space projection operators read in
  non local Contribution for L=           0  read in
    real space projection operators read in
  non local Contribution for L=           1  read in
    real space projection operators read in
    PAW grid and wavefunctions read in
 
   number of l-projection  operators is LMAX  =           3
   number of lm-projection operators is LMMAX =           5
 
 Optimization of the real space projectors (new method)

 maximal supplied QI-value         = 16.25
 optimisation between [QCUT,QGAM] = [ 11.38, 22.75] = [ 36.24,144.96] Ry 
 Optimized for a Real-space Cutoff    1.52 Angstroem

   l    n(q)    QCUT    max X(q) W(low)/X(q) W(high)/X(q)  e(spline) 
   2      9    11.376     4.610    0.21E-03    0.10E-03    0.26E-06
   2      9    11.376     8.522    0.33E-03    0.16E-03    0.37E-06
   0     10    11.376    51.609    0.62E-04    0.20E-04    0.13E-06
   0     10    11.376    27.747    0.54E-04    0.20E-04    0.13E-06
   1     10    11.376    20.408    0.13E-04    0.99E-04    0.19E-06
   1     10    11.376    13.425    0.12E-04    0.87E-04    0.17E-06
 Optimization of the real space projectors (new method)

 maximal supplied QI-value         = 15.68
 optimisation between [QCUT,QGAM] = [ 11.45, 22.90] = [ 36.71,146.85] Ry 
 Optimized for a Real-space Cutoff    1.56 Angstroem

   l    n(q)    QCUT    max X(q) W(low)/X(q) W(high)/X(q)  e(spline) 
   0     11    11.450    10.201    0.21E-04    0.96E-05    0.78E-07
   0     11    11.450     8.174    0.31E-04    0.18E-04    0.14E-06
   1     10    11.450     3.488    0.27E-04    0.12E-04    0.96E-07
   1     10    11.450     4.917    0.11E-03    0.11E-03    0.37E-06
   2     10    11.450   153.744    0.37E-03    0.81E-03    0.10E-05
   2     10    11.450   126.342    0.37E-03    0.81E-03    0.10E-05
 Optimization of the real space projectors (new method)

 maximal supplied QI-value         = 34.20
 optimisation between [QCUT,QGAM] = [ 11.29, 22.57] = [ 35.68,142.71] Ry 
 Optimized for a Real-space Cutoff    1.16 Angstroem

   l    n(q)    QCUT    max X(q) W(low)/X(q) W(high)/X(q)  e(spline) 
   0      8    11.287    19.460    0.40E-03    0.73E-03    0.16E-06
   0      8    11.287    12.209    0.38E-03    0.70E-03    0.15E-06
   1      7    11.287     4.655    0.22E-03    0.25E-04    0.22E-06
  PAW_PBE Cu 22Jun2005                  :
 energy of atom  1       EATOM=-1390.9808
 kinetic energy error for atom=    0.0043 (will be added to EATOM!!)
  PAW_PBE Nb_sv 25May2007               :
 energy of atom  2       EATOM=-1555.1913
 kinetic energy error for atom=    0.0069 (will be added to EATOM!!)
  PAW_PBE H 15Jun2001                   :
 energy of atom  3       EATOM=  -12.4884
 kinetic energy error for atom=    0.0020 (will be added to EATOM!!)
 
 
 POSCAR: Cu-Nb-H
  positions in direct lattice
  velocities in cartesian coordinates
 exchange correlation table for  LEXCH =        8
   RHO(1)=    0.500       N(1)  =     2000
   RHO(2)=  100.500       N(2)  =     4000

 VTST: version 3.2, (02/03/18)

 CHAIN: initializing optimizer
 
 OPT: Using VASP Conjugate-Gradient optimizer
 CHAIN: Read ICHAIN            0
 
 POSCAR: Cu-Nb-H
  positions in direct lattice
  velocities in cartesian coordinates
 


--------------------------------------------------------------------------------------------------------


 ion  position               nearest neighbor table
   1  0.000  0.000  0.252-   7 2.57   3 2.57   4 2.57   2 2.57   6 2.57   8 2.57  12 2.57  10 2.57
                            16 2.57
   2  0.333  0.000  0.252-   8 2.57   9 2.57   5 2.57   1 2.57   3 2.57  11 2.57   4 2.57  10 2.57
                            17 2.57
   3  0.667  0.000  0.252-   1 2.57   7 2.57   6 2.57   9 2.57   2 2.57  12 2.57   5 2.57  18 2.57
                            11 2.57
   4  0.000  0.333  0.252-   5 2.57   6 2.57   1 2.57   7 2.57   2 2.57  13 2.57   9 2.57  10 2.57
                            15 2.57
   5  0.333  0.333  0.252-   4 2.57   2 2.57   7 2.57  13 2.57   8 2.57   6 2.57   3 2.57  11 2.57
                            14 2.57
   6  0.667  0.333  0.252-   4 2.57   9 2.57  15 2.57   3 2.57   1 2.57   8 2.57  14 2.57   5 2.57
                            12 2.57
   7  0.000  0.667  0.252-   1 2.57   3 2.57  16 2.57  18 2.57   4 2.57   5 2.57   8 2.57   9 2.57
                            13 2.57
   8  0.333  0.667  0.252-   9 2.57   2 2.57  17 2.57   6 2.57   1 2.57   7 2.57   5 2.57  14 2.57
                            16 2.57
   9  0.667  0.667  0.252-   8 2.57   6 2.57   2 2.57  17 2.57   3 2.57   7 2.57   4 2.57  15 2.57
                            18 2.57
  10  0.111  0.111  0.351-  26 2.55  19 2.55  11 2.57  12 2.57  13 2.57   1 2.57   2 2.57   4 2.57
                            15 2.57  16 2.57  17 2.57  20 2.57
  11  0.444  0.111  0.351-  20 2.57  21 2.57  10 2.57  13 2.57   2 2.57  17 2.57  14 2.57  12 2.57
                             5 2.57   3 2.57  18 2.57  27 2.57
  12  0.778  0.111  0.351-  19 2.55  25 2.55  15 2.57  10 2.57  14 2.57  18 2.57   3 2.57   1 2.57
                            16 2.57  11 2.57   6 2.57  21 2.57
  13  0.111  0.444  0.351-  23 2.57  20 2.57  16 2.57  18 2.57  10 2.57  11 2.57  14 2.57   5 2.57
                             4 2.57   7 2.57  15 2.57  22 2.57
  14  0.444  0.444  0.351-  21 2.57  23 2.57  15 2.57  17 2.57  12 2.57  16 2.57  13 2.57  11 2.57
                             6 2.57   8 2.57   5 2.57  24 2.57
  15  0.778  0.444  0.351-  19 2.55  14 2.57  17 2.57  12 2.57   6 2.57  18 2.57  10 2.57   9 2.57
                            13 2.57   4 2.57  24 2.57  22 2.57
  16  0.111  0.778  0.351-  25 2.55  26 2.55  18 2.57  13 2.57   7 2.57  14 2.57  17 2.57  12 2.57
                            10 2.57   8 2.57   1 2.57  23 2.57
  17  0.444  0.778  0.351-  26 2.55  14 2.57  15 2.57   8 2.57   9 2.57  11 2.57  16 2.57  18 2.57
                            10 2.57   2 2.57  27 2.57  24 2.57
  18  0.778  0.778  0.351-  25 2.55  16 2.57  13 2.57   7 2.57  15 2.57  12 2.57  17 2.57   9 2.57
                             3 2.57  11 2.57  22 2.57  27 2.57
  19  0.889  0.222  0.448-  12 2.55  10 2.55  15 2.55  25 2.56  26 2.56  21 2.57  20 2.57  22 2.57
                            24 2.57  28 2.57  32 2.58  31 2.58
  20  0.222  0.222  0.449-  23 2.56  21 2.56  11 2.57  13 2.57  10 2.57  26 2.57  19 2.57  27 2.57
                            22 2.57  29 2.59  31 2.59  36 2.66
  21  0.555  0.222  0.449-  20 2.56  23 2.56  14 2.57  11 2.57  12 2.57  19 2.57  25 2.57  24 2.57
                            27 2.57  32 2.59  30 2.59  36 2.66
  22  0.889  0.556  0.449-  24 2.56  27 2.56  18 2.57  15 2.57  23 2.57  20 2.57  19 2.57  25 2.57
                            13 2.57  35 2.57  31 2.57  33 2.57
  23  0.222  0.555  0.449-  20 2.56  21 2.56  13 2.57  14 2.57  16 2.57  25 2.57  26 2.57  22 2.57
                            24 2.57  33 2.59  34 2.59  36 2.66
  24  0.556  0.556  0.449-  22 2.56  27 2.56  15 2.57  17 2.57  21 2.57  23 2.57  19 2.57  26 2.57
                            14 2.57  35 2.57  32 2.57  34 2.57
  25  0.889  0.889  0.448-  12 2.55  16 2.55  18 2.55  19 2.56  26 2.56  21 2.57  23 2.57  22 2.57
                            27 2.57  28 2.57  33 2.58  30 2.58
  26  0.222  0.889  0.448-  10 2.55  16 2.55  17 2.55  25 2.56  19 2.56  20 2.57  23 2.57  27 2.57
                            24 2.57  28 2.57  29 2.58  34 2.58
  27  0.556  0.889  0.449-  24 2.56  22 2.56  17 2.57  18 2.57  20 2.57  21 2.57  26 2.57  25 2.57
                            11 2.57  35 2.57  29 2.57  30 2.57
  28  0.000  0.000  0.547-  33 2.55  30 2.55  31 2.55  29 2.55  32 2.55  34 2.55  25 2.57  19 2.57
                            26 2.57
  29  0.334  0.996  0.548-  34 2.51  35 2.55  28 2.55  27 2.57  26 2.58  20 2.59  30 2.59  36 2.60
                            31 2.60
  30  0.670  0.996  0.548-  33 2.51  35 2.55  28 2.55  27 2.57  25 2.58  21 2.59  29 2.59  36 2.60
                            32 2.60
  31  0.996  0.334  0.548-  32 2.51  35 2.55  28 2.55  22 2.57  19 2.58  20 2.59  33 2.59  36 2.60
                            29 2.60
  32  0.670  0.334  0.548-  31 2.51  35 2.55  28 2.55  24 2.57  19 2.58  21 2.59  34 2.59  36 2.60
                            30 2.60
  33  0.996  0.670  0.548-  30 2.51  35 2.55  28 2.55  22 2.57  25 2.58  23 2.59  31 2.59  36 2.60
                            34 2.60
  34  0.334  0.670  0.548-  29 2.51  35 2.55  28 2.55  24 2.57  26 2.58  23 2.59  32 2.59  36 2.60
                            33 2.60
  35  0.667  0.667  0.548-  34 2.55  32 2.55  29 2.55  30 2.55  33 2.55  31 2.55  24 2.57  27 2.57
                            22 2.57
  36  0.333  0.333  0.553-  37 1.79  31 2.60  29 2.60  33 2.60  32 2.60  34 2.60  30 2.60  23 2.66
                            20 2.66  21 2.66
  37  0.333  0.333  0.637-  36 1.79
 
  LATTYP: Found a hexagonal cell.
 ALAT       =     7.6967864036
 C/A-ratio  =     2.7653617908
  
  Lattice vectors:
  
 A1 = (  -3.8483927580,  -6.6656128093,   0.0000000000)
 A2 = (   7.6967864037,   0.0000000000,   0.0000000000)
 A3 = (   0.0000000000,   0.0000000000,  21.2843990326)


Analysis of symmetry for initial positions (statically):
=====================================================================
 Subroutine PRICEL returns:
 Original cell was already a primitive cell.
 

 Routine SETGRP: Setting up the symmetry group for a 
 hexagonal supercell.


 Subroutine GETGRP returns: Found  6 space group operations
 (whereof  6 operations were pure point group operations)
 out of a pool of 24 trial point group operations.


The static configuration has the point symmetry C_3v.


Analysis of symmetry for dynamics (positions and initial velocities):
=====================================================================
 Subroutine PRICEL returns:
 Original cell was already a primitive cell.
 

 Routine SETGRP: Setting up the symmetry group for a 
 hexagonal supercell.


 Subroutine GETGRP returns: Found  6 space group operations
 (whereof  6 operations were pure point group operations)
 out of a pool of 24 trial point group operations.


The dynamic configuration has the point symmetry C_3v.


Analysis of constrained symmetry for selective dynamics:
=====================================================================
 Subroutine PRICEL returns:
 Original cell was already a primitive cell.
 

 Routine SETGRP: Setting up the symmetry group for a 
 hexagonal supercell.


 Subroutine GETGRP returns: Found  6 space group operations
 (whereof  6 operations were pure point group operations)
 out of a pool of 24 trial point group operations.


The constrained configuration has the point symmetry C_3v.


 Subroutine INISYM returns: Found  6 space group operations
 (whereof  6 operations are pure point group operations),
 and found     1 'primitive' translations


----------------------------------------------------------------------------------------

                                     Primitive cell                                     

  volume of cell :    1091.9705

  direct lattice vectors                    reciprocal lattice vectors
     7.696786404  0.000000000  0.000000000     0.129924354 -0.075011849  0.000000000
     3.848392758  6.665612809  0.000000000     0.000000000  0.150023716  0.000000000
     0.000000000  0.000000000 21.284399033     0.000000000  0.000000000  0.046982769

  length of vectors
     7.696786404  7.696786404 21.284399033     0.150023716  0.150023716  0.046982769

  position of ions in fractional coordinates (direct lattice)
     0.000000000  0.000000000  0.252370745
     0.333333343  0.000000000  0.252370745
     0.666666687  0.000000000  0.252370745
     1.000000000  0.333333343  0.252370745
     0.333333313  0.333333343  0.252370745
     0.666666687  0.333333343  0.252370745
     1.000000000  0.666666687  0.252370745
     0.333333373  0.666666687  0.252370745
     0.666666627  0.666666687  0.252370745
     0.111111119  0.111111112  0.350790262
     0.444444418  0.111111112  0.350790262
     0.777777791  0.111111112  0.350790262
     0.111111119  0.444444448  0.350790262
     0.444444478  0.444444448  0.350790262
     0.777777731  0.444444448  0.350790262
     0.111111112  0.777777731  0.350790262
     0.444444478  0.777777731  0.350790262
     0.777777851  0.777777731  0.350790262
     0.889090897  0.221818223  0.448310066
     0.222349378  0.222349363  0.449218249
     0.555301304  0.222349363  0.449218249
     0.888569748  0.555715096  0.449302056
     0.222349348  0.555301244  0.449218249
     0.555715156  0.555715096  0.449302056
     0.889090897  0.889090897  0.448310066
     0.221818238  0.889090897  0.448310066
     0.555715096  0.888569748  0.449302056
     0.000000000  0.000000000  0.547065294
     0.333604747  0.995966759  0.548152183
     0.670428523  0.995966759  0.548152183
     0.995966759  0.333604747  0.548152183
     0.670428523  0.333604747  0.548152183
     0.995966759  0.670428523  0.548152183
     0.333604777  0.670428523  0.548152183
     0.666666627  0.666666687  0.548113043
     0.333333313  0.333333343  0.553205439
     0.333333313  0.333333343  0.637416056

  ion indices of the primitive-cell ions
   primitive index   ion index
                 1           1
                 2           2
                 3           3
                 4           4
                 5           5
                 6           6
                 7           7
                 8           8
                 9           9
                10          10
                11          11
                12          12
                13          13
                14          14
                15          15
                16          16
                17          17
                18          18
                19          19
                20          20
                21          21
                22          22
                23          23
                24          24
                25          25
                26          26
                27          27
                28          28
                29          29
                30          30
                31          31
                32          32
                33          33
                34          34
                35          35
                36          36
                37          37

----------------------------------------------------------------------------------------

 
 
 KPOINTS: Automatic mesh                          

Automatic generation of k-mesh.
 Grid dimensions read from file:
 generate k-points for:    8    8    1

 Generating k-lattice:

  Cartesian coordinates                     Fractional coordinates (reciprocal lattice)
     0.016240544 -0.009376481  0.000000000     0.125000000 -0.000000000  0.000000000
     0.000000000  0.018752964  0.000000000     0.000000000  0.125000000  0.000000000
     0.000000000  0.000000000  0.046982769     0.000000000  0.000000000  1.000000000

  Length of vectors
     0.018752964  0.018752964  0.046982769

  Shift w.r.t. Gamma in fractional coordinates (k-lattice)
     0.000000000  0.000000000  0.000000000

 TETIRR: Found     36 inequivalent tetrahedra from      384
 
 Subroutine IBZKPT returns following result:
 ===========================================
 
 Found     10 irreducible k-points:
 
 Following reciprocal coordinates:
            Coordinates               Weight
  0.000000  0.000000  0.000000      1.000000
  0.125000 -0.000000  0.000000      6.000000
  0.250000 -0.000000  0.000000      6.000000
  0.375000 -0.000000  0.000000      6.000000
  0.500000 -0.000000  0.000000      3.000000
  0.250000  0.125000  0.000000      6.000000
  0.375000  0.125000  0.000000     12.000000
  0.500000  0.125000  0.000000     12.000000
  0.500000  0.250000  0.000000      6.000000
 -0.375000  0.250000  0.000000      6.000000
 
 Following cartesian coordinates:
            Coordinates               Weight
  0.000000  0.000000  0.000000      1.000000
  0.016241 -0.009376  0.000000      6.000000
  0.032481 -0.018753  0.000000      6.000000
  0.048722 -0.028129  0.000000      6.000000
  0.064962 -0.037506  0.000000      3.000000
  0.032481  0.000000  0.000000      6.000000
  0.048722 -0.009376  0.000000     12.000000
  0.064962 -0.018753  0.000000     12.000000
  0.064962  0.000000  0.000000      6.000000
 -0.048722  0.065635  0.000000      6.000000
 


--------------------------------------------------------------------------------------------------------




 Dimension of arrays:
   k-points           NKPTS =     10   k-points in BZ     NKDIM =     10   number of bands    NBANDS=    252
   number of dos      NEDOS =    301   number of ions     NIONS =     37
   non local maximal  LDIM  =      6   non local SUM 2l+1 LMDIM =     18
   total plane-waves  NPLWV = 211680
   max r-space proj   IRMAX =   3157   max aug-charges    IRDMAX=   8408
   dimension x,y,z NGX =    42 NGY =   42 NGZ =  120
   dimension x,y,z NGXF=    84 NGYF=   84 NGZF=  240
   support grid    NGXF=    84 NGYF=   84 NGZF=  240
   ions per type =              35   1   1
   NGX,Y,Z   is equivalent  to a cutoff of   9.07,  9.07,  9.37 a.u.
   NGXF,Y,Z  is equivalent  to a cutoff of  18.14, 18.14, 18.75 a.u.

 SYSTEM =  unknown system                          
 POSCAR =  Cu-Nb-H                                 

 Startparameter for this run:
   NWRITE =      2    write-flag & timer
   PREC   = normal    normal or accurate (medium, high low for compatibility)
   ISTART =      0    job   : 0-new  1-cont  2-samecut
   ICHARG =     11    charge: 1-file 2-atom 10-const
   ISPIN  =      1    spin polarized calculation?
   LNONCOLLINEAR =      F non collinear calculations
   LSORBIT =      F    spin-orbit coupling
   INIWAV =      1    electr: 0-lowe 1-rand  2-diag
   LASPH  =      F    aspherical Exc in radial PAW
   METAGGA=      F    non-selfconsistent MetaGGA calc.

 Electronic Relaxation 1
   ENCUT  =  500.0 eV  36.75 Ry    6.06 a.u.  14.03 14.03 38.81*2*pi/ulx,y,z
   ENINI  =  500.0     initial cutoff
   ENAUG  =  587.0 eV  augmentation charge cutoff
   NELM   =    150;   NELMIN=  2; NELMDL= -5     # of ELM steps 
   EDIFF  = 0.1E-04   stopping-criterion for ELM
   LREAL  =      T    real-space projection
   NLSPLINE    = F    spline interpolate recip. space projectors
   LCOMPAT=      F    compatible to vasp.4.4
   GGA_COMPAT  = T    GGA compatible to vasp.4.4-vasp.4.6
   LMAXPAW     = -100 max onsite density
   LMAXMIX     =    2 max onsite mixed and CHGCAR
   VOSKOWN=      0    Vosko Wilk Nusair interpolation
   ROPT   =   -0.00050  -0.00050  -0.00050
 Ionic relaxation
   EDIFFG = -.1E-01   stopping-criterion for IOM
   NSW    =      0    number of steps for IOM
   NBLOCK =      1;   KBLOCK =      1    inner block; outer block 
   IBRION =     -1    ionic relax: 0-MD 1-quasi-New 2-CG
   NFREE  =      1    steps in history (QN), initial steepest desc. (CG)
   ISIF   =      2    stress and relaxation
   IWAVPR =     10    prediction:  0-non 1-charg 2-wave 3-comb
   ISYM   =      2    0-nonsym 1-usesym 2-fastsym
   LCORR  =      T    Harris-Foulkes like correction to forces

   POTIM  = 0.5000    time-step for ionic-motion
   TEIN   =    0.0    initial temperature
   TEBEG  =    0.0;   TEEND  =   0.0 temperature during run
   SMASS  =  -3.00    Nose mass-parameter (am)
   estimated Nose-frequenzy (Omega)   =  0.10E-29 period in steps = 0.13E+47 mass=  -0.135E-26a.u.
   SCALEE = 1.0000    scale energy and forces
   NPACO  =    256;   APACO  = 16.0  distance and # of slots for P.C.
   PSTRESS=    0.0 pullay stress

  Mass of Ions in am
   POMASS =  63.55 92.91  1.00
  Ionic Valenz
   ZVAL   =  11.00 13.00  1.00
  Atomic Wigner-Seitz radii
   RWIGS  =  -1.00 -1.00 -1.00
  virtual crystal weights 
   VCA    =   1.00  1.00  1.00
   NELECT =     399.0000    total number of electrons
   NUPDOWN=      -1.0000    fix difference up-down

 DOS related values:
   EMIN   =  10.00;   EMAX   =-10.00  energy-range for DOS
   EFERMI =   0.00
   ISMEAR =    -5;   SIGMA  =   0.10  broadening in eV -4-tet -1-fermi 0-gaus

 Electronic relaxation 2 (details)
   IALGO  =     68    algorithm
   LDIAG  =      T    sub-space diagonalisation (order eigenvalues)
   LSUBROT=      F    optimize rotation matrix (better conditioning)
   TURBO    =      0    0=normal 1=particle mesh
   IRESTART =      0    0=no restart 2=restart with 2 vectors
   NREBOOT  =      0    no. of reboots
   NMIN     =      0    reboot dimension
   EREF     =   0.00    reference energy to select bands
   IMIX   =      4    mixing-type and parameters
     AMIX     =   0.40;   BMIX     =  1.00
     AMIX_MAG =   1.60;   BMIX_MAG =  1.00
     AMIN     =   0.10
     WC   =   100.;   INIMIX=   1;  MIXPRE=   1;  MAXMIX= -45

 Intra band minimization:
   WEIMIN = 0.0000     energy-eigenvalue tresh-hold
   EBREAK =  0.99E-08  absolut break condition
   DEPER  =   0.30     relativ break condition  

   TIME   =   0.40     timestep for ELM

  volume/ion in A,a.u.               =      29.51       199.16
  Fermi-wavevector in a.u.,A,eV,Ry     =   1.170385  2.211707 18.637282  1.369802
  Thomas-Fermi vector in A             =   2.306844
 
 Write flags
   LWAVE        =      F    write WAVECAR
   LDOWNSAMPLE  =      F    k-point downsampling of WAVECAR
   LCHARG       =      F    write CHGCAR
   LVTOT        =      F    write LOCPOT, total local potential
   LVHAR        =      F    write LOCPOT, Hartree potential only
   LELF         =      F    write electronic localiz. function (ELF)
   LORBIT       =     10    0 simple, 1 ext, 2 COOP (PROOUT), +10 PAW based schemes


 Dipole corrections
   LMONO  =      F    monopole corrections only (constant potential shift)
   LDIPOL =      F    correct potential (dipole corrections)
   IDIPOL =      0    1-x, 2-y, 3-z, 4-all directions 
   EPSILON=  1.0000000 bulk dielectric constant

 Exchange correlation treatment:
   GGA     =    --    GGA type
   LEXCH   =     8    internal setting for exchange type
   VOSKOWN=      0    Vosko Wilk Nusair interpolation
   LHFCALC =     F    Hartree Fock is set to
   LHFONE  =     F    Hartree Fock one center treatment
   AEXX    =    0.0000 exact exchange contribution

 Linear response parameters
   LEPSILON=     F    determine dielectric tensor
   LRPA    =     F    only Hartree local field effects (RPA)
   LNABLA  =     F    use nabla operator in PAW spheres
   LVEL    =     F    velocity operator in full k-point grid
   LINTERFAST=   F  fast interpolation
   KINTER  =     0    interpolate to denser k-point grid
   CSHIFT  =0.1000    complex shift for real part using Kramers Kronig
   OMEGAMAX=  -1.0    maximum frequency
   DEG_THRESHOLD= 0.2000000E-02 threshold for treating states as degnerate
   RTIME   =   -0.100 relaxation time in fs
  (WPLASMAI=    0.000 imaginary part of plasma frequency in eV, 0.658/RTIME)
   DFIELD  = 0.0000000 0.0000000 0.0000000 field for delta impulse in time
 
 Orbital magnetization related:
   ORBITALMAG=     F  switch on orbital magnetization
   LCHIMAG   =     F  perturbation theory with respect to B field
   DQ        =  0.001000  dq finite difference perturbation B field
   LLRAUG    =     F  two centre corrections for induced B field



--------------------------------------------------------------------------------------------------------


 Static calculation
 charge density and potential remain constant during run
 non-spin polarized calculation
 RMM-DIIS sequential band-by-band and
  variant of blocked Davidson during initial phase
 perform sub-space diagonalisation
    before iterative eigenvector-optimisation
 no mixing
 using additional bands           52
 real space projection scheme for non local part
 use partial core corrections
 calculate Harris-corrections to forces 
   (improved forces if not selfconsistent)
 use gradient corrections 
 WARNING: stress and forces are not correct
  (second derivative of E(xc) not defined)
 use of overlap-Matrix (Vanderbilt PP)
 Fermi weights with tetrahedron method with Bloechl corrections


--------------------------------------------------------------------------------------------------------


  energy-cutoff  :      500.00
  volume of cell :     1091.97
      direct lattice vectors                 reciprocal lattice vectors
     7.696786404  0.000000000  0.000000000     0.129924354 -0.075011849  0.000000000
     3.848392758  6.665612809  0.000000000     0.000000000  0.150023716  0.000000000
     0.000000000  0.000000000 21.284399033     0.000000000  0.000000000  0.046982769

  length of vectors
     7.696786404  7.696786404 21.284399033     0.150023716  0.150023716  0.046982769


 
 k-points in units of 2pi/SCALE and weight: Automatic mesh                          
   0.00000000  0.00000000  0.00000000       0.016
   0.01624054 -0.00937648  0.00000000       0.094
   0.03248109 -0.01875296  0.00000000       0.094
   0.04872163 -0.02812944  0.00000000       0.094
   0.06496218 -0.03750592  0.00000000       0.047
   0.03248109  0.00000000  0.00000000       0.094
   0.04872163 -0.00937648  0.00000000       0.188
   0.06496218 -0.01875296  0.00000000       0.188
   0.06496218  0.00000000  0.00000000       0.094
  -0.04872163  0.06563537  0.00000000       0.094
 
 k-points in reciprocal lattice and weights: Automatic mesh                          
   0.00000000  0.00000000  0.00000000       0.016
   0.12500000 -0.00000000  0.00000000       0.094
   0.25000000 -0.00000000  0.00000000       0.094
   0.37500000 -0.00000000  0.00000000       0.094
   0.50000000 -0.00000000  0.00000000       0.047
   0.25000000  0.12500000  0.00000000       0.094
   0.37500000  0.12500000  0.00000000       0.188
   0.50000000  0.12500000  0.00000000       0.188
   0.50000000  0.25000000  0.00000000       0.094
  -0.37500000  0.25000000  0.00000000       0.094
 
 position of ions in fractional coordinates (direct lattice) 
   0.00000000  0.00000000  0.25237075
   0.33333334  0.00000000  0.25237075
   0.66666669  0.00000000  0.25237075
   0.00000000  0.33333334  0.25237075
   0.33333331  0.33333334  0.25237075
   0.66666669  0.33333334  0.25237075
   0.00000000  0.66666669  0.25237075
   0.33333337  0.66666669  0.25237075
   0.66666663  0.66666669  0.25237075
   0.11111112  0.11111111  0.35079026
   0.44444442  0.11111111  0.35079026
   0.77777779  0.11111111  0.35079026
   0.11111112  0.44444445  0.35079026
   0.44444448  0.44444445  0.35079026
   0.77777773  0.44444445  0.35079026
   0.11111111  0.77777773  0.35079026
   0.44444448  0.77777773  0.35079026
   0.77777785  0.77777773  0.35079026
   0.88909090  0.22181822  0.44831007
   0.22234938  0.22234936  0.44921825
   0.55530130  0.22234936  0.44921825
   0.88856975  0.55571510  0.44930206
   0.22234935  0.55530124  0.44921825
   0.55571516  0.55571510  0.44930206
   0.88909090  0.88909090  0.44831007
   0.22181824  0.88909090  0.44831007
   0.55571510  0.88856975  0.44930206
   0.00000000  0.00000000  0.54706529
   0.33360475  0.99596676  0.54815218
   0.67042852  0.99596676  0.54815218
   0.99596676  0.33360475  0.54815218
   0.67042852  0.33360475  0.54815218
   0.99596676  0.67042852  0.54815218
   0.33360478  0.67042852  0.54815218
   0.66666663  0.66666669  0.54811304
   0.33333331  0.33333334  0.55320544
   0.33333331  0.33333334  0.63741606
 
 position of ions in cartesian coordinates  (Angst):
   0.00000000  0.00000000  5.37155964
   2.56559554  0.00000000  5.37155964
   5.13119109  0.00000000  5.37155964
   1.28279762  2.22187100  5.37155964
   3.84839293  2.22187100  5.37155964
   6.41398872  2.22187100  5.37155964
   2.56559525  4.44374201  5.37155964
   5.13119102  4.44374201  5.37155964
   7.69678588  4.44374201  5.37155964
   1.28279775  0.74062365  7.46635991
   3.84839295  0.74062365  7.46635991
   6.41398873  0.74062365  7.46635991
   2.56559535  2.96249461  7.46635991
   5.13119101  2.96249461  7.46635991
   7.69678586  2.96249461  7.46635991
   3.84839268  5.18436521  7.46635991
   6.41398840  5.18436521  7.46635991
   8.97958418  5.18436521  7.46635991
   7.69678637  1.47855439  9.54201033
   2.56706335  1.48209476  9.56134047
   5.12972320  1.48209476  9.56134047
   8.97774150  3.70418166  9.56312425
   3.84839272  3.70142308  9.56134047
   6.41583081  3.70418166  9.56312425
  10.26471369  5.92633567  9.54201033
   5.12885856  5.92633567  9.54201033
   7.69678578  5.92286189  9.56312425
   0.00000000  0.00000000 11.64395601
   6.40055575  6.63872879 11.66708979
   8.99301641  6.63872879 11.66708979
   8.94958550  2.22368008 11.66708979
   6.44398724  2.22368008 11.66708979
  10.24581568  4.46881695 11.66708979
   5.14775699  4.46881695 11.66708979
   7.69678588  4.44374201 11.66625673
   3.84839293  2.22187100 11.77464531
   3.84839293  2.22187100 13.56701768
 


--------------------------------------------------------------------------------------------------------


 k-point   1 :   0.0000 0.0000 0.0000  plane waves:   27671
 k-point   2 :   0.1250-0.0000 0.0000  plane waves:   27649
 k-point   3 :   0.2500-0.0000 0.0000  plane waves:   27714
 k-point   4 :   0.3750-0.0000 0.0000  plane waves:   27740
 k-point   5 :   0.5000-0.0000 0.0000  plane waves:   27782
 k-point   6 :   0.2500 0.1250 0.0000  plane waves:   27698
 k-point   7 :   0.3750 0.1250 0.0000  plane waves:   27702
 k-point   8 :   0.5000 0.1250 0.0000  plane waves:   27747
 k-point   9 :   0.5000 0.2500 0.0000  plane waves:   27734
 k-point  10 :  -0.3750 0.2500 0.0000  plane waves:   27782

 maximum and minimum number of plane-waves per node :     27782    27649

 maximum number of plane-waves:     27782
 maximum index in each direction: 
   IXMAX=   14   IYMAX=   14   IZMAX=   38
   IXMIN=  -14   IYMIN=  -14   IZMIN=  -38


 serial   3D FFT for wavefunctions
 parallel 3D FFT for charge:
    minimum data exchange during FFTs selected (reduces bandwidth)


 total amount of memory used by VASP MPI-rank0   104714. kBytes
=======================================================================

   base      :      30000. kBytes
   nonlr-proj:      17828. kBytes
   fftplans  :       2916. kBytes
   grid      :      12390. kBytes
   one-center:        575. kBytes
   wavefun   :      41005. kBytes
 
     INWAV:  cpu time    0.0000: real time    0.0000
 initial charge density was supplied:
 number of electron     399.0000324 magnetization 
 keeping initial charge density in first step


--------------------------------------------------------------------------------------------------------


 Maximum index for non-local projection operator         3006
 Maximum index for augmentation-charges          444 (set IRDMAX)


--------------------------------------------------------------------------------------------------------


 First call to EWALD:  gamma=   0.172
 Maximum number of real-space cells 4x 4x 2
 Maximum number of reciprocal cells 2x 2x 5

    FEWALD:  cpu time    0.0013: real time    0.0013


--------------------------------------- Iteration      1(   1)  ---------------------------------------


    POTLOK:  cpu time    0.0265: real time    0.0269
    SETDIJ:  cpu time    0.0040: real time    0.0041
     EDDAV:  cpu time    5.7318: real time    5.7335
 BZINTS: Fermi energy:   13.830919;  399.000000 electrons
         Band energy: 0.248663E+04;  BLOECHL correction:   -0.030176
       DOS:  cpu time    0.0105: real time    0.0106
    --------------------------------------------
      LOOP:  cpu time    5.7729: real time    5.7751

 eigenvalue-minimisations  :  5040
 total energy-change (2. order) : 0.3745669E+04  (-0.1722986E+05)
 number of electron     399.0000324 magnetization 
 augmentation part      399.0000324 magnetization 

 Free energy of the ion-electron system (eV)
  ---------------------------------------------------
  alpha Z        PSCENC =       893.04121840
  Ewald energy   TEWEN  =    148434.41264936
  -Hartree energ DENC   =   -196189.71296859
  -exchange      EXHF   =         0.00000000
  -V(xc)+E(xc)   XCENC  =      1616.02403976
  PAW double counting   =     47080.17262405   -50826.74581817
  entropy T*S    EENTRO =         0.00000000
  eigenvalues    EBANDS =      2486.62718970
  atomic energy  EATOM  =     50251.84996104
  Solvation  Ediel_sol  =         0.00000000
  ---------------------------------------------------
  free energy    TOTEN  =      3745.66889555 eV

  energy without entropy =     3745.66889555  energy(sigma->0) =     3745.66889555


--------------------------------------------------------------------------------------------------------




--------------------------------------- Iteration      1(   2)  ---------------------------------------


     EDDAV:  cpu time    5.9654: real time    5.9656
 BZINTS: Fermi energy:    3.171778;  399.000000 electrons
         Band energy:-0.877240E+03;  BLOECHL correction:   -0.022159
       DOS:  cpu time    0.0102: real time    0.0129
    --------------------------------------------
      LOOP:  cpu time    5.9756: real time    5.9785

 eigenvalue-minimisations  :  5292
 total energy-change (2. order) :-0.3363867E+04  (-0.3227555E+04)
 number of electron     399.0000324 magnetization 
 augmentation part      399.0000324 magnetization 

 Free energy of the ion-electron system (eV)
  ---------------------------------------------------
  alpha Z        PSCENC =       893.04121840
  Ewald energy   TEWEN  =    148434.41264936
  -Hartree energ DENC   =   -196189.71296859
  -exchange      EXHF   =         0.00000000
  -V(xc)+E(xc)   XCENC  =      1616.02403976
  PAW double counting   =     47080.17262405   -50826.74581817
  entropy T*S    EENTRO =         0.00000000
  eigenvalues    EBANDS =      -877.23994750
  atomic energy  EATOM  =     50251.84996104
  Solvation  Ediel_sol  =         0.00000000
  ---------------------------------------------------
  free energy    TOTEN  =       381.80175835 eV

  energy without entropy =      381.80175835  energy(sigma->0) =      381.80175835


--------------------------------------------------------------------------------------------------------




--------------------------------------- Iteration      1(   3)  ---------------------------------------


     EDDAV:  cpu time    6.0508: real time    6.0511
 BZINTS: Fermi energy:    0.380898;  399.000000 electrons
         Band energy:-0.136059E+04;  BLOECHL correction:   -0.045266
       DOS:  cpu time    0.0099: real time    0.0099
    --------------------------------------------
      LOOP:  cpu time    6.0607: real time    6.0610

 eigenvalue-minimisations  :  5376
 total energy-change (2. order) :-0.4833489E+03  (-0.4574829E+03)
 number of electron     399.0000324 magnetization 
 augmentation part      399.0000324 magnetization 

 Free energy of the ion-electron system (eV)
  ---------------------------------------------------
  alpha Z        PSCENC =       893.04121840
  Ewald energy   TEWEN  =    148434.41264936
  -Hartree energ DENC   =   -196189.71296859
  -exchange      EXHF   =         0.00000000
  -V(xc)+E(xc)   XCENC  =      1616.02403976
  PAW double counting   =     47080.17262405   -50826.74581817
  entropy T*S    EENTRO =         0.00000000
  eigenvalues    EBANDS =     -1360.58889605
  atomic energy  EATOM  =     50251.84996104
  Solvation  Ediel_sol  =         0.00000000
  ---------------------------------------------------
  free energy    TOTEN  =      -101.54719020 eV

  energy without entropy =     -101.54719020  energy(sigma->0) =     -101.54719020


--------------------------------------------------------------------------------------------------------




--------------------------------------- Iteration      1(   4)  ---------------------------------------


     EDDAV:  cpu time    7.9435: real time    7.9436
 BZINTS: Fermi energy:    0.099478;  399.000000 electrons
         Band energy:-0.139178E+04;  BLOECHL correction:   -0.023551
       DOS:  cpu time    0.0102: real time    0.0102
    --------------------------------------------
      LOOP:  cpu time    7.9537: real time    7.9539

 eigenvalue-minimisations  :  7420
 total energy-change (2. order) :-0.3119610E+02  (-0.3007940E+02)
 number of electron     399.0000324 magnetization 
 augmentation part      399.0000324 magnetization 

 Free energy of the ion-electron system (eV)
  ---------------------------------------------------
  alpha Z        PSCENC =       893.04121840
  Ewald energy   TEWEN  =    148434.41264936
  -Hartree energ DENC   =   -196189.71296859
  -exchange      EXHF   =         0.00000000
  -V(xc)+E(xc)   XCENC  =      1616.02403976
  PAW double counting   =     47080.17262405   -50826.74581817
  entropy T*S    EENTRO =         0.00000000
  eigenvalues    EBANDS =     -1391.78499960
  atomic energy  EATOM  =     50251.84996104
  Solvation  Ediel_sol  =         0.00000000
  ---------------------------------------------------
  free energy    TOTEN  =      -132.74329375 eV

  energy without entropy =     -132.74329375  energy(sigma->0) =     -132.74329375


--------------------------------------------------------------------------------------------------------




--------------------------------------- Iteration      1(   5)  ---------------------------------------


     EDDAV:  cpu time    9.0085: real time    9.0085
 BZINTS: Fermi energy:    0.081405;  399.000000 electrons
         Band energy:-0.139322E+04;  BLOECHL correction:   -0.022433
       DOS:  cpu time    0.0100: real time    0.0100
    --------------------------------------------
      LOOP:  cpu time    9.0184: real time    9.0185

 eigenvalue-minimisations  :  8596
 total energy-change (2. order) :-0.1430176E+01  (-0.1424123E+01)
 number of electron     399.0000324 magnetization 
 augmentation part      399.0000324 magnetization 

 Free energy of the ion-electron system (eV)
  ---------------------------------------------------
  alpha Z        PSCENC =       893.04121840
  Ewald energy   TEWEN  =    148434.41264936
  -Hartree energ DENC   =   -196189.71296859
  -exchange      EXHF   =         0.00000000
  -V(xc)+E(xc)   XCENC  =      1616.02403976
  PAW double counting   =     47080.17262405   -50826.74581817
  entropy T*S    EENTRO =         0.00000000
  eigenvalues    EBANDS =     -1393.21517564
  atomic energy  EATOM  =     50251.84996104
  Solvation  Ediel_sol  =         0.00000000
  ---------------------------------------------------
  free energy    TOTEN  =      -134.17346979 eV

  energy without entropy =     -134.17346979  energy(sigma->0) =     -134.17346979


--------------------------------------------------------------------------------------------------------




--------------------------------------- Iteration      1(   6)  ---------------------------------------


    EDDIAG:  cpu time    1.1015: real time    1.1020
  RMM-DIIS:  cpu time    3.3560: real time    3.3561
    ORTHCH:  cpu time    0.2061: real time    0.2061
 BZINTS: Fermi energy:    0.081279;  399.000000 electrons
         Band energy:-0.139323E+04;  BLOECHL correction:   -0.022428
       DOS:  cpu time    0.0101: real time    0.0101
    --------------------------------------------
      LOOP:  cpu time    4.6738: real time    4.6743

 eigenvalue-minimisations  :  5787
 total energy-change (2. order) :-0.1931607E-01  (-0.1932255E-01)
 number of electron     399.0000324 magnetization 
 augmentation part      399.0000324 magnetization 

 Free energy of the ion-electron system (eV)
  ---------------------------------------------------
  alpha Z        PSCENC =       893.04121840
  Ewald energy   TEWEN  =    148434.41264936
  -Hartree energ DENC   =   -196189.71296859
  -exchange      EXHF   =         0.00000000
  -V(xc)+E(xc)   XCENC  =      1616.02403976
  PAW double counting   =     47080.17262405   -50826.74581817
  entropy T*S    EENTRO =         0.00000000
  eigenvalues    EBANDS =     -1393.23449172
  atomic energy  EATOM  =     50251.84996104
  Solvation  Ediel_sol  =         0.00000000
  ---------------------------------------------------
  free energy    TOTEN  =      -134.19278587 eV

  energy without entropy =     -134.19278587  energy(sigma->0) =     -134.19278587


--------------------------------------------------------------------------------------------------------




--------------------------------------- Iteration      1(   7)  ---------------------------------------


    EDDIAG:  cpu time    1.0979: real time    1.0980
  RMM-DIIS:  cpu time    4.7170: real time    4.7170
    ORTHCH:  cpu time    0.2060: real time    0.2060
 BZINTS: Fermi energy:    0.081225;  399.000000 electrons
         Band energy:-0.139324E+04;  BLOECHL correction:   -0.022426
       DOS:  cpu time    0.0100: real time    0.0100
    --------------------------------------------
      LOOP:  cpu time    6.0309: real time    6.0310

 eigenvalue-minimisations  :  8260
 total energy-change (2. order) :-0.8224194E-02  (-0.8042907E-02)
 number of electron     399.0000324 magnetization 
 augmentation part      399.0000324 magnetization 

 Free energy of the ion-electron system (eV)
  ---------------------------------------------------
  alpha Z        PSCENC =       893.04121840
  Ewald energy   TEWEN  =    148434.41264936
  -Hartree energ DENC   =   -196189.71296859
  -exchange      EXHF   =         0.00000000
  -V(xc)+E(xc)   XCENC  =      1616.02403976
  PAW double counting   =     47080.17262405   -50826.74581817
  entropy T*S    EENTRO =         0.00000000
  eigenvalues    EBANDS =     -1393.24271591
  atomic energy  EATOM  =     50251.84996104
  Solvation  Ediel_sol  =         0.00000000
  ---------------------------------------------------
  free energy    TOTEN  =      -134.20101006 eV

  energy without entropy =     -134.20101006  energy(sigma->0) =     -134.20101006


--------------------------------------------------------------------------------------------------------




--------------------------------------- Iteration      1(   8)  ---------------------------------------


    EDDIAG:  cpu time    1.0979: real time    1.0981
  RMM-DIIS:  cpu time    5.3136: real time    5.3136
    ORTHCH:  cpu time    0.2062: real time    0.2062
 BZINTS: Fermi energy:    0.081215;  399.000000 electrons
         Band energy:-0.139324E+04;  BLOECHL correction:   -0.022426
       DOS:  cpu time    0.0104: real time    0.0103
    --------------------------------------------
      LOOP:  cpu time    6.6280: real time    6.6282

 eigenvalue-minimisations  :  9308
 total energy-change (2. order) :-0.1892756E-02  (-0.1782972E-02)
 number of electron     399.0000324 magnetization 
 augmentation part      399.0000324 magnetization 

 Free energy of the ion-electron system (eV)
  ---------------------------------------------------
  alpha Z        PSCENC =       893.04121840
  Ewald energy   TEWEN  =    148434.41264936
  -Hartree energ DENC   =   -196189.71296859
  -exchange      EXHF   =         0.00000000
  -V(xc)+E(xc)   XCENC  =      1616.02403976
  PAW double counting   =     47080.17262405   -50826.74581817
  entropy T*S    EENTRO =         0.00000000
  eigenvalues    EBANDS =     -1393.24460867
  atomic energy  EATOM  =     50251.84996104
  Solvation  Ediel_sol  =         0.00000000
  ---------------------------------------------------
  free energy    TOTEN  =      -134.20290282 eV

  energy without entropy =     -134.20290282  energy(sigma->0) =     -134.20290282


--------------------------------------------------------------------------------------------------------




--------------------------------------- Iteration      1(   9)  ---------------------------------------


    EDDIAG:  cpu time    1.0987: real time    1.0988
  RMM-DIIS:  cpu time    5.2198: real time    5.2198
    ORTHCH:  cpu time    0.2061: real time    0.2061
 BZINTS: Fermi energy:    0.081209;  399.000000 electrons
         Band energy:-0.139325E+04;  BLOECHL correction:   -0.022426
       DOS:  cpu time    0.0103: real time    0.0103
    --------------------------------------------
      LOOP:  cpu time    6.5350: real time    6.5350

 eigenvalue-minimisations  :  8922
 total energy-change (2. order) :-0.6747281E-03  (-0.6106132E-03)
 number of electron     399.0000324 magnetization 
 augmentation part      399.0000324 magnetization 

 Free energy of the ion-electron system (eV)
  ---------------------------------------------------
  alpha Z        PSCENC =       893.04121840
  Ewald energy   TEWEN  =    148434.41264936
  -Hartree energ DENC   =   -196189.71296859
  -exchange      EXHF   =         0.00000000
  -V(xc)+E(xc)   XCENC  =      1616.02403976
  PAW double counting   =     47080.17262405   -50826.74581817
  entropy T*S    EENTRO =         0.00000000
  eigenvalues    EBANDS =     -1393.24528339
  atomic energy  EATOM  =     50251.84996104
  Solvation  Ediel_sol  =         0.00000000
  ---------------------------------------------------
  free energy    TOTEN  =      -134.20357755 eV

  energy without entropy =     -134.20357755  energy(sigma->0) =     -134.20357755


--------------------------------------------------------------------------------------------------------




--------------------------------------- Iteration      1(  10)  ---------------------------------------


    EDDIAG:  cpu time    1.1047: real time    1.1047
  RMM-DIIS:  cpu time    4.6965: real time    4.6965
    ORTHCH:  cpu time    0.2060: real time    0.2060
 BZINTS: Fermi energy:    0.081207;  399.000000 electrons
         Band energy:-0.139325E+04;  BLOECHL correction:   -0.022426
       DOS:  cpu time    0.0104: real time    0.0104
    --------------------------------------------
      LOOP:  cpu time    6.0175: real time    6.0176

 eigenvalue-minimisations  :  7804
 total energy-change (2. order) :-0.3049464E-03  (-0.2783310E-03)
 number of electron     399.0000324 magnetization 
 augmentation part      399.0000324 magnetization 

 Free energy of the ion-electron system (eV)
  ---------------------------------------------------
  alpha Z        PSCENC =       893.04121840
  Ewald energy   TEWEN  =    148434.41264936
  -Hartree energ DENC   =   -196189.71296859
  -exchange      EXHF   =         0.00000000
  -V(xc)+E(xc)   XCENC  =      1616.02403976
  PAW double counting   =     47080.17262405   -50826.74581817
  entropy T*S    EENTRO =         0.00000000
  eigenvalues    EBANDS =     -1393.24558834
  atomic energy  EATOM  =     50251.84996104
  Solvation  Ediel_sol  =         0.00000000
  ---------------------------------------------------
  free energy    TOTEN  =      -134.20388249 eV

  energy without entropy =     -134.20388249  energy(sigma->0) =     -134.20388249


--------------------------------------------------------------------------------------------------------




--------------------------------------- Iteration      1(  11)  ---------------------------------------


    EDDIAG:  cpu time    1.1030: real time    1.1032
  RMM-DIIS:  cpu time    4.4828: real time    4.4828
    ORTHCH:  cpu time    0.2059: real time    0.2059
 BZINTS: Fermi energy:    0.081205;  399.000000 electrons
         Band energy:-0.139325E+04;  BLOECHL correction:   -0.022426
       DOS:  cpu time    0.0104: real time    0.0104
    --------------------------------------------
      LOOP:  cpu time    5.8020: real time    5.8023

 eigenvalue-minimisations  :  7393
 total energy-change (2. order) :-0.1388876E-03  (-0.1284495E-03)
 number of electron     399.0000324 magnetization 
 augmentation part      399.0000324 magnetization 

 Free energy of the ion-electron system (eV)
  ---------------------------------------------------
  alpha Z        PSCENC =       893.04121840
  Ewald energy   TEWEN  =    148434.41264936
  -Hartree energ DENC   =   -196189.71296859
  -exchange      EXHF   =         0.00000000
  -V(xc)+E(xc)   XCENC  =      1616.02403976
  PAW double counting   =     47080.17262405   -50826.74581817
  entropy T*S    EENTRO =         0.00000000
  eigenvalues    EBANDS =     -1393.24572723
  atomic energy  EATOM  =     50251.84996104
  Solvation  Ediel_sol  =         0.00000000
  ---------------------------------------------------
  free energy    TOTEN  =      -134.20402138 eV

  energy without entropy =     -134.20402138  energy(sigma->0) =     -134.20402138


--------------------------------------------------------------------------------------------------------




--------------------------------------- Iteration      1(  12)  ---------------------------------------


    EDDIAG:  cpu time    1.1030: real time    1.1031
  RMM-DIIS:  cpu time    4.0812: real time    4.0812
    ORTHCH:  cpu time    0.2055: real time    0.2056
 BZINTS: Fermi energy:    0.081205;  399.000000 electrons
         Band energy:-0.139325E+04;  BLOECHL correction:   -0.022426
       DOS:  cpu time    0.0103: real time    0.0103
    --------------------------------------------
      LOOP:  cpu time    5.4001: real time    5.4002

 eigenvalue-minimisations  :  6634
 total energy-change (2. order) :-0.6678174E-04  (-0.6246563E-04)
 number of electron     399.0000324 magnetization 
 augmentation part      399.0000324 magnetization 

 Free energy of the ion-electron system (eV)
  ---------------------------------------------------
  alpha Z        PSCENC =       893.04121840
  Ewald energy   TEWEN  =    148434.41264936
  -Hartree energ DENC   =   -196189.71296859
  -exchange      EXHF   =         0.00000000
  -V(xc)+E(xc)   XCENC  =      1616.02403976
  PAW double counting   =     47080.17262405   -50826.74581817
  entropy T*S    EENTRO =         0.00000000
  eigenvalues    EBANDS =     -1393.24579401
  atomic energy  EATOM  =     50251.84996104
  Solvation  Ediel_sol  =         0.00000000
  ---------------------------------------------------
  free energy    TOTEN  =      -134.20408816 eV

  energy without entropy =     -134.20408816  energy(sigma->0) =     -134.20408816


--------------------------------------------------------------------------------------------------------




--------------------------------------- Iteration      1(  13)  ---------------------------------------


    EDDIAG:  cpu time    1.1014: real time    1.1014
  RMM-DIIS:  cpu time    3.8558: real time    3.8558
    ORTHCH:  cpu time    0.2058: real time    0.2058
 BZINTS: Fermi energy:    0.081204;  399.000000 electrons
         Band energy:-0.139325E+04;  BLOECHL correction:   -0.022426
       DOS:  cpu time    0.0103: real time    0.0103
    --------------------------------------------
      LOOP:  cpu time    5.1733: real time    5.1733

 eigenvalue-minimisations  :  6158
 total energy-change (2. order) :-0.3188188E-04  (-0.3048333E-04)
 number of electron     399.0000324 magnetization 
 augmentation part      399.0000324 magnetization 

 Free energy of the ion-electron system (eV)
  ---------------------------------------------------
  alpha Z        PSCENC =       893.04121840
  Ewald energy   TEWEN  =    148434.41264936
  -Hartree energ DENC   =   -196189.71296859
  -exchange      EXHF   =         0.00000000
  -V(xc)+E(xc)   XCENC  =      1616.02403976
  PAW double counting   =     47080.17262405   -50826.74581817
  entropy T*S    EENTRO =         0.00000000
  eigenvalues    EBANDS =     -1393.24582589
  atomic energy  EATOM  =     50251.84996104
  Solvation  Ediel_sol  =         0.00000000
  ---------------------------------------------------
  free energy    TOTEN  =      -134.20412004 eV

  energy without entropy =     -134.20412004  energy(sigma->0) =     -134.20412004


--------------------------------------------------------------------------------------------------------




--------------------------------------- Iteration      1(  14)  ---------------------------------------


    EDDIAG:  cpu time    1.1002: real time    1.1003
  RMM-DIIS:  cpu time    3.4347: real time    3.4347
    ORTHCH:  cpu time    0.2060: real time    0.2060
 BZINTS: Fermi energy:    0.081204;  399.000000 electrons
         Band energy:-0.139325E+04;  BLOECHL correction:   -0.022427
       DOS:  cpu time    0.0103: real time    0.0103
    --------------------------------------------
      LOOP:  cpu time    4.7511: real time    4.7513

 eigenvalue-minimisations  :  5452
 total energy-change (2. order) :-0.1562532E-04  (-0.1518115E-04)
 number of electron     399.0000324 magnetization 
 augmentation part      399.0000324 magnetization 

 Free energy of the ion-electron system (eV)
  ---------------------------------------------------
  alpha Z        PSCENC =       893.04121840
  Ewald energy   TEWEN  =    148434.41264936
  -Hartree energ DENC   =   -196189.71296859
  -exchange      EXHF   =         0.00000000
  -V(xc)+E(xc)   XCENC  =      1616.02403976
  PAW double counting   =     47080.17262405   -50826.74581817
  entropy T*S    EENTRO =         0.00000000
  eigenvalues    EBANDS =     -1393.24584152
  atomic energy  EATOM  =     50251.84996104
  Solvation  Ediel_sol  =         0.00000000
  ---------------------------------------------------
  free energy    TOTEN  =      -134.20413567 eV

  energy without entropy =     -134.20413567  energy(sigma->0) =     -134.20413567


--------------------------------------------------------------------------------------------------------




--------------------------------------- Iteration      1(  15)  ---------------------------------------


    EDDIAG:  cpu time    1.1002: real time    1.1002
  RMM-DIIS:  cpu time    3.2022: real time    3.2022
    ORTHCH:  cpu time    0.2062: real time    0.2062
 BZINTS: Fermi energy:    0.081204;  399.000000 electrons
         Band energy:-0.139325E+04;  BLOECHL correction:   -0.022427
       DOS:  cpu time    0.0101: real time    0.0101
    --------------------------------------------
      LOOP:  cpu time    4.5187: real time    4.5188

 eigenvalue-minimisations  :  4926
 total energy-change (2. order) :-0.7762079E-05  (-0.7755858E-05)
 number of electron     399.0000324 magnetization 
 augmentation part      399.0000324 magnetization 

 Free energy of the ion-electron system (eV)
  ---------------------------------------------------
  alpha Z        PSCENC =       893.04121840
  Ewald energy   TEWEN  =    148434.41264936
  -Hartree energ DENC   =   -196189.71296859
  -exchange      EXHF   =         0.00000000
  -V(xc)+E(xc)   XCENC  =      1616.02403976
  PAW double counting   =     47080.17262405   -50826.74581817
  entropy T*S    EENTRO =         0.00000000
  eigenvalues    EBANDS =     -1393.24584928
  atomic energy  EATOM  =     50251.84996104
  Solvation  Ediel_sol  =         0.00000000
  ---------------------------------------------------
  free energy    TOTEN  =      -134.20414343 eV

  energy without entropy =     -134.20414343  energy(sigma->0) =     -134.20414343


--------------------------------------------------------------------------------------------------------




 average (electrostatic) potential at core
  the test charge radii are     0.9430  1.0703  0.5201
  (the norm of the test charge is              1.0000)
       1 -70.9072       2 -70.9185       3 -70.9184       4 -70.9185       5 -70.9312
       6 -70.9181       7 -70.9184       8 -70.9181       9 -70.9093      10 -71.1967
      11 -71.1762      12 -71.1964      13 -71.1762      14 -71.1758      15 -71.1737
      16 -71.1964      17 -71.1737      18 -71.1738      19 -71.1898      20 -71.3466
      21 -71.3462      22 -71.1624      23 -71.3462      24 -71.1620      25 -71.1898
      26 -71.1898      27 -71.1624      28 -70.9854      29 -71.1813      30 -71.1812
      31 -71.1813      32 -71.1809      33 -71.1812      34 -71.1809      35 -70.9676
      36 -88.9474      37 -34.9141
 
 
 
 E-fermi :   0.0812     XC(G=0):  -5.9337     alpha+bet : -5.4246

 Fermi energy:         0.0812039823

 k-point     1 :       0.0000    0.0000    0.0000
  band No.  band energies     occupation 
      1     -55.0970      2.00000
      2     -31.2256      2.00000
      3     -31.2256      2.00000
      4     -31.0824      2.00000
      5      -8.7473      2.00000
      6      -7.4585      2.00000
      7      -5.8843      2.00000
      8      -5.7894      2.00000
      9      -5.7892      2.00000
     10      -5.7578      2.00000
     11      -5.7531      2.00000
     12      -5.7529      2.00000
     13      -5.6846      2.00000
     14      -5.0652      2.00000
     15      -5.0652      2.00000
     16      -5.0420      2.00000
     17      -5.0044      2.00000
     18      -4.9946      2.00000
     19      -4.9946      2.00000
     20      -4.8636      2.00000
     21      -4.4128      2.00000
     22      -4.4127      2.00000
     23      -4.3340      2.00000
     24      -4.3067      2.00000
     25      -4.3066      2.00000
     26      -4.2400      2.00000
     27      -4.0673      2.00000
     28      -4.0262      2.00000
     29      -4.0262      2.00000
     30      -4.0054      2.00000
     31      -4.0053      2.00000
     32      -3.9864      2.00000
     33      -3.8831      2.00000
     34      -3.8830      2.00000
     35      -3.8554      2.00000
     36      -3.8511      2.00000
     37      -3.8511      2.00000
     38      -3.8461      2.00000
     39      -3.8253      2.00000
     40      -3.8253      2.00000
     41      -3.8217      2.00000
     42      -3.8199      2.00000
     43      -3.8199      2.00000
     44      -3.8080      2.00000
     45      -3.7551      2.00000
     46      -3.7551      2.00000
     47      -3.6707      2.00000
     48      -3.6707      2.00000
     49      -3.6133      2.00000
     50      -3.5780      2.00000
     51      -3.5570      2.00000
     52      -3.5384      2.00000
     53      -3.5384      2.00000
     54      -3.5326      2.00000
     55      -3.5232      2.00000
     56      -3.5232      2.00000
     57      -3.4451      2.00000
     58      -3.4436      2.00000
     59      -3.2090      2.00000
     60      -3.1730      2.00000
     61      -3.1729      2.00000
     62      -3.1669      2.00000
     63      -3.1598      2.00000
     64      -3.1597      2.00000
     65      -3.1250      2.00000
     66      -3.1138      2.00000
     67      -3.1138      2.00000
     68      -3.0848      2.00000
     69      -3.0847      2.00000
     70      -3.0819      2.00000
     71      -3.0410      2.00000
     72      -3.0409      2.00000
     73      -3.0153      2.00000
     74      -3.0153      2.00000
     75      -2.9931      2.00000
     76      -2.9701      2.00000
     77      -2.9239      2.00000
     78      -2.9239      2.00000
     79      -2.8846      2.00000
     80      -2.8846      2.00000
     81      -2.8593      2.00000
     82      -2.8411      2.00000
     83      -2.8411      2.00000
     84      -2.8331      2.00000
     85      -2.8331      2.00000
     86      -2.8203      2.00000
     87      -2.8203      2.00000
     88      -2.8198      2.00000
     89      -2.7694      2.00000
     90      -2.7694      2.00000
     91      -2.7528      2.00000
     92      -2.7251      2.00000
     93      -2.7249      2.00000
     94      -2.7224      2.00000
     95      -2.6958      2.00000
     96      -2.6942      2.00000
     97      -2.6941      2.00000
     98      -2.6463      2.00000
     99      -2.6463      2.00000
    100      -2.6336      2.00000
    101      -2.6336      2.00000
    102      -2.6201      2.00000
    103      -2.6039      2.00000
    104      -2.6039      2.00000
    105      -2.5920      2.00000
    106      -2.5837      2.00000
    107      -2.5837      2.00000
    108      -2.5753      2.00000
    109      -2.5753      2.00000
    110      -2.5549      2.00000
    111      -2.5549      2.00000
    112      -2.3850      2.00000
    113      -2.3631      2.00000
    114      -2.3429      2.00000
    115      -2.3429      2.00000
    116      -2.3278      2.00000
    117      -2.3278      2.00000
    118      -2.3239      2.00000
    119      -2.2864      2.00000
    120      -2.2864      2.00000
    121      -2.2806      2.00000
    122      -2.2636      2.00000
    123      -2.2582      2.00000
    124      -2.2582      2.00000
    125      -2.2394      2.00000
    126      -2.1970      2.00000
    127      -2.1608      2.00000
    128      -2.1608      2.00000
    129      -2.1495      2.00000
    130      -2.1495      2.00000
    131      -2.1247      2.00000
    132      -2.1247      2.00000
    133      -2.1021      2.00000
    134      -2.1021      2.00000
    135      -2.0759      2.00000
    136      -2.0609      2.00000
    137      -2.0514      2.00000
    138      -2.0514      2.00000
    139      -2.0054      2.00000
    140      -1.9952      2.00000
    141      -1.9952      2.00000
    142      -1.9807      2.00000
    143      -1.9807      2.00000
    144      -1.9646      2.00000
    145      -1.9364      2.00000
    146      -1.9363      2.00000
    147      -1.9090      2.00000
    148      -1.9090      2.00000
    149      -1.9053      2.00000
    150      -1.8792      2.00000
    151      -1.8792      2.00000
    152      -1.8731      2.00000
    153      -1.8615      2.00000
    154      -1.8496      2.00000
    155      -1.8299      2.00000
    156      -1.8298      2.00000
    157      -1.8131      2.00000
    158      -1.8095      2.00000
    159      -1.8094      2.00000
    160      -1.7866      2.00000
    161      -1.7841      2.00000
    162      -1.7694      2.00000
    163      -1.7519      2.00000
    164      -1.7519      2.00000
    165      -1.7348      2.00000
    166      -1.7348      2.00000
    167      -1.7338      2.00000
    168      -1.7314      2.00000
    169      -1.7314      2.00000
    170      -1.6994      2.00000
    171      -1.6939      2.00000
    172      -1.6939      2.00000
    173      -1.6730      2.00000
    174      -1.6730      2.00000
    175      -1.6570      2.00000
    176      -1.6569      2.00000
    177      -1.6275      2.00000
    178      -1.6274      2.00000
    179      -1.6271      2.00000
[...]
  0.000   0.000   0.000   0.000   0.000   0.000   0.000   0.000   0.000   0.000   0.000   0.000   0.000   0.000   0.000   0.000
  0.000   0.000   0.000   0.000   0.000   0.000   0.000   0.000   0.000   0.000   0.000   0.000   0.000   0.000   0.000   0.000
  0.000   0.000   0.000   0.000   0.000   0.000   0.000   0.000   0.000   0.000   0.000   0.000   0.000   0.000   0.000   0.000
  0.000   0.000   0.000   0.000   0.000   0.000   0.000   0.000   0.000   0.000   0.000   0.000   0.000   0.000   0.000   0.000
  0.000   0.000   0.000   0.000   0.000   0.000   0.000   0.000   0.000   0.000   0.000   0.000   0.000   0.000   0.000   0.000
  0.000   0.000   0.000   0.000   0.000   0.000   0.000   0.000   0.000   0.000   1.000   0.000   0.000   0.000   0.000   0.000
  0.000   0.000   0.000   0.000   0.000   0.000   0.000   0.000   0.000   0.000   0.000   0.000   0.000   0.000   0.000   0.000
  0.000   0.000   0.000   0.000   0.000   0.000   0.000   0.000   0.000   0.000   0.000   0.000   0.000   0.000   0.000   0.000
  0.000   0.000   0.000   0.000   0.000   0.000   0.000   0.000   0.000   0.000   0.000   0.000   0.000   0.000   0.000   0.000
  0.000   0.000   0.000   0.000   0.000   0.000   0.000   0.000   0.000   0.000   0.000   0.000   0.000   0.000   0.000   0.000
  0.000   0.000   0.000   0.000   0.000   0.000   0.000   0.000   0.000   0.000   0.000   0.000   0.000   0.000   0.000   0.000
  0.000   0.000   0.000   0.000   0.000   0.000   0.000   0.000   0.000   0.000   0.000   0.000   0.000   0.000   0.000   0.000
  0.000   0.000   0.000   0.000   0.000   0.000   0.000   0.000   0.000   0.000   0.000   0.000   0.000   0.000   0.000   0.000


------------------------ aborting loop because EDIFF is reached ----------------------------------------





 total charge

# of ion       s       p       d       tot
------------------------------------------
    1        0.450   0.281   9.189   9.921
    2        0.447   0.286   9.186   9.919
    3        0.447   0.286   9.186   9.919
    4        0.447   0.286   9.186   9.919
    5        0.450   0.285   9.182   9.917
    6        0.447   0.286   9.186   9.919
    7        0.447   0.286   9.186   9.919
    8        0.447   0.286   9.186   9.919
    9        0.450   0.284   9.187   9.921
   10        0.443   0.371   9.177   9.990
   11        0.441   0.365   9.182   9.988
   12        0.443   0.371   9.177   9.990
   13        0.441   0.365   9.182   9.988
   14        0.441   0.365   9.182   9.988
   15        0.439   0.371   9.176   9.986
   16        0.443   0.371   9.177   9.990
   17        0.439   0.371   9.176   9.986
   18        0.439   0.371   9.176   9.986
   19        0.443   0.369   9.181   9.993
   20        0.466   0.386   9.163  10.015
   21        0.466   0.386   9.163  10.015
   22        0.431   0.374   9.178   9.984
   23        0.466   0.386   9.163  10.015
   24        0.431   0.374   9.178   9.984
   25        0.443   0.369   9.181   9.993
   26        0.443   0.369   9.181   9.993
   27        0.431   0.374   9.178   9.984
   28        0.445   0.295   9.181   9.920
   29        0.482   0.315   9.159   9.956
   30        0.482   0.315   9.159   9.956
   31        0.482   0.315   9.159   9.956
   32        0.482   0.315   9.159   9.956
   33        0.482   0.315   9.159   9.956
   34        0.482   0.315   9.159   9.956
   35        0.440   0.299   9.181   9.920
   36        2.225   6.005   2.384  10.614
   37        0.528   0.008   0.000   0.536
--------------------------------------------------
tot         18.554  17.773 323.545 359.872
 
    CHARGE:  cpu time    0.2138: real time    0.2139
    FORLOC:  cpu time    0.0074: real time    0.0074
    FORNL :  cpu time    1.1945: real time    1.1947
    STRESS:  cpu time    3.5306: real time    3.5309
    FORCOR:  cpu time    0.0264: real time    0.0264
    FORHAR:  cpu time    0.0115: real time    0.0115
    OFIELD:  cpu time    0.0001: real time    0.0001

  FORCE on cell =-STRESS in cart. coord.  units (eV):
  Direction    XX          YY          ZZ          XY          YZ          ZX
  --------------------------------------------------------------------------------------
  Alpha Z   893.04122   893.04122   893.04122
  Ewald  174932.76670174932.76622************     0.00040     0.00011     0.00019
  Hartree188002.07923188002.07918************     0.00004     0.00005     0.00007
  E(xc)   -2308.32760 -2308.32710 -2312.91443    -0.00044    -0.00003    -0.00006
  Local  ************************376674.30178     0.01840    -0.00056    -0.00094
  n-local  -769.95491  -758.37578  -775.83495     6.39778    -0.38646     0.16277
  augment  3325.33517  3325.35511  3348.42707    -0.01726     0.00025     0.00049
  Kinetic  3383.28234  3386.07699  3419.09618     1.63775     1.86542    -1.21511
  Fock        0.00000     0.00000     0.00000     0.00000     0.00000     0.00000
  -------------------------------------------------------------------------------------
  Total      -5.68414    -5.68414    -0.65915     0.00000     0.00000     0.00000
  in kB      -8.33997    -8.33997    -0.96713     0.00000     0.00000     0.00000
  external pressure =       -5.88 kB  Pullay stress =        0.00 kB


 VOLUME and BASIS-vectors are now :
 -----------------------------------------------------------------------------
  energy-cutoff  :      500.00
  volume of cell :     1091.97
      direct lattice vectors                 reciprocal lattice vectors
     7.696786404  0.000000000  0.000000000     0.129924354 -0.075011849  0.000000000
     3.848392758  6.665612809  0.000000000     0.000000000  0.150023716  0.000000000
     0.000000000  0.000000000 21.284399033     0.000000000  0.000000000  0.046982769

  length of vectors
     7.696786404  7.696786404 21.284399033     0.150023716  0.150023716  0.046982769


 FORCES acting on ions
    electron-ion (+dipol)            ewald-force                    non-local-force                 convergence-correction
 -----------------------------------------------------------------------------------------------
   -.412E-04 0.378E-06 0.350E+04   0.579E-04 -.434E-05 -.350E+04   0.858E-18 -.360E-17 -.235E+01   -.335E-03 -.161E-03 -.205E-01
   -.509E+00 -.209E+00 0.350E+04   0.465E+00 0.630E-01 -.350E+04   0.533E-01 0.174E+00 -.197E+01   0.208E-02 -.257E-01 0.120E+00
   0.509E+00 -.209E+00 0.350E+04   -.465E+00 0.630E-01 -.350E+04   -.533E-01 0.174E+00 -.197E+01   -.124E-02 -.231E-01 0.121E+00
   -.435E+00 -.337E+00 0.350E+04   0.287E+00 0.371E+00 -.350E+04   0.178E+00 -.411E-01 -.197E+01   -.211E-01 0.146E-01 0.120E+00
   -.620E-04 -.368E-05 0.350E+04   0.116E-03 -.101E-04 -.349E+04   -.166E-17 0.206E-17 -.160E+01   0.122E-01 0.749E-02 0.198E+00
   0.435E+00 -.337E+00 0.350E+04   -.287E+00 0.371E+00 -.350E+04   -.178E+00 -.411E-01 -.197E+01   0.195E-01 0.158E-01 0.121E+00
   0.738E-01 0.545E+00 0.350E+04   -.178E+00 -.434E+00 -.350E+04   0.124E+00 -.133E+00 -.197E+01   -.206E-01 0.104E-01 0.121E+00
   -.737E-01 0.545E+00 0.350E+04   0.178E+00 -.434E+00 -.350E+04   -.124E+00 -.133E+00 -.197E+01   0.241E-01 0.893E-02 0.121E+00
   -.144E-03 -.328E-04 0.350E+04   0.263E-03 0.205E-04 -.350E+04   0.235E-17 0.125E-17 -.202E+01   -.133E-01 -.685E-02 0.915E-01
   -.356E+01 -.205E+01 0.120E+04   0.380E+01 0.219E+01 -.120E+04   -.310E+00 -.179E+00 -.879E+00   0.533E-01 0.308E-01 -.394E-01
   -.908E-04 -.554E+00 0.119E+04   0.190E-03 0.194E+00 -.119E+04   -.205E-07 0.308E+00 -.223E+00   0.118E-01 0.245E-01 -.473E-01
   0.356E+01 -.205E+01 0.120E+04   -.380E+01 0.219E+01 -.120E+04   0.310E+00 -.179E+00 -.879E+00   -.553E-01 0.328E-01 -.387E-01
   -.480E+00 0.277E+00 0.119E+04   0.168E+00 -.974E-01 -.119E+04   0.267E+00 -.154E+00 -.223E+00   0.276E-01 -.121E-02 -.472E-01
   0.480E+00 0.277E+00 0.119E+04   -.169E+00 -.974E-01 -.119E+04   -.267E+00 -.154E+00 -.223E+00   -.318E-02 -.220E-02 -.471E-01
   -.142E-03 -.322E+01 0.119E+04   0.297E-03 0.305E+01 -.119E+04   -.831E-08 0.125E+00 -.979E+00   -.407E-02 0.441E-01 -.421E-01
   -.913E-04 0.411E+01 0.120E+04   0.186E-03 -.439E+01 -.120E+04   -.238E-07 0.358E+00 -.879E+00   -.152E-03 -.656E-01 -.388E-01
   -.279E+01 0.161E+01 0.119E+04   0.264E+01 -.153E+01 -.119E+04   0.108E+00 -.624E-01 -.979E+00   0.368E-01 -.256E-01 -.422E-01
   0.279E+01 0.161E+01 0.119E+04   -.264E+01 -.153E+01 -.119E+04   -.108E+00 -.624E-01 -.979E+00   -.361E-01 -.225E-01 -.416E-01
   -.678E-04 -.295E+01 -.112E+04   0.650E-04 0.301E+01 0.112E+04   0.412E-08 -.619E-01 0.108E+01   -.234E-02 -.939E-02 -.160E-01
   0.274E+01 0.158E+01 -.113E+04   -.181E+01 -.105E+01 0.113E+04   -.103E+01 -.596E+00 -.695E+00   -.395E-01 -.229E-01 -.380E-01
   -.274E+01 0.158E+01 -.113E+04   0.181E+01 -.105E+01 0.113E+04   0.103E+01 -.596E+00 -.695E+00   0.635E-01 -.211E-01 -.377E-01
   -.220E+01 0.127E+01 -.113E+04   0.193E+01 -.112E+01 0.113E+04   0.364E+00 -.210E+00 0.697E+00   -.505E-01 0.284E-01 -.447E-01
   -.600E-04 -.316E+01 -.113E+04   0.142E-03 0.210E+01 0.113E+04   -.794E-07 0.119E+01 -.695E+00   0.123E-01 0.643E-01 -.378E-01
   0.220E+01 0.127E+01 -.113E+04   -.193E+01 -.112E+01 0.113E+04   -.364E+00 -.210E+00 0.697E+00   0.477E-01 0.267E-01 -.451E-01
   0.256E+01 0.148E+01 -.112E+04   -.260E+01 -.150E+01 0.112E+04   0.536E-01 0.310E-01 0.108E+01   0.944E-02 0.547E-02 -.170E-01
   -.256E+01 0.148E+01 -.112E+04   0.260E+01 -.150E+01 0.112E+04   -.536E-01 0.310E-01 0.108E+01   -.895E-02 0.287E-02 -.160E-01
   -.131E-03 -.254E+01 -.113E+04   0.243E-03 0.223E+01 0.113E+04   -.280E-07 0.421E+00 0.697E+00   -.710E-03 -.580E-01 -.446E-01
   -.297E-04 0.218E-04 -.344E+04   0.377E-04 -.331E-04 0.344E+04   0.160E-17 0.132E-17 0.188E+01   0.125E-02 0.773E-03 0.116E+00
   0.104E+02 0.904E+01 -.345E+04   -.984E+01 -.855E+01 0.344E+04   -.600E+00 -.531E+00 0.820E+00   0.643E-02 0.406E-02 0.103E+00
   -.104E+02 0.904E+01 -.345E+04   0.984E+01 -.855E+01 0.344E+04   0.600E+00 -.531E+00 0.820E+00   -.272E-01 0.669E-02 0.103E+00
   0.130E+02 0.450E+01 -.345E+04   -.123E+02 -.425E+01 0.344E+04   -.760E+00 -.254E+00 0.820E+00   0.680E-02 0.347E-02 0.103E+00
   -.130E+02 0.450E+01 -.345E+04   0.123E+02 -.425E+01 0.344E+04   0.760E+00 -.254E+00 0.820E+00   -.304E-01 0.445E-02 0.102E+00
   0.262E+01 -.135E+02 -.345E+04   -.249E+01 0.128E+02 0.344E+04   -.159E+00 0.785E+00 0.820E+00   -.781E-02 -.269E-01 0.103E+00
   -.262E+01 -.135E+02 -.345E+04   0.249E+01 0.128E+02 0.344E+04   0.159E+00 0.785E+00 0.820E+00   -.106E-01 -.285E-01 0.102E+00
   -.145E-03 -.180E-04 -.346E+04   0.258E-03 0.127E-05 0.346E+04   0.131E-17 -.294E-17 0.232E+01   -.117E-01 -.595E-02 0.120E+00
   0.116E-03 -.183E-03 -.410E+04   0.151E-03 0.344E-04 0.410E+04   0.181E-17 -.529E-18 -.150E+01   0.832E-02 0.498E-02 0.186E+00
   0.627E-05 -.622E-05 -.384E+03   0.231E-05 0.114E-05 0.386E+03   0.133E-18 -.153E-19 -.200E+01   0.157E-03 0.928E-04 -.168E-01
 -----------------------------------------------------------------------------------------------
   -.445E-04 -.127E-03 0.138E+02   0.160E-12 0.104E-12 -.682E-12   0.142E-15 -.337E-15 -.151E+02   -.177E-02 -.398E-02 0.133E+01
 
 
 POSITION                                       TOTAL-FORCE (eV/Angst)
 -----------------------------------------------------------------------------------
      0.00000      0.00000      5.37156        -0.000000      0.000000     -0.009493
      2.56560      0.00000      5.37156         0.011427      0.004155      0.060355
      5.13119      0.00000      5.37156        -0.011427      0.004155      0.060355
      1.28280      2.22187      5.37156         0.009312      0.007818      0.060355
      3.84839      2.22187      5.37156        -0.000000      0.000000      0.056295
      6.41399      2.22187      5.37156        -0.009312      0.007818      0.060355
      2.56560      4.44374      5.37156        -0.002115     -0.011973      0.060355
      5.13119      4.44374      5.37156         0.002115     -0.011973      0.060355
      7.69679      4.44374      5.37156        -0.000000     -0.000000      0.024151
      1.28280      0.74062      7.46636        -0.013208     -0.007625     -0.104798
      3.84839      0.74062      7.46636         0.000000     -0.033833     -0.030512
      6.41399      0.74062      7.46636         0.013208     -0.007625     -0.104798
      2.56560      2.96249      7.46636        -0.029300      0.016916     -0.030512
      5.13119      2.96249      7.46636         0.029300      0.016916     -0.030512
      7.69679      2.96249      7.46636        -0.000000      0.004025     -0.014787
      3.84839      5.18437      7.46636        -0.000000      0.015251     -0.104798
      6.41399      5.18437      7.46636         0.003486     -0.002013     -0.014787
      8.97958      5.18437      7.46636        -0.003486     -0.002013     -0.014787
      7.69679      1.47855      9.54201         0.000000     -0.017929      0.013740
      2.56706      1.48209      9.56134        -0.156971     -0.090627     -0.212528
      5.12972      1.48209      9.56134         0.156971     -0.090627     -0.212528
      8.97774      3.70418      9.56312         0.051500     -0.029734      0.016892
      3.84839      3.70142      9.56134        -0.000000      0.181254     -0.212528
      6.41583      3.70418      9.56312        -0.051500     -0.029734      0.016892
     10.26471      5.92634      9.54201         0.015527      0.008965      0.013740
      5.12886      5.92634      9.54201        -0.015527      0.008965      0.013740
      7.69679      5.92286      9.56312        -0.000000      0.059467      0.016892
      0.00000      0.00000     11.64396        -0.000000      0.000000      0.028943
      6.40056      6.63873     11.66709        -0.009236     -0.036686     -0.073647
      8.99302      6.63873     11.66709         0.009236     -0.036686     -0.073647
      8.94959      2.22368     11.66709        -0.036389      0.010344     -0.073647
      6.44399      2.22368     11.66709         0.036389      0.010344     -0.073647
     10.24582      4.46882     11.66709        -0.027153      0.026342     -0.073647
      5.14776      4.46882     11.66709         0.027153      0.026342     -0.073647
      7.69679      4.44374     11.66626        -0.000000      0.000000      0.039698
      3.84839      2.22187     11.77465        -0.000000      0.000000      0.929626
      3.84839      2.22187     13.56702        -0.000000      0.000000      0.006513
 -----------------------------------------------------------------------------------
    total drift:                               -0.001819     -0.004108     -0.021173


--------------------------------------------------------------------------------------------------------



  FREE ENERGIE OF THE ION-ELECTRON SYSTEM (eV)
  ---------------------------------------------------
  free  energy   TOTEN  =      -134.20414343 eV

  energy  without entropy=     -134.20414343  energy(sigma->0) =     -134.20414343
 


--------------------------------------------------------------------------------------------------------


    POTLOK:  cpu time    0.0280: real time    0.0280


--------------------------------------------------------------------------------------------------------


 stress matrix after NEB project (eV)
     -5.68414      0.00000      0.00000
      0.00000     -5.68414      0.00000
     -0.00000      0.00000     -0.65915
  FORCES: max atom, RMS     0.006513    0.001071
  FORCE total and by dimension    0.006513    0.006513
  Stress total and by dimension    8.065572    5.684144
     LOOP+:  cpu time   95.3725: real time   95.3847
 -----------------------------------------------------------------------------
|                                                                             |
|           W    W    AA    RRRRR   N    N  II  N    N   GGGG   !!!           |
|           W    W   A  A   R    R  NN   N  II  NN   N  G    G  !!!           |
|           W    W  A    A  R    R  N N  N  II  N N  N  G       !!!           |
|           W WW W  AAAAAA  RRRRR   N  N N  II  N  N N  G  GGG   !            |
|           WW  WW  A    A  R   R   N   NN  II  N   NN  G    G                |
|           W    W  A    A  R    R  N    N  II  N    N   GGGG   !!!           |
|                                                                             |
|     Tetrahedron method does not include variations of the Fermi             |
|     occupations, so forces and stress will be inaccurate. We suggest        |
|     using a different smearing scheme ISMEAR = 1 or 2 for metals in         |
|     relaxations.                                                            |
|                                                                             |
 -----------------------------------------------------------------------------

    4ORBIT:  cpu time    0.0000: real time    0.0000



 total charge

# of ion       s       p       d       tot
------------------------------------------
    1        0.450   0.281   9.189   9.921
    2        0.447   0.286   9.186   9.919
    3        0.447   0.286   9.186   9.919
    4        0.447   0.286   9.186   9.919
    5        0.450   0.285   9.182   9.917
    6        0.447   0.286   9.186   9.919
    7        0.447   0.286   9.186   9.919
    8        0.447   0.286   9.186   9.919
    9        0.450   0.284   9.187   9.921
   10        0.443   0.371   9.177   9.990
   11        0.441   0.365   9.182   9.988
   12        0.443   0.371   9.177   9.990
   13        0.441   0.365   9.182   9.988
   14        0.441   0.365   9.182   9.988
   15        0.439   0.371   9.176   9.986
   16        0.443   0.371   9.177   9.990
   17        0.439   0.371   9.176   9.986
   18        0.439   0.371   9.176   9.986
   19        0.443   0.369   9.181   9.993
   20        0.466   0.386   9.163  10.015
   21        0.466   0.386   9.163  10.015
   22        0.431   0.374   9.178   9.984
   23        0.466   0.386   9.163  10.015
   24        0.431   0.374   9.178   9.984
   25        0.443   0.369   9.181   9.993
   26        0.443   0.369   9.181   9.993
   27        0.431   0.374   9.178   9.984
   28        0.445   0.295   9.181   9.920
   29        0.482   0.315   9.159   9.956
   30        0.482   0.315   9.159   9.956
   31        0.482   0.315   9.159   9.956
   32        0.482   0.315   9.159   9.956
   33        0.482   0.315   9.159   9.956
   34        0.482   0.315   9.159   9.956
   35        0.440   0.299   9.181   9.920
   36        2.225   6.005   2.384  10.614
   37        0.528   0.008   0.000   0.536
--------------------------------------------------
tot         18.554  17.773 323.545 359.872
 
 BZINTS: Fermi energy:    0.081204;  399.000000 electrons
         Band energy:-0.139325E+04;  BLOECHL correction:   -0.022427

 total amount of memory used by VASP MPI-rank0   104714. kBytes
=======================================================================

   base      :      30000. kBytes
   nonlr-proj:      17828. kBytes
   fftplans  :       2916. kBytes
   grid      :      12390. kBytes
   one-center:        575. kBytes
   wavefun   :      41005. kBytes
 
  
  
 General timing and accounting informations for this job:
 ========================================================
  
                  Total CPU time used (sec):      101.323
                            User time (sec):       98.128
                          System time (sec):        3.195
                         Elapsed time (sec):      101.761
  
                   Maximum memory used (kb):      345032.
                   Average memory used (kb):          N/A
  
                          Minor page faults:        99063
                          Major page faults:            0
                 Voluntary context switches:         5314
