PROCAR new format
# of k-points:   10         # of bands:  252         # of ions:   37

 k-point     1 :    0.00000000 0.00000000 0.00000000     weight = 0.01562500

band     1 # energy  -55.09697275 # occ.  2.00000000
 
ion      s      p      d    tot
    1  0.000  0.000  0.000  0.000
    2  0.000  0.000  0.000  0.000
    3  0.000  0.000  0.000  0.000
    4  0.000  0.000  0.000  0.000
    5  0.000  0.000  0.000  0.000
    6  0.000  0.000  0.000  0.000
    7  0.000  0.000  0.000  0.000
    8  0.000  0.000  0.000  0.000
    9  0.000  0.000  0.000  0.000
   10  0.000  0.000  0.000  0.000
   11  0.000  0.000  0.000  0.000
   12  0.000  0.000  0.000  0.000
   13  0.000  0.000  0.000  0.000
   14  0.000  0.000  0.000  0.000
   15  0.000  0.000  0.000  0.000
   16  0.000  0.000  0.000  0.000
   17  0.000  0.000  0.000  0.000
   18  0.000  0.000  0.000  0.000
   19  0.000  0.000  0.000  0.000
   20  0.000  0.000  0.000  0.000
   21  0.000  0.000  0.000  0.000
   22  0.000  0.000  0.000  0.000
   23  0.000  0.000  0.000  0.000
   24  0.000  0.000  0.000  0.000
   25  0.000  0.000  0.000  0.000
   26  0.000  0.000  0.000  0.000
   27  0.000  0.000  0.000  0.000
   28  0.000  0.000  0.000  0.000
   29  0.000  0.000  0.000  0.000
   30  0.000  0.000  0.000  0.000
   31  0.000  0.000  0.000  0.000
   32  0.000  0.000  0.000  0.000
   33  0.000  0.000  0.000  0.000
   34  0.000  0.000  0.000  0.000
   35  0.000  0.000  0.000  0.000
   36  0.992  0.000  0.000  0.992
   37  0.000  0.000  0.000  0.000
tot    0.993  0.000  0.000  0.993
 
band     2 # energy  -31.22561460 # occ.  2.00000000
 
ion      s      p      d    tot
    1  0.000  0.000  0.000  0.000
    2  0.000  0.000  0.000  0.000
    3  0.000  0.000  0.000  0.000
    4  0.000  0.000  0.000  0.000
    5  0.000  0.000  0.000  0.000
    6  0.000  0.000  0.000  0.000
    7  0.000  0.000  0.000  0.000
    8  0.000  0.000  0.000  0.000
    9  0.000  0.000  0.000  0.000
   10  0.000  0.000  0.000  0.000
   11  0.000  0.000  0.000  0.000
   12  0.000  0.000  0.000  0.000
   13  0.000  0.000  0.000  0.000
   14  0.000  0.000  0.000  0.000
   15  0.000  0.000  0.000  0.000
   16  0.000  0.000  0.000  0.000
   17  0.000  0.000  0.000  0.000
   18  0.000  0.000  0.000  0.000
   19  0.000  0.000  0.000  0.000
   20  0.000  0.000  0.000  0.000
   21  0.000  0.000  0.000  0.000
   22  0.000  0.000  0.000  0.000
   23  0.000  0.000  0.000  0.000
   24  0.000  0.000  0.000  0.000
   25  0.000  0.000  0.000  0.000
   26  0.000  0.000  0.000  0.000
   27  0.000  0.000  0.000  0.000
   28  0.000  0.000  0.000  0.000
   29  0.000  0.000  0.000  0.000
   30  0.000  0.000  0.000  0.001
   31  0.000  0.000  0.000  0.000
   32  0.000  0.000  0.000  0.000
   33  0.000  0.000  0.000  0.001
   34  0.000  0.000  0.000  0.000
   35  0.000  0.000  0.000  0.000
   36  0.000  0.971  0.000  0.971
   37  0.000  0.000  0.000  0.000
tot    0.001  0.972  0.001  0.974
 
band     3 # energy  -31.22560597 # occ.  2.00000000
 
ion      s      p      d    tot
    1  0.000  0.000  0.000  0.000
    2  0.000  0.000  0.000  0.000
    3  0.000  0.000  0.000  0.000
    4  0.000  0.000  0.000  0.000
    5  0.000  0.000  0.000  0.000
    6  0.000  0.000  0.000  0.000
    7  0.000  0.000  0.000  0.000
    8  0.000  0.000  0.000  0.000
    9  0.000  0.000  0.000  0.000
   10  0.000  0.000  0.000  0.000
   11  0.000  0.000  0.000  0.000
   12  0.000  0.000  0.000  0.000
   13  0.000  0.000  0.000  0.000
   14  0.000  0.000  0.000  0.000
   15  0.000  0.000  0.000  0.000
   16  0.000  0.000  0.000  0.000
   17  0.000  0.000  0.000  0.000
   18  0.000  0.000  0.000  0.000
   19  0.000  0.000  0.000  0.000
   20  0.000  0.000  0.000  0.000
   21  0.000  0.000  0.000  0.000
   22  0.000  0.000  0.000  0.000
   23  0.000  0.000  0.000  0.000
   24  0.000  0.000  0.000  0.000
   25  0.000  0.000  0.000  0.000
   26  0.000  0.000  0.000  0.000
   27  0.000  0.000  0.000  0.000
   28  0.000  0.000  0.000  0.000
   29  0.000  0.000  0.000  0.001
   30  0.000  0.000  0.000  0.000
   31  0.000  0.000  0.000  0.001
   32  0.000  0.000  0.000  0.001
   33  0.000  0.000  0.000  0.000
   34  0.000  0.000  0.000  0.001
   35  0.000  0.000  0.000  0.000
   36  0.000  0.971  0.000  0.971
   37  0.000  0.000  0.000  0.000
tot    0.001  0.972  0.001  0.974
 
band     4 # energy  -31.08240346 # occ.  2.00000000
 
ion      s      p      d    tot
    1  0.000  0.000  0.000  0.000
    2  0.000  0.000  0.000  0.000
    3  0.000  0.000  0.000  0.000
    4  0.000  0.000  0.000  0.000
    5  0.000  0.000  0.000  0.000
    6  0.000  0.000  0.000  0.000
    7  0.000  0.000  0.000  0.000
    8  0.000  0.000  0.000  0.000
    9  0.000  0.000  0.000  0.000
   10  0.000  0.000  0.000  0.000
   11  0.000  0.000  0.000  0.000
   12  0.000  0.000  0.000  0.000
   13  0.000  0.000  0.000  0.000
   14  0.000  0.000  0.000  0.000
   15  0.000  0.000  0.000  0.000
   16  0.000  0.000  0.000  0.000
   17  0.000  0.000  0.000  0.000
   18  0.000  0.000  0.000  0.000
   19  0.000  0.000  0.000  0.000
   20  0.000  0.000  0.000  0.000
   21  0.000  0.000  0.000  0.000
   22  0.000  0.000  0.000  0.000
   23  0.000  0.000  0.000  0.000
   24  0.000  0.000  0.000  0.000
   25  0.000  0.000  0.000  0.000
   26  0.000  0.000  0.000  0.000
   27  0.000  0.000  0.000  0.000
   28  0.000  0.000  0.000  0.000
   29  0.000  0.000  0.000  0.000
   30  0.000  0.000  0.000  0.000
   31  0.000  0.000  0.000  0.000
   32  0.000  0.000  0.000  0.000
   33  0.000  0.000  0.000  0.000
   34  0.000  0.000  0.000  0.000
   35  0.000  0.000  0.000  0.000
   36  0.000  0.970  0.000  0.971
   37  0.002  0.000  0.000  0.002
tot    0.002  0.971  0.000  0.974
 
band     5 # energy   -8.74730749 # occ.  2.00000000
 
ion      s      p      d    tot
    1  0.007  0.001  0.000  0.007
    2  0.007  0.001  0.000  0.007
    3  0.007  0.001  0.000  0.007
    4  0.007  0.001  0.000  0.007
    5  0.007  0.001  0.000  0.007
    6  0.007  0.001  0.000  0.007
    7  0.007  0.001  0.000  0.007
    8  0.007  0.001  0.000  0.007
    9  0.007  0.001  0.000  0.007
   10  0.025  0.000  0.000  0.025
   11  0.025  0.000  0.000  0.025
   12  0.025  0.000  0.000  0.025
   13  0.025  0.000  0.000  0.025
   14  0.025  0.000  0.000  0.025
   15  0.024  0.000  0.000  0.025
   16  0.025  0.000  0.000  0.025
   17  0.024  0.000  0.000  0.025
   18  0.024  0.000  0.000  0.025
   19  0.025  0.000  0.000  0.025
   20  0.024  0.000  0.000  0.024
   21  0.024  0.000  0.000  0.024
   22  0.024  0.000  0.000  0.024
   23  0.024  0.000  0.000  0.024
   24  0.024  0.000  0.000  0.024
   25  0.025  0.000  0.000  0.025
   26  0.025  0.000  0.000  0.025
   27  0.024  0.000  0.000  0.024
   28  0.007  0.001  0.000  0.008
   29  0.007  0.001  0.000  0.007
   30  0.007  0.001  0.000  0.007
   31  0.007  0.001  0.000  0.007
   32  0.007  0.001  0.000  0.007
   33  0.007  0.001  0.000  0.007
   34  0.007  0.001  0.000  0.007
   35  0.007  0.001  0.000  0.008
   36  0.003  0.000  0.000  0.004
   37  0.000  0.000  0.000  0.000
tot    0.560  0.016  0.001  0.577
 
band     6 # energy   -7.45850405 # occ.  2.00000000
 
ion      s      p      d    tot
    1  0.018  0.001  0.000  0.019
    2  0.018  0.001  0.000  0.019
    3  0.018  0.001  0.000  0.019
    4  0.018  0.001  0.000  0.019
    5  0.018  0.001  0.000  0.019
    6  0.018  0.001  0.000  0.019
    7  0.018  0.001  0.000  0.019
    8  0.018  0.001  0.000  0.019
    9  0.018  0.001  0.000  0.019
   10  0.010  0.002  0.001  0.013
   11  0.010  0.002  0.001  0.013
   12  0.010  0.002  0.001  0.013
   13  0.010  0.002  0.001  0.013
   14  0.010  0.002  0.001  0.013
   15  0.010  0.002  0.001  0.012
   16  0.010  0.002  0.001  0.013
   17  0.010  0.002  0.001  0.012
   18  0.010  0.002  0.001  0.012
   19  0.011  0.002  0.000  0.014
   20  0.009  0.002  0.001  0.011
   21  0.009  0.002  0.001  0.011
   22  0.011  0.002  0.000  0.013
   23  0.009  0.002  0.001  0.011
   24  0.011  0.002  0.000  0.013
   25  0.011  0.002  0.000  0.014
   26  0.011  0.002  0.000  0.014
   27  0.011  0.002  0.000  0.013
   28  0.020  0.001  0.001  0.022
   29  0.019  0.001  0.001  0.020
   30  0.019  0.001  0.001  0.020
   31  0.019  0.001  0.001  0.020
   32  0.019  0.001  0.001  0.020
   33  0.019  0.001  0.001  0.020
   34  0.019  0.001  0.001  0.020
   35  0.020  0.001  0.001  0.021
   36  0.008  0.000  0.001  0.009
   37  0.000  0.000  0.000  0.000
tot    0.501  0.053  0.020  0.574
 
band     7 # energy   -5.88434738 # occ.  2.00000000
 
ion      s      p      d    tot
    1  0.016  0.000  0.005  0.021
    2  0.015  0.000  0.005  0.020
    3  0.015  0.000  0.005  0.020
    4  0.015  0.000  0.005  0.020
    5  0.007  0.000  0.006  0.014
    6  0.015  0.000  0.005  0.020
    7  0.015  0.000  0.005  0.020
    8  0.015  0.000  0.005  0.020
    9  0.023  0.000  0.004  0.027
   10  0.003  0.003  0.002  0.008
   11  0.010  0.005  0.001  0.016
   12  0.003  0.003  0.002  0.008
   13  0.010  0.005  0.001  0.016
   14  0.010  0.005  0.001  0.016
   15  0.000  0.003  0.003  0.006
   16  0.003  0.003  0.002  0.008
   17  0.000  0.003  0.003  0.006
   18  0.000  0.003  0.003  0.006
   19  0.002  0.003  0.005  0.010
   20  0.018  0.004  0.003  0.025
   21  0.018  0.004  0.003  0.025
   22  0.001  0.004  0.004  0.008
   23  0.018  0.004  0.003  0.025
   24  0.001  0.004  0.004  0.008
   25  0.002  0.003  0.005  0.010
   26  0.002  0.003  0.005  0.010
   27  0.001  0.004  0.004  0.008
   28  0.021  0.000  0.006  0.027
   29  0.017  0.000  0.008  0.025
   30  0.017  0.000  0.008  0.025
   31  0.017  0.000  0.008  0.025
   32  0.017  0.000  0.008  0.025
   33  0.017  0.000  0.008  0.025
   34  0.017  0.000  0.008  0.025
   35  0.026  0.000  0.006  0.032
   36  0.002  0.000  0.011  0.014
   37  0.000  0.000  0.000  0.000
tot    0.384  0.067  0.174  0.625
 
band     8 # energy   -5.78939935 # occ.  2.00000000
 
ion      s      p      d    tot
    1  0.000  0.003  0.005  0.008
    2  0.007  0.002  0.002  0.012
    3  0.006  0.002  0.002  0.009
    4  0.007  0.002  0.002  0.012
    5  0.000  0.001  0.002  0.003
    6  0.000  0.001  0.002  0.003
    7  0.005  0.002  0.002  0.009
    8  0.000  0.001  0.002  0.003
    9  0.000  0.001  0.004  0.004
   10  0.053  0.002  0.005  0.061
   11  0.001  0.009  0.003  0.012
   12  0.014  0.006  0.008  0.028
   13  0.001  0.008  0.003  0.012
   14  0.003  0.000  0.005  0.009
   15  0.007  0.001  0.011  0.019
   16  0.013  0.006  0.008  0.027
   17  0.008  0.001  0.011  0.020
   18  0.030  0.004  0.002  0.036
   19  0.014  0.007  0.008  0.029
   20  0.039  0.005  0.003  0.047
   21  0.010  0.001  0.014  0.025
   22  0.001  0.009  0.003  0.013
   23  0.010  0.001  0.014  0.025
   24  0.002  0.001  0.005  0.008
   25  0.058  0.002  0.006  0.066
   26  0.015  0.007  0.008  0.030
   27  0.001  0.009  0.003  0.013
   28  0.000  0.004  0.006  0.010
   29  0.009  0.002  0.003  0.014
   30  0.012  0.002  0.004  0.018
   31  0.008  0.002  0.003  0.014
   32  0.000  0.001  0.004  0.005
   33  0.012  0.002  0.004  0.018
   34  0.000  0.001  0.004  0.005
   35  0.000  0.001  0.003  0.004
   36  0.000  0.001  0.007  0.007
   37  0.000  0.000  0.000  0.000
tot    0.345  0.112  0.181  0.638
 
band     9 # energy   -5.78920799 # occ.  2.00000000
 
ion      s      p      d    tot
    1  0.000  0.003  0.005  0.008
    2  0.001  0.001  0.002  0.004
    3  0.003  0.001  0.002  0.006
    4  0.001  0.001  0.002  0.004
    5  0.000  0.001  0.002  0.003
    6  0.009  0.002  0.002  0.013
    7  0.003  0.001  0.002  0.007
    8  0.009  0.002  0.002  0.013
    9  0.000  0.001  0.004  0.004
   10  0.000  0.007  0.009  0.017
   11  0.002  0.003  0.004  0.010
   12  0.039  0.004  0.006  0.049
   13  0.002  0.003  0.004  0.010
   14  0.000  0.011  0.002  0.014
   15  0.022  0.003  0.005  0.031
   16  0.040  0.004  0.006  0.050
   17  0.022  0.003  0.005  0.030
   18  0.000  0.000  0.014  0.014
   19  0.044  0.004  0.007  0.054
   20  0.000  0.000  0.018  0.018
   21  0.029  0.004  0.007  0.039
   22  0.002  0.003  0.005  0.010
   23  0.029  0.004  0.007  0.040
   24  0.000  0.012  0.002  0.014
   25  0.000  0.009  0.009  0.018
   26  0.043  0.004  0.007  0.054
   27  0.002  0.003  0.005  0.010
   28  0.000  0.004  0.006  0.010
   29  0.005  0.001  0.004  0.011
   30  0.002  0.001  0.003  0.007
   31  0.006  0.001  0.004  0.011
   32  0.014  0.003  0.003  0.020
   33  0.002  0.001  0.003  0.007
   34  0.014  0.003  0.003  0.020
   35  0.000  0.001  0.003  0.004
   36  0.000  0.001  0.007  0.007
   37  0.000  0.000  0.000  0.000
tot    0.345  0.112  0.181  0.638
 
band    10 # energy   -5.75780246 # occ.  2.00000000
 
ion      s      p      d    tot
    1  0.020  0.003  0.001  0.024
    2  0.000  0.002  0.004  0.006
    3  0.000  0.002  0.004  0.006
    4  0.000  0.002  0.004  0.006
    5  0.003  0.001  0.000  0.004
    6  0.000  0.002  0.004  0.006
    7  0.000  0.002  0.004  0.006
    8  0.000  0.002  0.004  0.006
    9  0.007  0.001  0.000  0.009
   10  0.030  0.007  0.005  0.042
   11  0.008  0.000  0.012  0.019
   12  0.031  0.006  0.005  0.042
   13  0.008  0.000  0.012  0.019
   14  0.007  0.000  0.012  0.018
   15  0.008  0.007  0.004  0.019
   16  0.031  0.006  0.005  0.042
   17  0.008  0.007  0.004  0.019
   18  0.009  0.007  0.004  0.020
   19  0.025  0.009  0.002  0.037
   20  0.000  0.003  0.010  0.014
   21  0.000  0.003  0.010  0.013
   22  0.023  0.001  0.010  0.034
   23  0.000  0.003  0.010  0.013
   24  0.021  0.002  0.010  0.032
   25  0.025  0.009  0.002  0.036
   26  0.025  0.009  0.002  0.037
   27  0.023  0.001  0.010  0.034
   28  0.019  0.003  0.001  0.023
   29  0.000  0.002  0.005  0.007
   30  0.000  0.002  0.005  0.007
   31  0.000  0.002  0.005  0.007
   32  0.000  0.002  0.005  0.007
   33  0.000  0.002  0.005  0.007
   34  0.000  0.002  0.005  0.007
   35  0.013  0.002  0.001  0.016
   36  0.000  0.000  0.000  0.000
   37  0.000  0.000  0.000  0.000
tot    0.344  0.114  0.182  0.640
 
band    11 # energy   -5.75309404 # occ.  2.00000000
 
ion      s      p      d    tot
    1  0.000  0.000  0.003  0.003
    2  0.008  0.002  0.002  0.012
    3  0.007  0.002  0.002  0.010
    4  0.008  0.002  0.002  0.012
    5  0.000  0.003  0.005  0.008
    6  0.000  0.001  0.002  0.003
    7  0.006  0.002  0.002  0.010
    8  0.000  0.001  0.002  0.003
    9  0.000  0.002  0.003  0.006
   10  0.000  0.005  0.009  0.014
   11  0.044  0.004  0.006  0.054
   12  0.004  0.003  0.005  0.012
   13  0.043  0.004  0.006  0.053
   14  0.000  0.002  0.015  0.017
   15  0.020  0.003  0.005  0.029
   16  0.004  0.003  0.005  0.012
   17  0.020  0.004  0.005  0.029
   18  0.000  0.013  0.003  0.015
   19  0.006  0.003  0.005  0.014
   20  0.000  0.014  0.002  0.016
   21  0.020  0.004  0.006  0.030
   22  0.046  0.004  0.006  0.056
   23  0.021  0.004  0.006  0.031
   24  0.000  0.002  0.016  0.018
   25  0.000  0.005  0.010  0.015
   26  0.006  0.004  0.005  0.014
   27  0.047  0.004  0.006  0.057
   28  0.000  0.000  0.004  0.004
   29  0.009  0.002  0.003  0.014
   30  0.008  0.002  0.004  0.014
   31  0.009  0.002  0.003  0.013
   32  0.000  0.001  0.003  0.004
   33  0.008  0.002  0.004  0.014
   34  0.000  0.001  0.003  0.004
   35  0.000  0.003  0.006  0.009
   36  0.000  0.001  0.005  0.006
   37  0.000  0.000  0.000  0.000
tot    0.342  0.114  0.180  0.636
 
band    12 # energy   -5.75291695 # occ.  2.00000000
 
ion      s      p      d    tot
    1  0.000  0.000  0.003  0.003
    2  0.002  0.001  0.002  0.005
    3  0.003  0.001  0.002  0.007
    4  0.002  0.001  0.002  0.005
    5  0.000  0.003  0.005  0.008
    6  0.009  0.002  0.002  0.014
    7  0.003  0.001  0.002  0.007
    8  0.010  0.002  0.002  0.014
    9  0.000  0.002  0.003  0.006
   10  0.006  0.003  0.003  0.012
   11  0.014  0.002  0.013  0.028
   12  0.001  0.005  0.007  0.013
   13  0.015  0.002  0.012  0.029
   14  0.058  0.004  0.003  0.066
   15  0.007  0.010  0.004  0.020
   16  0.001  0.005  0.007  0.013
   17  0.007  0.009  0.004  0.020
   18  0.026  0.000  0.006  0.033
   19  0.002  0.005  0.008  0.015
   20  0.027  0.000  0.007  0.035
   21  0.007  0.011  0.004  0.021
   22  0.015  0.003  0.012  0.030
   23  0.007  0.011  0.003  0.021
   24  0.063  0.004  0.003  0.070
   25  0.008  0.003  0.003  0.014
   26  0.002  0.005  0.008  0.015
   27  0.014  0.003  0.013  0.030
   28  0.000  0.000  0.004  0.004
   29  0.002  0.001  0.004  0.007
   30  0.003  0.001  0.003  0.007
   31  0.002  0.001  0.004  0.008
   32  0.011  0.003  0.003  0.017
   33  0.003  0.001  0.003  0.007
   34  0.011  0.003  0.003  0.017
   35  0.000  0.003  0.006  0.009
   36  0.000  0.001  0.005  0.006
   37  0.000  0.000  0.000  0.000
tot    0.342  0.114  0.180  0.636
 
band    13 # energy   -5.68464562 # occ.  2.00000000
 
ion      s      p      d    tot
    1  0.000  0.000  0.001  0.001
    2  0.002  0.002  0.005  0.009
    3  0.002  0.002  0.005  0.009
    4  0.002  0.002  0.005  0.009
    5  0.034  0.003  0.000  0.037
    6  0.002  0.002  0.005  0.009
    7  0.002  0.002  0.005  0.009
    8  0.002  0.002  0.005  0.009
    9  0.005  0.002  0.004  0.011
   10  0.001  0.003  0.010  0.014
   11  0.018  0.009  0.003  0.031
   12  0.001  0.003  0.010  0.014
   13  0.018  0.009  0.003  0.031
   14  0.018  0.009  0.003  0.031
   15  0.030  0.002  0.010  0.042
   16  0.001  0.003  0.010  0.014
   17  0.030  0.002  0.010  0.042
   18  0.030  0.002  0.009  0.042
   19  0.007  0.001  0.010  0.018
   20  0.020  0.004  0.007  0.031
   21  0.020  0.004  0.007  0.031
   22  0.012  0.007  0.004  0.022
   23  0.020  0.004  0.007  0.031
   24  0.012  0.007  0.004  0.022
   25  0.007  0.001  0.010  0.018
   26  0.007  0.001  0.010  0.018
   27  0.012  0.007  0.004  0.022
   28  0.001  0.000  0.002  0.003
   29  0.002  0.001  0.003  0.006
   30  0.002  0.001  0.003  0.007
   31  0.002  0.001  0.003  0.006
   32  0.002  0.001  0.003  0.007
   33  0.002  0.001  0.003  0.007
   34  0.002  0.001  0.003  0.007
   35  0.001  0.001  0.002  0.004
   36  0.010  0.001  0.000  0.012
   37  0.001  0.000  0.000  0.001
tot    0.339  0.108  0.190  0.636
 
band    14 # energy   -5.06523596 # occ.  2.00000000
 
ion      s      p      d    tot
    1  0.000  0.004  0.009  0.013
    2  0.003  0.002  0.005  0.010
    3  0.019  0.004  0.005  0.028
    4  0.003  0.002  0.005  0.010
    5  0.000  0.000  0.010  0.010
    6  0.007  0.002  0.005  0.013
    7  0.020  0.004  0.005  0.028
    8  0.007  0.002  0.005  0.014
    9  0.000  0.005  0.008  0.013
   10  0.011  0.001  0.006  0.018
   11  0.001  0.002  0.013  0.016
   12  0.003  0.004  0.013  0.020
   13  0.001  0.002  0.012  0.016
   14  0.004  0.001  0.007  0.013
   15  0.007  0.001  0.017  0.025
   16  0.003  0.004  0.013  0.020
   17  0.007  0.001  0.016  0.025
   18  0.028  0.005  0.004  0.037
   19  0.002  0.002  0.011  0.016
   20  0.000  0.001  0.010  0.011
   21  0.000  0.002  0.015  0.016
   22  0.002  0.002  0.022  0.026
   23  0.000  0.002  0.015  0.017
   24  0.008  0.003  0.002  0.013
   25  0.010  0.006  0.009  0.026
   26  0.003  0.002  0.011  0.016
   27  0.002  0.002  0.023  0.027
   28  0.000  0.004  0.008  0.012
   29  0.006  0.002  0.010  0.017
   30  0.027  0.003  0.011  0.041
   31  0.005  0.002  0.010  0.017
   32  0.008  0.002  0.009  0.020
   33  0.027  0.003  0.011  0.041
   34  0.009  0.002  0.009  0.020
   35  0.000  0.005  0.010  0.015
   36  0.000  0.000  0.017  0.017
   37  0.000  0.000  0.000  0.000
tot    0.233  0.092  0.372  0.697
 
band    15 # energy   -5.06521316 # occ.  2.00000000
 
ion      s      p      d    tot
    1  0.000  0.004  0.009  0.013
    2  0.016  0.003  0.005  0.024
    3  0.000  0.001  0.005  0.006
    4  0.017  0.003  0.005  0.025
    5  0.000  0.000  0.010  0.010
    6  0.013  0.003  0.005  0.021
    7  0.000  0.001  0.005  0.006
    8  0.013  0.003  0.005  0.021
    9  0.000  0.005  0.008  0.013
   10  0.000  0.005  0.016  0.020
   11  0.003  0.002  0.009  0.014
   12  0.008  0.002  0.009  0.018
   13  0.003  0.002  0.009  0.014
   14  0.000  0.003  0.014  0.017
   15  0.021  0.003  0.008  0.033
   16  0.008  0.002  0.009  0.018
   17  0.021  0.003  0.009  0.033
   18  0.000  0.000  0.021  0.021
   19  0.008  0.005  0.010  0.022
   20  0.000  0.002  0.016  0.018
   21  0.000  0.001  0.012  0.013
   22  0.006  0.003  0.009  0.018
   23  0.000  0.001  0.012  0.013
   24  0.000  0.002  0.029  0.031
   25  0.000  0.000  0.012  0.012
   26  0.008  0.005  0.010  0.022
   27  0.006  0.003  0.009  0.018
   28  0.000  0.004  0.008  0.012
   29  0.022  0.003  0.010  0.035
   30  0.000  0.002  0.009  0.011
   31  0.022  0.003  0.010  0.035
   32  0.019  0.003  0.010  0.032
   33  0.000  0.002  0.009  0.011
   34  0.019  0.003  0.010  0.032
   35  0.000  0.005  0.010  0.015
   36  0.000  0.000  0.017  0.017
   37  0.000  0.000  0.000  0.000
tot    0.233  0.092  0.372  0.697
 
band    16 # energy   -5.04199742 # occ.  2.00000000
 
ion      s      p      d    tot
    1  0.006  0.000  0.010  0.016
    2  0.006  0.001  0.010  0.016
    3  0.006  0.001  0.010  0.016
    4  0.006  0.001  0.010  0.016
    5  0.000  0.001  0.010  0.012
    6  0.006  0.001  0.010  0.016
    7  0.006  0.001  0.010  0.016
    8  0.006  0.001  0.010  0.016
    9  0.016  0.000  0.007  0.023
   10  0.008  0.000  0.025  0.033
   11  0.012  0.000  0.021  0.033
   12  0.008  0.000  0.025  0.033
   13  0.012  0.000  0.021  0.033
   14  0.012  0.000  0.021  0.033
   15  0.002  0.000  0.022  0.024
   16  0.008  0.000  0.025  0.033
   17  0.002  0.000  0.022  0.024
   18  0.002  0.000  0.022  0.024
   19  0.004  0.000  0.019  0.023
   20  0.010  0.001  0.026  0.037
   21  0.010  0.001  0.026  0.037
   22  0.003  0.000  0.019  0.022
   23  0.010  0.001  0.026  0.037
   24  0.003  0.000  0.019  0.022
   25  0.004  0.000  0.019  0.023
   26  0.004  0.000  0.019  0.023
   27  0.003  0.000  0.019  0.022
   28  0.002  0.000  0.006  0.009
   29  0.003  0.000  0.008  0.012
   30  0.003  0.000  0.008  0.012
   31  0.003  0.000  0.008  0.012
   32  0.003  0.000  0.008  0.012
   33  0.003  0.000  0.008  0.012
   34  0.003  0.000  0.008  0.012
   35  0.009  0.000  0.006  0.015
   36  0.000  0.001  0.010  0.010
   37  0.000  0.000  0.000  0.000
tot    0.204  0.015  0.554  0.773
 
band    17 # energy   -5.00443820 # occ.  2.00000000
 
ion      s      p      d    tot
    1  0.033  0.003  0.000  0.037
    2  0.000  0.003  0.010  0.013
    3  0.000  0.003  0.010  0.013
    4  0.000  0.003  0.010  0.013
    5  0.000  0.000  0.001  0.001
    6  0.000  0.003  0.010  0.013
    7  0.000  0.003  0.010  0.013
    8  0.000  0.003  0.010  0.013
    9  0.027  0.004  0.001  0.031
   10  0.008  0.003  0.010  0.022
   11  0.001  0.000  0.015  0.016
   12  0.008  0.003  0.010  0.022
   13  0.001  0.000  0.015  0.016
   14  0.001  0.000  0.015  0.016
   15  0.008  0.003  0.015  0.026
   16  0.008  0.003  0.010  0.022
   17  0.008  0.003  0.015  0.026
   18  0.008  0.003  0.015  0.026
   19  0.004  0.003  0.020  0.027
   20  0.000  0.000  0.014  0.014
   21  0.000  0.000  0.014  0.014
   22  0.011  0.003  0.009  0.023
   23  0.000  0.000  0.014  0.014
   24  0.011  0.003  0.009  0.023
   25  0.004  0.003  0.020  0.027
   26  0.004  0.003  0.020  0.027
   27  0.011  0.003  0.009  0.023
   28  0.039  0.003  0.000  0.042
   29  0.000  0.003  0.014  0.017
   30  0.000  0.003  0.013  0.017
   31  0.000  0.003  0.014  0.017
   32  0.000  0.003  0.013  0.017
   33  0.000  0.003  0.013  0.017
   34  0.000  0.003  0.013  0.017
   35  0.028  0.004  0.001  0.032
   36  0.000  0.000  0.000  0.000
   37  0.000  0.000  0.000  0.000
tot    0.225  0.090  0.391  0.706
 
band    18 # energy   -4.99462657 # occ.  2.00000000
 
ion      s      p      d    tot
    1  0.000  0.002  0.009  0.012
    2  0.004  0.002  0.005  0.011
    3  0.020  0.004  0.005  0.029
    4  0.001  0.002  0.005  0.008
    5  0.000  0.006  0.009  0.015
    6  0.007  0.002  0.005  0.014
    7  0.021  0.004  0.005  0.030
    8  0.011  0.003  0.005  0.018
    9  0.000  0.001  0.012  0.013
   10  0.000  0.000  0.018  0.018
   11  0.016  0.003  0.009  0.028
   12  0.010  0.003  0.012  0.025
   13  0.013  0.003  0.012  0.028
   14  0.000  0.002  0.026  0.028
   15  0.000  0.001  0.010  0.011
   16  0.013  0.004  0.010  0.027
   17  0.000  0.001  0.011  0.013
   18  0.000  0.004  0.017  0.021
   19  0.002  0.001  0.010  0.012
   20  0.000  0.001  0.032  0.034
   21  0.013  0.004  0.015  0.032
   22  0.005  0.003  0.011  0.019
   23  0.017  0.005  0.010  0.031
   24  0.000  0.001  0.013  0.014
   25  0.000  0.003  0.023  0.026
   26  0.002  0.001  0.012  0.015
   27  0.007  0.003  0.011  0.020
   28  0.000  0.002  0.013  0.015
   29  0.005  0.002  0.007  0.014
   30  0.018  0.004  0.008  0.030
   31  0.002  0.002  0.006  0.010
   32  0.004  0.002  0.006  0.013
   33  0.019  0.004  0.008  0.031
   34  0.008  0.002  0.007  0.017
   35  0.000  0.001  0.011  0.012
   36  0.000  0.003  0.008  0.011
   37  0.000  0.000  0.000  0.000
tot    0.219  0.089  0.395  0.704
 
band    19 # energy   -4.99461932 # occ.  2.00000000
 
ion      s      p      d    tot
    1  0.000  0.002  0.009  0.012
    2  0.017  0.003  0.005  0.026
    3  0.001  0.002  0.005  0.008
    4  0.020  0.004  0.005  0.029
    5  0.000  0.006  0.009  0.015
    6  0.015  0.003  0.005  0.023
    7  0.000  0.002  0.005  0.007
    8  0.011  0.003  0.005  0.019
    9  0.000  0.001  0.012  0.013
   10  0.016  0.004  0.008  0.028
   11  0.003  0.002  0.023  0.028
   12  0.005  0.002  0.015  0.022
   13  0.007  0.003  0.019  0.028
   14  0.019  0.004  0.005  0.028
   15  0.000  0.003  0.015  0.019
   16  0.003  0.001  0.016  0.020
   17  0.000  0.003  0.014  0.017
   18  0.000  0.000  0.008  0.009
   19  0.000  0.003  0.020  0.023
   20  0.020  0.005  0.005  0.030
   21  0.007  0.002  0.023  0.033
   22  0.003  0.002  0.012  0.016
   23  0.003  0.002  0.028  0.033
   24  0.008  0.003  0.010  0.022
   25  0.002  0.000  0.007  0.010
   26  0.001  0.002  0.018  0.020
   27  0.001  0.001  0.012  0.015
   28  0.000  0.002  0.013  0.015
   29  0.014  0.003  0.007  0.024
   30  0.001  0.001  0.006  0.008
   31  0.017  0.004  0.008  0.028
   32  0.014  0.003  0.008  0.025
   33  0.000  0.001  0.006  0.007
   34  0.011  0.003  0.007  0.021
   35  0.000  0.001  0.011  0.012
   36  0.000  0.003  0.008  0.011
   37  0.000  0.000  0.000  0.000
tot    0.219  0.089  0.395  0.704
 
band    20 # energy   -4.86362122 # occ.  2.00000000
 
ion      s      p      d    tot
    1  0.013  0.002  0.000  0.015
    2  0.000  0.003  0.011  0.014
    3  0.000  0.003  0.011  0.014
    4  0.000  0.003  0.011  0.014
    5  0.045  0.004  0.000  0.049
    6  0.000  0.003  0.011  0.014
    7  0.000  0.003  0.011  0.014
    8  0.000  0.003  0.011  0.014
    9  0.005  0.001  0.001  0.007
   10  0.002  0.001  0.025  0.028
   11  0.004  0.004  0.019  0.027
   12  0.002  0.001  0.025  0.028
   13  0.004  0.004  0.019  0.027
   14  0.004  0.004  0.019  0.027
   15  0.004  0.001  0.010  0.016
   16  0.002  0.001  0.025  0.028
   17  0.004  0.001  0.010  0.016
   18  0.004  0.001  0.010  0.016
   19  0.011  0.001  0.020  0.032
   20  0.010  0.004  0.011  0.024
   21  0.010  0.004  0.011  0.024
   22  0.002  0.001  0.017  0.021
   23  0.010  0.004  0.011  0.024
   24  0.002  0.001  0.017  0.021
   25  0.011  0.001  0.020  0.032
   26  0.011  0.001  0.020  0.032
   27  0.002  0.001  0.017  0.021
   28  0.003  0.002  0.005  0.010
   29  0.001  0.002  0.010  0.013
   30  0.001  0.002  0.010  0.013
   31  0.001  0.002  0.010  0.013
   32  0.001  0.002  0.010  0.013
   33  0.001  0.002  0.010  0.013
   34  0.001  0.002  0.010  0.013
   35  0.003  0.001  0.002  0.006
   36  0.020  0.001  0.001  0.023
   37  0.004  0.000  0.000  0.004
tot    0.198  0.078  0.441  0.717
 
band    21 # energy   -4.41281035 # occ.  2.00000000
 
ion      s      p      d    tot
    1  0.000  0.001  0.027  0.027
    2  0.015  0.002  0.008  0.024
    3  0.006  0.001  0.007  0.014
    4  0.015  0.002  0.008  0.024
    5  0.000  0.001  0.014  0.015
    6  0.002  0.001  0.008  0.011
    7  0.006  0.001  0.007  0.014
    8  0.002  0.001  0.008  0.011
    9  0.000  0.003  0.003  0.007
   10  0.000  0.000  0.059  0.059
   11  0.000  0.003  0.016  0.019
   12  0.000  0.000  0.018  0.019
   13  0.000  0.003  0.016  0.019
   14  0.000  0.000  0.006  0.006
   15  0.000  0.005  0.015  0.020
   16  0.000  0.000  0.018  0.018
   17  0.000  0.005  0.015  0.020
   18  0.000  0.000  0.026  0.026
   19  0.004  0.003  0.015  0.023
   20  0.000  0.000  0.058  0.058
   21  0.000  0.000  0.024  0.024
   22  0.003  0.002  0.014  0.019
   23  0.000  0.000  0.023  0.024
   24  0.000  0.000  0.017  0.017
   25  0.000  0.000  0.021  0.021
   26  0.004  0.003  0.015  0.023
   27  0.003  0.002  0.014  0.019
   28  0.000  0.001  0.007  0.008
   29  0.009  0.000  0.025  0.034
   30  0.000  0.001  0.016  0.017
   31  0.009  0.000  0.025  0.034
   32  0.011  0.000  0.022  0.033
   33  0.000  0.001  0.016  0.017
   34  0.011  0.000  0.022  0.033
   35  0.000  0.001  0.011  0.012
   36  0.000  0.000  0.028  0.028