 vasp.6.2.0 18Jan21 (build Jun 12 2021 23:27:24) complex                        
  
 executed on             LinuxIFC date 2022.05.30  17:24:31
 running on   28 total cores
 distrk:  each k-point on   28 cores,    1 groups
 distr:  one band on NCORE=   1 cores,   28 groups


--------------------------------------------------------------------------------------------------------


 INCAR:
   ISMEAR = -5
   SIGMA = 0.1
   ISPIN = 1
   EDIFF = 1.d-5
   EDIFFG = -0.01
   NSW = 0
   NELM = 150
   ENCUT = 500
   ISIF = 2
   IBRION = 2
   LREAL = Auto
   ALGO = Fast
   ICHARG = 11
   LORBIT = 10
   LCHARG = .F.
   LWAVE = .F.

 POTCAR:    PAW_PBE Ag 02Apr2005                  
 POTCAR:    PAW_PBE Rh 04Feb2005                  
 POTCAR:    PAW_PBE C 08Apr2002                   
 -----------------------------------------------------------------------------
|                                                                             |
|           W    W    AA    RRRRR   N    N  II  N    N   GGGG   !!!           |
|           W    W   A  A   R    R  NN   N  II  NN   N  G    G  !!!           |
|           W    W  A    A  R    R  N N  N  II  N N  N  G       !!!           |
|           W WW W  AAAAAA  RRRRR   N  N N  II  N  N N  G  GGG   !            |
|           WW  WW  A    A  R   R   N   NN  II  N   NN  G    G                |
|           W    W  A    A  R    R  N    N  II  N    N   GGGG   !!!           |
|                                                                             |
|     For optimal performance we recommend to set                             |
|       NCORE = 2 up to number-of-cores-per-socket                            |
|     NCORE specifies how many cores store one orbital (NPAR=cpu/NCORE).      |
|     This setting can greatly improve the performance of VASP for DFT.       |
|     The default, NCORE=1 might be grossly inefficient on modern             |
|     multi-core architectures or massively parallel machines. Do your        |
|     own testing! More info at https://www.vasp.at/wiki/index.php/NCORE      |
|     Unfortunately you need to use the default for GW and RPA                |
|     calculations (for HF NCORE is supported but not extensively tested      |
|     yet).                                                                   |
|                                                                             |
 -----------------------------------------------------------------------------

 POTCAR:    PAW_PBE Ag 02Apr2005                  
   VRHFIN =Ag : s1 d10                                                                              
   LEXCH  = PE                                                                                      
   EATOM  =  1037.2675 eV,   76.2370 Ry                                                             
                                                                                                    
   TITEL  = PAW_PBE Ag 02Apr2005                                                                    
   LULTRA =        F    use ultrasoft PP ?                                                          
   IUNSCR =        1    unscreen: 0-lin 1-nonlin 2-no                                               
   RPACOR =    2.000    partial core radius                                                         
   POMASS =  107.868; ZVAL   =   11.000    mass and valenz                                          
   RCORE  =    2.500    outmost cutoff radius                                                       
   RWIGS  =    2.840; RWIGS  =    1.503    wigner-seitz radius (au A)                               
   ENMAX  =  249.844; ENMIN  =  187.383 eV                                                          
   ICORE  =        3    local potential                                                             
   LCOR   =        T    correct aug charges                                                         
   LPAW   =        T    paw PP                                                                      
   EAUG   =  412.496                                                                                
   DEXC   =    0.000                                                                                
   RMAX   =    2.560    core radius for proj-oper                                                   
   RAUG   =    1.300    factor for augmentation sphere                                              
   RDEP   =    2.576    radius for radial grids                                                     
   RDEPT  =    2.072    core radius for aug-charge                                                  
                                                                                                    
   Atomic configuration                                                                             
   12 entries                                                                                       
     n  l   j            E        occ.                                                              
     1  0  0.50    -25324.9161   2.0000                                                             
     2  0  0.50     -3728.5341   2.0000                                                             
     2  1  1.50     -3344.0404   6.0000                                                             
     3  0  0.50      -683.5581   2.0000                                                             
     3  1  1.50      -557.3225   6.0000                                                             
     3  2  2.50      -358.3853  10.0000                                                             
     4  0  0.50       -95.0341   2.0000                                                             
     4  1  1.50       -58.5511   6.0000                                                             
     4  2  2.50        -7.4440  10.0000                                                             
     5  0  0.50        -4.4045   1.0000                                                             
     5  1  0.50        -1.3606   0.0000                                                             
     4  3  2.50        -1.3606   0.0000                                                             
   Description                                                                                      
     l       E           TYP  RCUT    TYP  RCUT                                                     
     2     -7.4439781     23  2.400                                                                 
     2     -8.8045607     23  2.400                                                                 
     0     -4.4044681     23  2.400                                                                 
     0      1.9520038     23  2.400                                                                 
     1     -1.3605826     23  2.500                                                                 
     1     27.2116520     23  2.500                                                                 
     3     -4.0817478     23  2.400                                                                 
  local pseudopotential read in
  partial core-charges read in
  partial kinetic energy density read in
  atomic valenz-charges read in
  non local Contribution for L=           2  read in
    real space projection operators read in
  non local Contribution for L=           2  read in
    real space projection operators read in
  non local Contribution for L=           0  read in
    real space projection operators read in
  non local Contribution for L=           0  read in
    real space projection operators read in
  non local Contribution for L=           1  read in
    real space projection operators read in
  non local Contribution for L=           1  read in
    real space projection operators read in
    PAW grid and wavefunctions read in
 
   number of l-projection  operators is LMAX  =           6
   number of lm-projection operators is LMMAX =          18
 
 POTCAR:    PAW_PBE Rh 04Feb2005                  
   VRHFIN =Rh: s1 d8                                                                                
   LEXCH  = PE                                                                                      
   EATOM  =   616.4198 eV,   45.3056 Ry                                                             
                                                                                                    
   TITEL  = PAW_PBE Rh 04Feb2005                                                                    
   LULTRA =        F    use ultrasoft PP ?                                                          
   IUNSCR =        1    unscreen: 0-lin 1-nonlin 2-no                                               
   RPACOR =    2.170    partial core radius                                                         
   POMASS =  102.906; ZVAL   =    9.000    mass and valenz                                          
   RCORE  =    2.700    outmost cutoff radius                                                       
   RWIGS  =    2.650; RWIGS  =    1.402    wigner-seitz radius (au A)                               
   ENMAX  =  228.996; ENMIN  =  171.747 eV                                                          
   ICORE  =        3    local potential                                                             
   LCOR   =        T    correct aug charges                                                         
   LPAW   =        T    paw PP                                                                      
   EAUG   =  374.513                                                                                
   DEXC   =    0.000                                                                                
   RMAX   =    2.752    core radius for proj-oper                                                   
   RAUG   =    1.300    factor for augmentation sphere                                              
   RDEP   =    2.703    radius for radial grids                                                     
   RDEPT  =    2.174    core radius for aug-charge                                                  
                                                                                                    
   Atomic configuration                                                                             
   12 entries                                                                                       
     n  l   j            E        occ.                                                              
     1  0  0.50    -23034.1986   2.0000                                                             
     2  0  0.50     -3339.2387   2.0000                                                             
     2  1  1.50     -2992.3290   6.0000                                                             
     3  0  0.50      -596.7249   2.0000                                                             
     3  1  1.50      -482.7183   6.0000                                                             
     3  2  2.50      -300.5356  10.0000                                                             
     4  0  0.50       -82.4809   2.0000                                                             
     4  1  0.50       -50.4082   6.0000                                                             
     4  2  2.50        -5.9408   8.0000                                                             
     5  0  0.50        -4.2999   1.0000                                                             
     5  1  1.50        -1.3606   0.0000                                                             
     4  3  2.50        -1.3606   0.0000                                                             
   Description                                                                                      
     l       E           TYP  RCUT    TYP  RCUT                                                     
     2     -5.9407964     23  2.500                                                                 
     2     -7.3013790     23  2.500                                                                 
     0     -4.2998518     23  2.400                                                                 
     0      6.0533315     23  2.400                                                                 
     1     -4.0817478     23  2.700                                                                 
     1     27.2116520     23  2.700                                                                 
     3     -4.0817478     23  2.500                                                                 
  local pseudopotential read in
  partial core-charges read in
  partial kinetic energy density read in
  atomic valenz-charges read in
  non local Contribution for L=           2  read in
    real space projection operators read in
  non local Contribution for L=           2  read in
    real space projection operators read in
  non local Contribution for L=           0  read in
    real space projection operators read in
  non local Contribution for L=           0  read in
    real space projection operators read in
  non local Contribution for L=           1  read in
    real space projection operators read in
  non local Contribution for L=           1  read in
    real space projection operators read in
    PAW grid and wavefunctions read in
 
   number of l-projection  operators is LMAX  =           6
   number of lm-projection operators is LMMAX =          18
 
 POTCAR:    PAW_PBE C 08Apr2002                   
   VRHFIN =C: s2p2                                                                                  
   LEXCH  = PE                                                                                      
   EATOM  =   147.1560 eV,   10.8157 Ry                                                             
                                                                                                    
   TITEL  = PAW_PBE C 08Apr2002                                                                     
   LULTRA =        F    use ultrasoft PP ?                                                          
   IUNSCR =        1    unscreen: 0-lin 1-nonlin 2-no                                               
   RPACOR =    1.200    partial core radius                                                         
   POMASS =   12.011; ZVAL   =    4.000    mass and valenz                                          
   RCORE  =    1.500    outmost cutoff radius                                                       
   RWIGS  =    1.630; RWIGS  =    0.863    wigner-seitz radius (au A)                               
   ENMAX  =  400.000; ENMIN  =  300.000 eV                                                          
   ICORE  =        2    local potential                                                             
   LCOR   =        T    correct aug charges                                                         
   LPAW   =        T    paw PP                                                                      
   EAUG   =  644.873                                                                                
   DEXC   =    0.000                                                                                
   RMAX   =    1.529    core radius for proj-oper                                                   
   RAUG   =    1.300    factor for augmentation sphere                                              
   RDEP   =    1.501    radius for radial grids                                                     
   RDEPT  =    1.300    core radius for aug-charge                                                  
                                                                                                    
   Atomic configuration                                                                             
    4 entries                                                                                       
     n  l   j            E        occ.                                                              
     1  0  0.50      -273.3789   2.0000                                                             
     2  0  0.50       -13.7508   2.0000                                                             
     2  1  0.50        -5.2854   2.0000                                                             
     3  2  1.50        -5.4423   0.0000                                                             
   Description                                                                                      
     l       E           TYP  RCUT    TYP  RCUT                                                     
     0    -13.7508458     23  1.200                                                                 
     0     -8.2022199     23  1.200                                                                 
     1     -5.2854383     23  1.500                                                                 
     1     34.0145650     23  1.500                                                                 
     2     -5.4423304      7  1.500                                                                 
  local pseudopotential read in
  partial core-charges read in
  partial kinetic energy density read in
  atomic valenz-charges read in
  non local Contribution for L=           0  read in
    real space projection operators read in
  non local Contribution for L=           0  read in
    real space projection operators read in
  non local Contribution for L=           1  read in
    real space projection operators read in
  non local Contribution for L=           1  read in
    real space projection operators read in
    PAW grid and wavefunctions read in
 
   number of l-projection  operators is LMAX  =           4
   number of lm-projection operators is LMMAX =           8
 
 Optimization of the real space projectors (new method)

 maximal supplied QI-value         = 15.12
 optimisation between [QCUT,QGAM] = [ 11.34, 22.83] = [ 36.00,145.93] Ry 
 Optimized for a Real-space Cutoff    1.43 Angstroem

   l    n(q)    QCUT    max X(q) W(low)/X(q) W(high)/X(q)  e(spline) 
   2      9    11.338    53.897    0.16E-03    0.20E-03    0.28E-06
   2      9    11.338    52.416    0.16E-03    0.20E-03    0.29E-06
   0     10    11.338   122.045    0.31E-04    0.76E-04    0.15E-06
   0     10    11.338    73.629    0.30E-04    0.72E-04    0.15E-06
   1      9    11.338    15.255    0.20E-03    0.19E-04    0.17E-06
   1      9    11.338     9.562    0.16E-03    0.15E-04    0.14E-06
 Optimization of the real space projectors (new method)

 maximal supplied QI-value         = 13.98
 optimisation between [QCUT,QGAM] = [ 11.33, 22.79] = [ 35.93,145.49] Ry 
 Optimized for a Real-space Cutoff    1.47 Angstroem

   l    n(q)    QCUT    max X(q) W(low)/X(q) W(high)/X(q)  e(spline) 
   2      9    11.327    59.645    0.31E-03    0.12E-04    0.28E-06
   2      9    11.327    58.460    0.31E-03    0.12E-04    0.29E-06
   0     10    11.327    97.683    0.32E-04    0.83E-04    0.31E-06
   0     10    11.327    53.223    0.30E-04    0.78E-04    0.29E-06
   1     10    11.327    13.596    0.49E-03    0.95E-03    0.55E-06
   1     10    11.327     7.885    0.36E-03    0.71E-03    0.41E-06
 Optimization of the real space projectors (new method)

 maximal supplied QI-value         = 25.13
 optimisation between [QCUT,QGAM] = [ 11.31, 22.87] = [ 35.82,146.48] Ry 
 Optimized for a Real-space Cutoff    1.00 Angstroem

   l    n(q)    QCUT    max X(q) W(low)/X(q) W(high)/X(q)  e(spline) 
   0      7    11.310   115.676    0.43E-03    0.13E-02    0.19E-06
   0      7    11.310    87.132    0.43E-03    0.13E-02    0.18E-06
   1      6    11.310     4.429    0.42E-03    0.74E-03    0.11E-06
   1      6    11.310     2.733    0.34E-03    0.55E-03    0.92E-07
  PAW_PBE Ag 02Apr2005                  :
 energy of atom  1       EATOM=-1037.2675
 kinetic energy error for atom=    0.0052 (will be added to EATOM!!)
  PAW_PBE Rh 04Feb2005                  :
 energy of atom  2       EATOM= -616.4198
 kinetic energy error for atom=    0.0030 (will be added to EATOM!!)
  PAW_PBE C 08Apr2002                   :
 energy of atom  3       EATOM= -147.1560
 kinetic energy error for atom=    0.0076 (will be added to EATOM!!)
 
 
 POSCAR: Ag-Rh-C
  positions in direct lattice
  velocities in cartesian coordinates
 exchange correlation table for  LEXCH =        8
   RHO(1)=    0.500       N(1)  =     2000
   RHO(2)=  100.500       N(2)  =     4000

 VTST: version 3.2, (02/03/18)

 CHAIN: initializing optimizer
 
 OPT: Using VASP Conjugate-Gradient optimizer
 CHAIN: Read ICHAIN            0
 
 POSCAR: Ag-Rh-C
  positions in direct lattice
  velocities in cartesian coordinates
 


--------------------------------------------------------------------------------------------------------


 ion  position               nearest neighbor table
   1  0.000  0.000  0.217-   2 2.93   8 2.93   7 2.93   6 2.93   4 2.93  12 2.93  16 2.93  10 2.93
                             3 2.93
   2  0.333  0.000  0.217-   1 2.93   8 2.93   9 2.93   3 2.93   4 2.93   5 2.93  10 2.93  17 2.93
                            11 2.93
   3  0.667  0.000  0.217-   9 2.93   2 2.93   5 2.93  11 2.93   7 2.93  18 2.93   1 2.93   6 2.93
                            12 2.93
   4  0.000  0.333  0.217-   5 2.93   6 2.93   2 2.93   1 2.93   7 2.93  13 2.93  15 2.93   9 2.93
                            10 2.93
   5  0.333  0.333  0.217-   4 2.93   3 2.93   7 2.93   2 2.93   8 2.93  14 2.93  13 2.93  11 2.93
                             6 2.93
   6  0.667  0.333  0.217-   4 2.93   9 2.93   1 2.93  15 2.93   8 2.93  12 2.93   3 2.93   5 2.93
                            14 2.93
   7  0.000  0.667  0.217-   8 2.93   1 2.93   5 2.93   3 2.93   4 2.93  16 2.93  18 2.93  13 2.93
                             9 2.93
   8  0.333  0.667  0.217-   7 2.93   1 2.93   2 2.93   9 2.93   5 2.93  16 2.93   6 2.93  17 2.93
                            14 2.93
   9  0.667  0.667  0.217-   3 2.93   2 2.93   8 2.93   6 2.93  17 2.93   4 2.93  15 2.93   7 2.93
                            18 2.93
  10  0.111  0.111  0.315-  20 2.90  19 2.93  26 2.93  12 2.93  16 2.93  15 2.93  17 2.93  13 2.93
                            11 2.93   2 2.93   1 2.93   4 2.93
  11  0.444  0.111  0.315-  21 2.90  20 2.90  27 2.92  14 2.93  17 2.93  18 2.93   3 2.93  12 2.93
                            13 2.93  10 2.93   5 2.93   2 2.93
  12  0.778  0.111  0.315-  21 2.90  25 2.93  19 2.93  10 2.93  16 2.93  18 2.93  15 2.93  11 2.93
                             1 2.93  14 2.93   6 2.93   3 2.93
  13  0.111  0.444  0.315-  20 2.90  23 2.90  22 2.92  15 2.93  14 2.93  18 2.93  10 2.93  11 2.93
                            16 2.93   4 2.93   5 2.93   7 2.93
  14  0.444  0.444  0.315-  23 2.90  21 2.90  24 2.92  13 2.93  11 2.93  16 2.93   5 2.93  12 2.93
                            17 2.93   8 2.93  15 2.93   6 2.93
  15  0.778  0.444  0.315-  24 2.92  22 2.92  19 2.92  13 2.93  10 2.93  12 2.93  17 2.93  18 2.93
                             4 2.93   6 2.93   9 2.93  14 2.93
  16  0.111  0.778  0.315-  23 2.90  26 2.93  25 2.93  18 2.93  12 2.93  10 2.93  14 2.93  17 2.93
                            13 2.93   7 2.93   8 2.93   1 2.93
  17  0.444  0.778  0.315-  27 2.92  24 2.92  26 2.92  11 2.93  10 2.93   9 2.93  18 2.93  15 2.93
                            16 2.93   2 2.93  14 2.93   8 2.93
  18  0.778  0.778  0.315-  22 2.92  27 2.92  25 2.92  16 2.93  12 2.93  13 2.93  11 2.93  17 2.93
                            15 2.93   7 2.93   3 2.93   9 2.93
  19  0.889  0.223  0.413-  28 2.91  15 2.92  10 2.93  12 2.93  24 2.93  22 2.93  32 2.93  31 2.93
                            20 2.93  21 2.93  26 2.94  25 2.94
  20  0.222  0.222  0.412-  36 2.78  13 2.90  11 2.90  10 2.90  31 2.91  29 2.91  21 2.92  23 2.92
                            27 2.93  22 2.93  19 2.93  26 2.93
  21  0.555  0.222  0.412-  36 2.78  11 2.90  14 2.90  12 2.90  30 2.91  32 2.91  20 2.92  23 2.92
                            27 2.93  24 2.93  25 2.93  19 2.93
  22  0.889  0.556  0.413-  35 2.90  18 2.92  15 2.92  13 2.92  33 2.92  31 2.92  25 2.93  19 2.93
                            24 2.93  27 2.93  23 2.93  20 2.93
  23  0.222  0.555  0.412-  36 2.78  14 2.90  13 2.90  16 2.90  34 2.91  33 2.91  21 2.92  20 2.92
                            22 2.93  24 2.93  26 2.93  25 2.93
  24  0.556  0.556  0.413-  35 2.90  15 2.92  17 2.92  14 2.92  32 2.92  34 2.92  19 2.93  26 2.93
                            27 2.93  22 2.93  23 2.93  21 2.93
  25  0.889  0.889  0.413-  28 2.91  18 2.92  16 2.93  12 2.93  22 2.93  27 2.93  33 2.93  30 2.93
                            23 2.93  21 2.93  26 2.94  19 2.94
  26  0.223  0.889  0.413-  28 2.91  17 2.92  16 2.93  10 2.93  27 2.93  24 2.93  34 2.93  29 2.93
                            23 2.93  20 2.93  25 2.94  19 2.94
  27  0.556  0.889  0.413-  35 2.90  17 2.92  18 2.92  11 2.92  29 2.92  30 2.92  26 2.93  25 2.93
                            24 2.93  22 2.93  20 2.93  21 2.93
  28  0.000  0.000  0.510-  26 2.91  25 2.91  19 2.91  29 2.95  34 2.95  33 2.95  32 2.95  31 2.95
                            30 2.95
  29  0.333  0.005  0.510-  31 2.88  30 2.89  36 2.89  20 2.91  27 2.92  26 2.93  28 2.95  35 2.95
                            34 3.02
  30  0.662  0.005  0.510-  32 2.88  29 2.89  36 2.89  21 2.91  27 2.92  25 2.93  28 2.95  35 2.95
                            33 3.02
  31  0.005  0.333  0.510-  29 2.88  33 2.89  36 2.89  20 2.91  22 2.92  19 2.93  28 2.95  35 2.95
                            32 3.02
  32  0.662  0.333  0.510-  30 2.88  34 2.89  36 2.89  21 2.91  24 2.92  19 2.93  28 2.95  35 2.95
                            31 3.02
  33  0.005  0.662  0.510-  34 2.88  31 2.89  36 2.89  23 2.91  22 2.92  25 2.93  28 2.95  35 2.95
                            30 3.02
  34  0.333  0.662  0.510-  33 2.88  32 2.89  36 2.89  23 2.91  24 2.92  26 2.93  28 2.95  35 2.95
                            29 3.02
  35  0.667  0.667  0.510-  24 2.90  27 2.90  22 2.90  30 2.95  32 2.95  29 2.95  34 2.95  31 2.95
                            33 2.95
  36  0.333  0.333  0.502-  37 1.69  21 2.78  20 2.78  23 2.78  31 2.89  30 2.89  33 2.89  29 2.89
                            34 2.89  32 2.89
  37  0.333  0.333  0.571-  36 1.69
 
  LATTYP: Found a hexagonal cell.
 ALAT       =     8.7913665772
 C/A-ratio  =     2.7711238095
  
  Lattice vectors:
  
 A1 = (  -4.3956832886,  -7.6135467898,   0.0000000000)
 A2 = (   8.7913665771,   0.0000000000,   0.0000000000)
 A3 = (   0.0000000000,   0.0000000000,  24.3619652401)


Analysis of symmetry for initial positions (statically):
=====================================================================
 Subroutine PRICEL returns:
 Original cell was already a primitive cell.
 

 Routine SETGRP: Setting up the symmetry group for a 
 hexagonal supercell.


 Subroutine GETGRP returns: Found  6 space group operations
 (whereof  6 operations were pure point group operations)
 out of a pool of 24 trial point group operations.


The static configuration has the point symmetry C_3v.


Analysis of symmetry for dynamics (positions and initial velocities):
=====================================================================
 Subroutine PRICEL returns:
 Original cell was already a primitive cell.
 

 Routine SETGRP: Setting up the symmetry group for a 
 hexagonal supercell.


 Subroutine GETGRP returns: Found  6 space group operations
 (whereof  6 operations were pure point group operations)
 out of a pool of 24 trial point group operations.


The dynamic configuration has the point symmetry C_3v.


Analysis of constrained symmetry for selective dynamics:
=====================================================================
 Subroutine PRICEL returns:
 Original cell was already a primitive cell.
 

 Routine SETGRP: Setting up the symmetry group for a 
 hexagonal supercell.


 Subroutine GETGRP returns: Found  6 space group operations
 (whereof  6 operations were pure point group operations)
 out of a pool of 24 trial point group operations.


The constrained configuration has the point symmetry C_3v.


 Subroutine INISYM returns: Found  6 space group operations
 (whereof  6 operations are pure point group operations),
 and found     1 'primitive' translations


----------------------------------------------------------------------------------------

                                     Primitive cell                                     

  volume of cell :    1630.6311

  direct lattice vectors                    reciprocal lattice vectors
     8.791366577  0.000000000  0.000000000     0.113747958 -0.065672414  0.000000000
     4.395683289  7.613546790  0.000000000     0.000000000  0.131344829  0.000000000
     0.000000000  0.000000000 24.361965240     0.000000000  0.000000000  0.041047592

  length of vectors
     8.791366577  8.791366577 24.361965240     0.131344829  0.131344829  0.041047592

  position of ions in fractional coordinates (direct lattice)
     0.000000000  0.000000000  0.216821102
     0.333333313  0.000000000  0.216821102
     0.666666627  0.000000000  0.216821102
     1.000000000  0.333333343  0.216821102
     0.333333313  0.333333343  0.216821102
     0.666666687  0.333333343  0.216821102
     1.000000000  0.666666687  0.216821102
     0.333333313  0.666666687  0.216821102
     0.666666627  0.666666687  0.216821102
     0.111111104  0.111111112  0.315035970
     0.444444448  0.111111112  0.315035970
     0.777777791  0.111111112  0.315035970
     0.111111097  0.444444448  0.315035970
     0.444444418  0.444444448  0.315035970
     0.777777791  0.444444448  0.315035970
     0.111111104  0.777777791  0.315035970
     0.444444448  0.777777791  0.315035970
     0.777777791  0.777777791  0.315035970
     0.888609664  0.222780689  0.412959252
     0.222430726  0.222430741  0.411805986
     0.555138488  0.222430741  0.411805986
     0.888744334  0.555627863  0.412611896
     0.222430741  0.555138548  0.411805986
     0.555627863  0.555627863  0.412611896
     0.888609664  0.888609664  0.412959252
     0.222780659  0.888609664  0.412959252
     0.555627803  0.888744334  0.412611896
     0.000000000  0.000000000  0.509889265
     0.333144422  0.005093285  0.510161036
     0.661762233  0.005093285  0.510161036
     0.005093285  0.333144452  0.510161036
     0.661762293  0.333144452  0.510161036
     0.005093285  0.661762293  0.510161036
     0.333144422  0.661762293  0.510161036
     0.666666627  0.666666687  0.509529037
     0.333333313  0.333333343  0.502293289
     0.333333313  0.333333343  0.571492963

  ion indices of the primitive-cell ions
   primitive index   ion index
                 1           1
                 2           2
                 3           3
                 4           4
                 5           5
                 6           6
                 7           7
                 8           8
                 9           9
                10          10
                11          11
                12          12
                13          13
                14          14
                15          15
                16          16
                17          17
                18          18
                19          19
                20          20
                21          21
                22          22
                23          23
                24          24
                25          25
                26          26
                27          27
                28          28
                29          29
                30          30
                31          31
                32          32
                33          33
                34          34
                35          35
                36          36
                37          37

----------------------------------------------------------------------------------------

 
 
 KPOINTS: Automatic mesh                          

Automatic generation of k-mesh.
 Grid dimensions read from file:
 generate k-points for:    8    8    1

 Generating k-lattice:

  Cartesian coordinates                     Fractional coordinates (reciprocal lattice)
     0.014218495 -0.008209052  0.000000000     0.125000000 -0.000000000  0.000000000
     0.000000000  0.016418104  0.000000000     0.000000000  0.125000000  0.000000000
     0.000000000  0.000000000  0.041047592     0.000000000  0.000000000  1.000000000

  Length of vectors
     0.016418104  0.016418104  0.041047592

  Shift w.r.t. Gamma in fractional coordinates (k-lattice)
     0.000000000  0.000000000  0.000000000

 TETIRR: Found     36 inequivalent tetrahedra from      384
 
 Subroutine IBZKPT returns following result:
 ===========================================
 
 Found     10 irreducible k-points:
 
 Following reciprocal coordinates:
            Coordinates               Weight
  0.000000  0.000000  0.000000      1.000000
  0.125000  0.000000  0.000000      6.000000
  0.250000  0.000000  0.000000      6.000000
  0.375000 -0.000000  0.000000      6.000000
  0.500000  0.000000  0.000000      3.000000
  0.250000  0.125000  0.000000      6.000000
  0.375000  0.125000  0.000000     12.000000
  0.500000  0.125000  0.000000     12.000000
  0.500000  0.250000  0.000000      6.000000
 -0.375000  0.250000  0.000000      6.000000
 
 Following cartesian coordinates:
            Coordinates               Weight
  0.000000  0.000000  0.000000      1.000000
  0.014218 -0.008209  0.000000      6.000000
  0.028437 -0.016418  0.000000      6.000000
  0.042655 -0.024627  0.000000      6.000000
  0.056874 -0.032836  0.000000      3.000000
  0.028437 -0.000000  0.000000      6.000000
  0.042655 -0.008209  0.000000     12.000000
  0.056874 -0.016418  0.000000     12.000000
  0.056874 -0.000000  0.000000      6.000000
 -0.042655  0.057463  0.000000      6.000000
 


--------------------------------------------------------------------------------------------------------




 Dimension of arrays:
   k-points           NKPTS =     10   k-points in BZ     NKDIM =     10   number of bands    NBANDS=    252
   number of dos      NEDOS =    301   number of ions     NIONS =     37
   non local maximal  LDIM  =      6   non local SUM 2l+1 LMDIM =     18
   total plane-waves  NPLWV = 322560
   max r-space proj   IRMAX =   2705   max aug-charges    IRDMAX=  11441
   dimension x,y,z NGX =    48 NGY =   48 NGZ =  140
   dimension x,y,z NGXF=    96 NGYF=   96 NGZF=  280
   support grid    NGXF=    96 NGYF=   96 NGZF=  280
   ions per type =              35   1   1
   NGX,Y,Z   is equivalent  to a cutoff of   9.08,  9.08,  9.55 a.u.
   NGXF,Y,Z  is equivalent  to a cutoff of  18.15, 18.15, 19.11 a.u.

 SYSTEM =  unknown system                          
 POSCAR =  Ag-Rh-C                                 

 Startparameter for this run:
   NWRITE =      2    write-flag & timer
   PREC   = normal    normal or accurate (medium, high low for compatibility)
   ISTART =      0    job   : 0-new  1-cont  2-samecut
   ICHARG =     11    charge: 1-file 2-atom 10-const
   ISPIN  =      1    spin polarized calculation?
   LNONCOLLINEAR =      F non collinear calculations
   LSORBIT =      F    spin-orbit coupling
   INIWAV =      1    electr: 0-lowe 1-rand  2-diag
   LASPH  =      F    aspherical Exc in radial PAW
   METAGGA=      F    non-selfconsistent MetaGGA calc.

 Electronic Relaxation 1
   ENCUT  =  500.0 eV  36.75 Ry    6.06 a.u.  16.03 16.03 44.42*2*pi/ulx,y,z
   ENINI  =  500.0     initial cutoff
   ENAUG  =  644.9 eV  augmentation charge cutoff
   NELM   =    150;   NELMIN=  2; NELMDL= -5     # of ELM steps 
   EDIFF  = 0.1E-04   stopping-criterion for ELM
   LREAL  =      T    real-space projection
   NLSPLINE    = F    spline interpolate recip. space projectors
   LCOMPAT=      F    compatible to vasp.4.4
   GGA_COMPAT  = T    GGA compatible to vasp.4.4-vasp.4.6
   LMAXPAW     = -100 max onsite density
   LMAXMIX     =    2 max onsite mixed and CHGCAR
   VOSKOWN=      0    Vosko Wilk Nusair interpolation
   ROPT   =   -0.00050  -0.00050  -0.00050
 Ionic relaxation
   EDIFFG = -.1E-01   stopping-criterion for IOM
   NSW    =      0    number of steps for IOM
   NBLOCK =      1;   KBLOCK =      1    inner block; outer block 
   IBRION =     -1    ionic relax: 0-MD 1-quasi-New 2-CG
   NFREE  =      1    steps in history (QN), initial steepest desc. (CG)
   ISIF   =      2    stress and relaxation
   IWAVPR =     10    prediction:  0-non 1-charg 2-wave 3-comb
   ISYM   =      2    0-nonsym 1-usesym 2-fastsym
   LCORR  =      T    Harris-Foulkes like correction to forces

   POTIM  = 0.5000    time-step for ionic-motion
   TEIN   =    0.0    initial temperature
   TEBEG  =    0.0;   TEEND  =   0.0 temperature during run
   SMASS  =  -3.00    Nose mass-parameter (am)
   estimated Nose-frequenzy (Omega)   =  0.10E-29 period in steps = 0.13E+47 mass=  -0.177E-26a.u.
   SCALEE = 1.0000    scale energy and forces
   NPACO  =    256;   APACO  = 16.0  distance and # of slots for P.C.
   PSTRESS=    0.0 pullay stress

  Mass of Ions in am
   POMASS = 107.87102.91 12.01
  Ionic Valenz
   ZVAL   =  11.00  9.00  4.00
  Atomic Wigner-Seitz radii
   RWIGS  =  -1.00 -1.00 -1.00
  virtual crystal weights 
   VCA    =   1.00  1.00  1.00
   NELECT =     398.0000    total number of electrons
   NUPDOWN=      -1.0000    fix difference up-down

 DOS related values:
   EMIN   =  10.00;   EMAX   =-10.00  energy-range for DOS
   EFERMI =   0.00
   ISMEAR =    -5;   SIGMA  =   0.10  broadening in eV -4-tet -1-fermi 0-gaus

 Electronic relaxation 2 (details)
   IALGO  =     68    algorithm
   LDIAG  =      T    sub-space diagonalisation (order eigenvalues)
   LSUBROT=      F    optimize rotation matrix (better conditioning)
   TURBO    =      0    0=normal 1=particle mesh
   IRESTART =      0    0=no restart 2=restart with 2 vectors
   NREBOOT  =      0    no. of reboots
   NMIN     =      0    reboot dimension
   EREF     =   0.00    reference energy to select bands
   IMIX   =      4    mixing-type and parameters
     AMIX     =   0.40;   BMIX     =  1.00
     AMIX_MAG =   1.60;   BMIX_MAG =  1.00
     AMIN     =   0.10
     WC   =   100.;   INIMIX=   1;  MIXPRE=   1;  MAXMIX= -45

 Intra band minimization:
   WEIMIN = 0.0000     energy-eigenvalue tresh-hold
   EBREAK =  0.99E-08  absolut break condition
   DEPER  =   0.30     relativ break condition  

   TIME   =   0.40     timestep for ELM

  volume/ion in A,a.u.               =      44.07       297.41
  Fermi-wavevector in a.u.,A,eV,Ry     =   1.023098  1.933375 14.241622  1.046730
  Thomas-Fermi vector in A             =   2.156813
 
 Write flags
   LWAVE        =      F    write WAVECAR
   LDOWNSAMPLE  =      F    k-point downsampling of WAVECAR
   LCHARG       =      F    write CHGCAR
   LVTOT        =      F    write LOCPOT, total local potential
   LVHAR        =      F    write LOCPOT, Hartree potential only
   LELF         =      F    write electronic localiz. function (ELF)
   LORBIT       =     10    0 simple, 1 ext, 2 COOP (PROOUT), +10 PAW based schemes


 Dipole corrections
   LMONO  =      F    monopole corrections only (constant potential shift)
   LDIPOL =      F    correct potential (dipole corrections)
   IDIPOL =      0    1-x, 2-y, 3-z, 4-all directions 
   EPSILON=  1.0000000 bulk dielectric constant

 Exchange correlation treatment:
   GGA     =    --    GGA type
   LEXCH   =     8    internal setting for exchange type
   VOSKOWN=      0    Vosko Wilk Nusair interpolation
   LHFCALC =     F    Hartree Fock is set to
   LHFONE  =     F    Hartree Fock one center treatment
   AEXX    =    0.0000 exact exchange contribution

 Linear response parameters
   LEPSILON=     F    determine dielectric tensor
   LRPA    =     F    only Hartree local field effects (RPA)
   LNABLA  =     F    use nabla operator in PAW spheres
   LVEL    =     F    velocity operator in full k-point grid
   LINTERFAST=   F  fast interpolation
   KINTER  =     0    interpolate to denser k-point grid
   CSHIFT  =0.1000    complex shift for real part using Kramers Kronig
   OMEGAMAX=  -1.0    maximum frequency
   DEG_THRESHOLD= 0.2000000E-02 threshold for treating states as degnerate
   RTIME   =   -0.100 relaxation time in fs
  (WPLASMAI=    0.000 imaginary part of plasma frequency in eV, 0.658/RTIME)
   DFIELD  = 0.0000000 0.0000000 0.0000000 field for delta impulse in time
 
 Orbital magnetization related:
   ORBITALMAG=     F  switch on orbital magnetization
   LCHIMAG   =     F  perturbation theory with respect to B field
   DQ        =  0.001000  dq finite difference perturbation B field
   LLRAUG    =     F  two centre corrections for induced B field



--------------------------------------------------------------------------------------------------------


 Static calculation
 charge density and potential remain constant during run
 non-spin polarized calculation
 RMM-DIIS sequential band-by-band and
  variant of blocked Davidson during initial phase
 perform sub-space diagonalisation
    before iterative eigenvector-optimisation
 no mixing
 using additional bands           53
 real space projection scheme for non local part
 use partial core corrections
 calculate Harris-corrections to forces 
   (improved forces if not selfconsistent)
 use gradient corrections 
 WARNING: stress and forces are not correct
  (second derivative of E(xc) not defined)
 use of overlap-Matrix (Vanderbilt PP)
 Fermi weights with tetrahedron method with Bloechl corrections


--------------------------------------------------------------------------------------------------------


  energy-cutoff  :      500.00
  volume of cell :     1630.63
      direct lattice vectors                 reciprocal lattice vectors
     8.791366577  0.000000000  0.000000000     0.113747958 -0.065672414  0.000000000
     4.395683289  7.613546790  0.000000000     0.000000000  0.131344829  0.000000000
     0.000000000  0.000000000 24.361965240     0.000000000  0.000000000  0.041047592

  length of vectors
     8.791366577  8.791366577 24.361965240     0.131344829  0.131344829  0.041047592


 
 k-points in units of 2pi/SCALE and weight: Automatic mesh                          
   0.00000000  0.00000000  0.00000000       0.016
   0.01421849 -0.00820905  0.00000000       0.094
   0.02843699 -0.01641810  0.00000000       0.094
   0.04265548 -0.02462716  0.00000000       0.094
   0.05687398 -0.03283621  0.00000000       0.047
   0.02843699 -0.00000000  0.00000000       0.094
   0.04265548 -0.00820905  0.00000000       0.188
   0.05687398 -0.01641810  0.00000000       0.188
   0.05687398 -0.00000000  0.00000000       0.094
  -0.04265548  0.05746336  0.00000000       0.094
 
 k-points in reciprocal lattice and weights: Automatic mesh                          
   0.00000000  0.00000000  0.00000000       0.016
   0.12500000  0.00000000  0.00000000       0.094
   0.25000000  0.00000000  0.00000000       0.094
   0.37500000 -0.00000000  0.00000000       0.094
   0.50000000  0.00000000  0.00000000       0.047
   0.25000000  0.12500000  0.00000000       0.094
   0.37500000  0.12500000  0.00000000       0.188
   0.50000000  0.12500000  0.00000000       0.188
   0.50000000  0.25000000  0.00000000       0.094
  -0.37500000  0.25000000  0.00000000       0.094
 
 position of ions in fractional coordinates (direct lattice) 
   0.00000000  0.00000000  0.21682110
   0.33333331  0.00000000  0.21682110
   0.66666663  0.00000000  0.21682110
   0.00000000  0.33333334  0.21682110
   0.33333331  0.33333334  0.21682110
   0.66666669  0.33333334  0.21682110
   0.00000000  0.66666669  0.21682110
   0.33333331  0.66666669  0.21682110
   0.66666663  0.66666669  0.21682110
   0.11111110  0.11111111  0.31503597
   0.44444445  0.11111111  0.31503597
   0.77777779  0.11111111  0.31503597
   0.11111110  0.44444445  0.31503597
   0.44444442  0.44444445  0.31503597
   0.77777779  0.44444445  0.31503597
   0.11111110  0.77777779  0.31503597
   0.44444445  0.77777779  0.31503597
   0.77777779  0.77777779  0.31503597
   0.88860966  0.22278069  0.41295925
   0.22243073  0.22243074  0.41180599
   0.55513849  0.22243074  0.41180599
   0.88874433  0.55562786  0.41261190
   0.22243074  0.55513855  0.41180599
   0.55562786  0.55562786  0.41261190
   0.88860966  0.88860966  0.41295925
   0.22278066  0.88860966  0.41295925
   0.55562780  0.88874433  0.41261190
   0.00000000  0.00000000  0.50988926
   0.33314442  0.00509329  0.51016104
   0.66176223  0.00509329  0.51016104
   0.00509329  0.33314445  0.51016104
   0.66176229  0.33314445  0.51016104
   0.00509329  0.66176229  0.51016104
   0.33314442  0.66176229  0.51016104
   0.66666663  0.66666669  0.50952904
   0.33333331  0.33333334  0.50229329
   0.33333331  0.33333334  0.57149296
 
 position of ions in cartesian coordinates  (Angst):
   0.00000000  0.00000000  5.28218814
   2.93045535  0.00000000  5.28218814
   5.86091070  0.00000000  5.28218814
   1.46522781  2.53784900  5.28218814
   4.39568315  2.53784900  5.28218814
   7.32613904  2.53784900  5.28218814
   2.93045562  5.07569801  5.28218814
   5.86091096  5.07569801  5.28218814
   8.79136632  5.07569801  5.28218814
   1.46522770  0.84594965  7.67489535
   4.39568332  0.84594965  7.67489535
   7.32613893  0.84594965  7.67489535
   2.93045542  3.38379860  7.67489535
   5.86091083  3.38379860  7.67489535
   8.79136671  3.38379860  7.67489535
   4.39568328  5.92164760  7.67489535
   7.32613890  5.92164760  7.67489535
  10.25659451  5.92164760  7.67489535
   8.79136665  1.69615120 10.06049895
   2.93320514  1.69348685 10.03240313
   5.85816104  1.69348685 10.03240313
  10.25564135  4.23029873 10.05203667
   4.39568342  4.22657331 10.03240313
   7.32709233  4.23029873 10.05203667
  11.71813994  6.76547125 10.06049895
   5.86459309  6.76547125 10.06049895
   8.79136631  6.76649657 10.05203667
   0.00000000  0.00000000 12.42190454
   2.95118320  0.03877797 12.42852542
   5.84018285  0.03877797 12.42852542
   1.50917444  2.53641087 12.42852542
   7.28219240  2.53641087 12.42852542
   2.95367439  5.03835818 12.42852542
   5.83769219  5.03835818 12.42852542
   8.79136632  5.07569801 12.41312868
   4.39568315  2.53784900 12.23685164
   4.39568315  2.53784900 13.92269171
 


--------------------------------------------------------------------------------------------------------


 k-point   1 :   0.0000 0.0000 0.0000  plane waves:   41267
 k-point   2 :   0.1250 0.0000 0.0000  plane waves:   41346
 k-point   3 :   0.2500 0.0000 0.0000  plane waves:   41360
 k-point   4 :   0.3750-0.0000 0.0000  plane waves:   41412
 k-point   5 :   0.5000 0.0000 0.0000  plane waves:   41412
 k-point   6 :   0.2500 0.1250 0.0000  plane waves:   41336
 k-point   7 :   0.3750 0.1250 0.0000  plane waves:   41420
 k-point   8 :   0.5000 0.1250 0.0000  plane waves:   41406
 k-point   9 :   0.5000 0.2500 0.0000  plane waves:   41444
 k-point  10 :  -0.3750 0.2500 0.0000  plane waves:   41438

 maximum and minimum number of plane-waves per node :     41444    41267

 maximum number of plane-waves:     41444
 maximum index in each direction: 
   IXMAX=   16   IYMAX=   16   IZMAX=   44
   IXMIN=  -16   IYMIN=  -16   IZMIN=  -44


 serial   3D FFT for wavefunctions
 parallel 3D FFT for charge:
    minimum data exchange during FFTs selected (reduces bandwidth)


 total amount of memory used by VASP MPI-rank0   131173. kBytes
=======================================================================

   base      :      30000. kBytes
   nonlr-proj:      15252. kBytes
   fftplans  :       4808. kBytes
   grid      :      19857. kBytes
   one-center:        575. kBytes
   wavefun   :      60681. kBytes
 
     INWAV:  cpu time    0.0000: real time    0.0001
 initial charge density was supplied:
 number of electron     398.0000014 magnetization 
 keeping initial charge density in first step


--------------------------------------------------------------------------------------------------------


 Maximum index for non-local projection operator         2579
 Maximum index for augmentation-charges          717 (set IRDMAX)


--------------------------------------------------------------------------------------------------------


 First call to EWALD:  gamma=   0.151
 Maximum number of real-space cells 4x 4x 2
 Maximum number of reciprocal cells 2x 2x 5

    FEWALD:  cpu time    0.0013: real time    0.0013


--------------------------------------- Iteration      1(   1)  ---------------------------------------


    POTLOK:  cpu time    0.0573: real time    0.0576
    SETDIJ:  cpu time    0.0047: real time    0.0047
     EDDAV:  cpu time    7.7849: real time    7.7864
 BZINTS: Fermi energy:    8.874430;  398.000000 electrons
         Band energy: 0.102740E+04;  BLOECHL correction:   -0.014970
       DOS:  cpu time    0.0110: real time    0.0110
    --------------------------------------------
      LOOP:  cpu time    7.8578: real time    7.8597

 eigenvalue-minimisations  :  5040
 total energy-change (2. order) : 0.2403883E+04  (-0.1809928E+05)
 number of electron     398.0000014 magnetization 
 augmentation part      398.0000014 magnetization 

 Free energy of the ion-electron system (eV)
  ---------------------------------------------------
  alpha Z        PSCENC =       680.62106843
  Ewald energy   TEWEN  =    131494.98540711
  -Hartree energ DENC   =   -169047.91136444
  -exchange      EXHF   =         0.00000000
  -V(xc)+E(xc)   XCENC  =      -394.01713321
  PAW double counting   =     39387.76896652   -37812.70953879
  entropy T*S    EENTRO =         0.00000000
  eigenvalues    EBANDS =      1027.39927662
  atomic energy  EATOM  =     37067.74607786
  Solvation  Ediel_sol  =         0.00000000
  ---------------------------------------------------
  free energy    TOTEN  =      2403.88276009 eV

  energy without entropy =     2403.88276009  energy(sigma->0) =     2403.88276009


--------------------------------------------------------------------------------------------------------




--------------------------------------- Iteration      1(   2)  ---------------------------------------


     EDDAV:  cpu time    8.1048: real time    8.1079
 BZINTS: Fermi energy:    0.859261;  398.000000 electrons
         Band energy:-0.139452E+04;  BLOECHL correction:   -0.066339
       DOS:  cpu time    0.0097: real time    0.0097
    --------------------------------------------
      LOOP:  cpu time    8.1145: real time    8.1176

 eigenvalue-minimisations  :  5320
 total energy-change (2. order) :-0.2421924E+04  (-0.2300230E+04)
 number of electron     398.0000014 magnetization 
 augmentation part      398.0000014 magnetization 

 Free energy of the ion-electron system (eV)
  ---------------------------------------------------
  alpha Z        PSCENC =       680.62106843
  Ewald energy   TEWEN  =    131494.98540711
  -Hartree energ DENC   =   -169047.91136444
  -exchange      EXHF   =         0.00000000
  -V(xc)+E(xc)   XCENC  =      -394.01713321
  PAW double counting   =     39387.76896652   -37812.70953879
  entropy T*S    EENTRO =         0.00000000
  eigenvalues    EBANDS =     -1394.52471818
  atomic energy  EATOM  =     37067.74607786
  Solvation  Ediel_sol  =         0.00000000
  ---------------------------------------------------
  free energy    TOTEN  =       -18.04123470 eV

  energy without entropy =      -18.04123470  energy(sigma->0) =      -18.04123470


--------------------------------------------------------------------------------------------------------




--------------------------------------- Iteration      1(   3)  ---------------------------------------


     EDDAV:  cpu time    8.8135: real time    8.8139
 BZINTS: Fermi energy:    0.385969;  398.000000 electrons
         Band energy:-0.147741E+04;  BLOECHL correction:   -0.100006
       DOS:  cpu time    0.0101: real time    0.0101
    --------------------------------------------
      LOOP:  cpu time    8.8236: real time    8.8240

 eigenvalue-minimisations  :  5880
 total energy-change (2. order) :-0.8288684E+02  (-0.8111188E+02)
 number of electron     398.0000014 magnetization 
 augmentation part      398.0000014 magnetization 

 Free energy of the ion-electron system (eV)
  ---------------------------------------------------
  alpha Z        PSCENC =       680.62106843
  Ewald energy   TEWEN  =    131494.98540711
  -Hartree energ DENC   =   -169047.91136444
  -exchange      EXHF   =         0.00000000
  -V(xc)+E(xc)   XCENC  =      -394.01713321
  PAW double counting   =     39387.76896652   -37812.70953879
  entropy T*S    EENTRO =         0.00000000
  eigenvalues    EBANDS =     -1477.41156205
  atomic energy  EATOM  =     37067.74607786
  Solvation  Ediel_sol  =         0.00000000
  ---------------------------------------------------
  free energy    TOTEN  =      -100.92807858 eV

  energy without entropy =     -100.92807858  energy(sigma->0) =     -100.92807858


--------------------------------------------------------------------------------------------------------




--------------------------------------- Iteration      1(   4)  ---------------------------------------


     EDDAV:  cpu time    8.2396: real time    8.2399
 BZINTS: Fermi energy:    0.377104;  398.000000 electrons
         Band energy:-0.147868E+04;  BLOECHL correction:   -0.099472
       DOS:  cpu time    0.0083: real time    0.0083
    --------------------------------------------
      LOOP:  cpu time    8.2479: real time    8.2482

 eigenvalue-minimisations  :  5432
 total energy-change (2. order) :-0.1273337E+01  (-0.1271000E+01)
 number of electron     398.0000014 magnetization 
 augmentation part      398.0000014 magnetization 

 Free energy of the ion-electron system (eV)
  ---------------------------------------------------
  alpha Z        PSCENC =       680.62106843
  Ewald energy   TEWEN  =    131494.98540711
  -Hartree energ DENC   =   -169047.91136444
  -exchange      EXHF   =         0.00000000
  -V(xc)+E(xc)   XCENC  =      -394.01713321
  PAW double counting   =     39387.76896652   -37812.70953879
  entropy T*S    EENTRO =         0.00000000
  eigenvalues    EBANDS =     -1478.68489859
  atomic energy  EATOM  =     37067.74607786
  Solvation  Ediel_sol  =         0.00000000
  ---------------------------------------------------
  free energy    TOTEN  =      -102.20141512 eV

  energy without entropy =     -102.20141512  energy(sigma->0) =     -102.20141512


--------------------------------------------------------------------------------------------------------




--------------------------------------- Iteration      1(   5)  ---------------------------------------


     EDDAV:  cpu time    9.4709: real time    9.4710
 BZINTS: Fermi energy:    0.376954;  398.000000 electrons
         Band energy:-0.147872E+04;  BLOECHL correction:   -0.099464
       DOS:  cpu time    0.0100: real time    0.0100
    --------------------------------------------
      LOOP:  cpu time    9.4810: real time    9.4811

 eigenvalue-minimisations  :  6412
 total energy-change (2. order) :-0.3888382E-01  (-0.3888417E-01)
 number of electron     398.0000014 magnetization 
 augmentation part      398.0000014 magnetization 

 Free energy of the ion-electron system (eV)
  ---------------------------------------------------
  alpha Z        PSCENC =       680.62106843
  Ewald energy   TEWEN  =    131494.98540711
  -Hartree energ DENC   =   -169047.91136444
  -exchange      EXHF   =         0.00000000
  -V(xc)+E(xc)   XCENC  =      -394.01713321
  PAW double counting   =     39387.76896652   -37812.70953879
  entropy T*S    EENTRO =         0.00000000
  eigenvalues    EBANDS =     -1478.72378241
  atomic energy  EATOM  =     37067.74607786
  Solvation  Ediel_sol  =         0.00000000
  ---------------------------------------------------
  free energy    TOTEN  =      -102.24029894 eV

  energy without entropy =     -102.24029894  energy(sigma->0) =     -102.24029894


--------------------------------------------------------------------------------------------------------




--------------------------------------- Iteration      1(   6)  ---------------------------------------


    EDDIAG:  cpu time    1.5278: real time    1.5283
  RMM-DIIS:  cpu time    4.3744: real time    4.3745
    ORTHCH:  cpu time    0.2788: real time    0.2788
 BZINTS: Fermi energy:    0.376951;  398.000000 electrons
         Band energy:-0.147872E+04;  BLOECHL correction:   -0.099464
       DOS:  cpu time    0.0100: real time    0.0100
    --------------------------------------------
      LOOP:  cpu time    6.1911: real time    6.1916

 eigenvalue-minimisations  :  5067
 total energy-change (2. order) :-0.7654903E-03  (-0.7654779E-03)
 number of electron     398.0000014 magnetization 
 augmentation part      398.0000014 magnetization 

 Free energy of the ion-electron system (eV)
  ---------------------------------------------------
  alpha Z        PSCENC =       680.62106843
  Ewald energy   TEWEN  =    131494.98540711
  -Hartree energ DENC   =   -169047.91136444
  -exchange      EXHF   =         0.00000000
  -V(xc)+E(xc)   XCENC  =      -394.01713321
  PAW double counting   =     39387.76896652   -37812.70953879
  entropy T*S    EENTRO =         0.00000000
  eigenvalues    EBANDS =     -1478.72454790
  atomic energy  EATOM  =     37067.74607786
  Solvation  Ediel_sol  =         0.00000000
  ---------------------------------------------------
  free energy    TOTEN  =      -102.24106443 eV

  energy without entropy =     -102.24106443  energy(sigma->0) =     -102.24106443


--------------------------------------------------------------------------------------------------------




--------------------------------------- Iteration      1(   7)  ---------------------------------------


    EDDIAG:  cpu time    1.5298: real time    1.5300
  RMM-DIIS:  cpu time    6.1644: real time    6.1645
    ORTHCH:  cpu time    0.2788: real time    0.2788
 BZINTS: Fermi energy:    0.376950;  398.000000 electrons
         Band energy:-0.147872E+04;  BLOECHL correction:   -0.099464
       DOS:  cpu time    0.0092: real time    0.0092
    --------------------------------------------
      LOOP:  cpu time    7.9822: real time    7.9825

 eigenvalue-minimisations  :  7081
 total energy-change (2. order) :-0.3082733E-03  (-0.3071361E-03)
 number of electron     398.0000014 magnetization 
 augmentation part      398.0000014 magnetization 

 Free energy of the ion-electron system (eV)
  ---------------------------------------------------
  alpha Z        PSCENC =       680.62106843
  Ewald energy   TEWEN  =    131494.98540711
  -Hartree energ DENC   =   -169047.91136444
  -exchange      EXHF   =         0.00000000
  -V(xc)+E(xc)   XCENC  =      -394.01713321
  PAW double counting   =     39387.76896652   -37812.70953879
  entropy T*S    EENTRO =         0.00000000
  eigenvalues    EBANDS =     -1478.72485618
  atomic energy  EATOM  =     37067.74607786
  Solvation  Ediel_sol  =         0.00000000
  ---------------------------------------------------
  free energy    TOTEN  =      -102.24137270 eV

  energy without entropy =     -102.24137270  energy(sigma->0) =     -102.24137270


--------------------------------------------------------------------------------------------------------




--------------------------------------- Iteration      1(   8)  ---------------------------------------


    EDDIAG:  cpu time    1.5289: real time    1.5289
  RMM-DIIS:  cpu time    4.6196: real time    4.6197
    ORTHCH:  cpu time    0.2787: real time    0.2787
 BZINTS: Fermi energy:    0.376950;  398.000000 electrons
         Band energy:-0.147872E+04;  BLOECHL correction:   -0.099464
       DOS:  cpu time    0.0100: real time    0.0100
    --------------------------------------------
      LOOP:  cpu time    6.4372: real time    6.4373

 eigenvalue-minimisations  :  5008
 total energy-change (2. order) :-0.1945856E-04  (-0.1902706E-04)
 number of electron     398.0000014 magnetization 
 augmentation part      398.0000014 magnetization 

 Free energy of the ion-electron system (eV)
  ---------------------------------------------------
  alpha Z        PSCENC =       680.62106843
  Ewald energy   TEWEN  =    131494.98540711
  -Hartree energ DENC   =   -169047.91136444
  -exchange      EXHF   =         0.00000000
  -V(xc)+E(xc)   XCENC  =      -394.01713321
  PAW double counting   =     39387.76896652   -37812.70953879
  entropy T*S    EENTRO =         0.00000000
  eigenvalues    EBANDS =     -1478.72487564
  atomic energy  EATOM  =     37067.74607786
  Solvation  Ediel_sol  =         0.00000000
  ---------------------------------------------------
  free energy    TOTEN  =      -102.24139216 eV

  energy without entropy =     -102.24139216  energy(sigma->0) =     -102.24139216


--------------------------------------------------------------------------------------------------------




--------------------------------------- Iteration      1(   9)  ---------------------------------------


    EDDIAG:  cpu time    1.5292: real time    1.5294
  RMM-DIIS:  cpu time    3.6525: real time    3.6526
    ORTHCH:  cpu time    0.2788: real time    0.2788
 BZINTS: Fermi energy:    0.376950;  398.000000 electrons
         Band energy:-0.147872E+04;  BLOECHL correction:   -0.099464
       DOS:  cpu time    0.0098: real time    0.0098
    --------------------------------------------
      LOOP:  cpu time    5.4703: real time    5.4705

 eigenvalue-minimisations  :  3556
 total energy-change (2. order) :-0.4153670E-05  (-0.4134464E-05)
 number of electron     398.0000014 magnetization 
 augmentation part      398.0000014 magnetization 

 Free energy of the ion-electron system (eV)
  ---------------------------------------------------
  alpha Z        PSCENC =       680.62106843
  Ewald energy   TEWEN  =    131494.98540711
  -Hartree energ DENC   =   -169047.91136444
  -exchange      EXHF   =         0.00000000
  -V(xc)+E(xc)   XCENC  =      -394.01713321
  PAW double counting   =     39387.76896652   -37812.70953879
  entropy T*S    EENTRO =         0.00000000
  eigenvalues    EBANDS =     -1478.72487979
  atomic energy  EATOM  =     37067.74607786
  Solvation  Ediel_sol  =         0.00000000
  ---------------------------------------------------
  free energy    TOTEN  =      -102.24139632 eV

  energy without entropy =     -102.24139632  energy(sigma->0) =     -102.24139632


--------------------------------------------------------------------------------------------------------




 average (electrostatic) potential at core
  the test charge radii are     1.1249  1.1806  0.6991
  (the norm of the test charge is              1.0000)
       1 -78.5046       2 -78.4933       3 -78.4932       4 -78.4933       5 -78.4900
       6 -78.4930       7 -78.4932       8 -78.4930       9 -78.5034      10 -78.7294
      11 -78.7368      12 -78.7291      13 -78.7368      14 -78.7365      15 -78.7231
      16 -78.7291      17 -78.7232      18 -78.7231      19 -78.7183      20 -78.8138
      21 -78.8136      22 -78.7385      23 -78.8136      24 -78.7384      25 -78.7181
      26 -78.7184      27 -78.7386      28 -78.4681      29 -78.4488      30 -78.4486
      31 -78.4487      32 -78.4485      33 -78.4486      34 -78.4485      35 -78.4519
      36 -73.4080      37 -55.7167
 
 
 
 E-fermi :   0.3769     XC(G=0):  -5.4235     alpha+bet : -5.1452

 Fermi energy:         0.3769499247

 k-point     1 :       0.0000    0.0000    0.0000
  band No.  band energies     occupation 
      1      -9.8950      2.00000
      2      -6.7354      2.00000
      3      -5.8646      2.00000
      4      -5.5993      2.00000
      5      -5.4996      2.00000
      6      -5.4906      2.00000
      7      -5.4906      2.00000
      8      -5.4651      2.00000
      9      -5.4651      2.00000
     10      -5.4613      2.00000
     11      -5.4384      2.00000
     12      -5.4329      2.00000
     13      -5.4231      2.00000
     14      -5.4231      2.00000
     15      -5.4171      2.00000
     16      -5.4170      2.00000
     17      -5.4072      2.00000
     18      -5.2855      2.00000
     19      -5.2855      2.00000
     20      -5.2738      2.00000
     21      -5.2514      2.00000
     22      -5.2465      2.00000
     23      -5.2464      2.00000
     24      -5.0620      2.00000
     25      -5.0562      2.00000
     26      -5.0562      2.00000
     27      -5.0537      2.00000
     28      -5.0398      2.00000
     29      -5.0390      2.00000
     30      -5.0346      2.00000
     31      -5.0345      2.00000
     32      -5.0253      2.00000
     33      -5.0253      2.00000
     34      -5.0044      2.00000
     35      -5.0044      2.00000
     36      -4.8964      2.00000
     37      -4.8915      2.00000
     38      -4.8915      2.00000
     39      -4.8805      2.00000
     40      -4.8139      2.00000
     41      -4.8139      2.00000
     42      -4.7270      2.00000
     43      -4.7270      2.00000
     44      -4.6832      2.00000
     45      -4.6757      2.00000
     46      -4.6756      2.00000
     47      -4.6596      2.00000
     48      -4.6596      2.00000
     49      -4.6511      2.00000
     50      -4.6507      2.00000
     51      -4.6507      2.00000
     52      -4.5386      2.00000
     53      -4.5154      2.00000
     54      -4.4945      2.00000
     55      -4.4875      2.00000
     56      -4.3138      2.00000
     57      -4.3138      2.00000
     58      -4.2760      2.00000
     59      -4.2714      2.00000
     60      -4.2703      2.00000
     61      -4.2703      2.00000
     62      -4.2602      2.00000
     63      -4.2528      2.00000
     64      -4.2528      2.00000
     65      -4.2164      2.00000
     66      -4.2164      2.00000
     67      -4.1649      2.00000
     68      -4.1649      2.00000
     69      -4.1060      2.00000
     70      -4.1045      2.00000
     71      -4.1045      2.00000
     72      -4.0954      2.00000
     73      -4.0953      2.00000
     74      -4.0881      2.00000
     75      -4.0791      2.00000
     76      -4.0791      2.00000
     77      -4.0627      2.00000
     78      -4.0627      2.00000
     79      -4.0592      2.00000
     80      -4.0335      2.00000
     81      -4.0308      2.00000
     82      -4.0307      2.00000
     83      -4.0193      2.00000
     84      -3.9737      2.00000
     85      -3.9737      2.00000
     86      -3.9474      2.00000
     87      -3.9474      2.00000
     88      -3.8927      2.00000
     89      -3.8814      2.00000
     90      -3.8814      2.00000
     91      -3.8669      2.00000
     92      -3.8519      2.00000
     93      -3.8519      2.00000
     94      -3.8324      2.00000
     95      -3.8324      2.00000
     96      -3.7985      2.00000
     97      -3.7985      2.00000
     98      -3.7720      2.00000
     99      -3.7720      2.00000
    100      -3.5738      2.00000
    101      -3.5738      2.00000
    102      -3.5689      2.00000
    103      -3.5689      2.00000
    104      -3.5625      2.00000
    105      -3.5570      2.00000
    106      -3.5569      2.00000
    107      -3.5432      2.00000
    108      -3.4964      2.00000
    109      -3.4834      2.00000
    110      -3.4834      2.00000
    111      -3.4764      2.00000
    112      -3.4764      2.00000
    113      -3.4377      2.00000
    114      -3.4328      2.00000
    115      -3.4206      2.00000
    116      -3.3052      2.00000
    117      -3.3052      2.00000
    118      -3.2695      2.00000
    119      -3.2695      2.00000
    120      -3.2618      2.00000
    121      -3.2618      2.00000
    122      -3.2206      2.00000
    123      -3.2206      2.00000
    124      -3.2000      2.00000
    125      -3.1938      2.00000
    126      -3.1886      2.00000
    127      -3.1885      2.00000
    128      -3.1719      2.00000
    129      -3.1695      2.00000
    130      -3.1695      2.00000
    131      -3.1643      2.00000
    132      -3.1643      2.00000
    133      -3.1560      2.00000
    134      -3.1289      2.00000
    135      -3.1289      2.00000
    136      -2.9678      2.00000
    137      -2.9671      2.00000
    138      -2.9670      2.00000
    139      -2.9657      2.00000
    140      -2.9558      2.00000
    141      -2.9557      2.00000
    142      -2.9516      2.00000
    143      -2.9516      2.00000
    144      -2.9441      2.00000
    145      -2.9412      2.00000
    146      -2.9342      2.00000
    147      -2.9341      2.00000
    148      -2.8937      2.00000
    149      -2.8746      2.00000
    150      -2.8623      2.00000
    151      -2.8623      2.00000
    152      -2.8585      2.00000
    153      -2.8571      2.00000
    154      -2.8519      2.00000
    155      -2.8519      2.00000
    156      -2.8214      2.00000
    157      -2.8214      2.00000
    158      -2.7841      2.00000
    159      -2.7841      2.00000
    160      -2.7653      2.00000
    161      -2.7583      2.00000
    162      -2.7559      2.00000
    163      -2.7509      2.00000
    164      -2.7509      2.00000
    165      -2.7337      2.00000
    166      -2.7336      2.00000
    167      -2.7282      2.00000
    168      -2.7043      2.00000
    169      -2.6970      2.00000
    170      -2.6956      2.00000
    171      -2.6956      2.00000
    172      -2.6849      2.00000
    173      -2.6849      2.00000
    174      -2.6638      2.00000
    175      -2.6192      2.00000
    176      -2.6192      2.00000
    177      -2.5888      2.00000
    178      -2.5888      2.00000
    179      -2.5612      2.00000
    180      -2.5612      2.00000
    181      -2.5562      2.00000
    182      -2.5408      2.00000
    183      -2.4688      2.00000
    184      -2.4687      2.00000
    185      -2.4533      2.00000
    186      -2.4279      2.00000
    187      -2.4136      2.00000
    188      -2.4136      2.00000
    189      -1.7812      2.00000
    190      -1.7811      2.00000
    191      -1.7126      2.00000
    192      -1.7126      2.00000
    193      -1.6856      2.00000
    194      -1.5601      2.00000
    195      -1.1209      2.00000
    196      -1.1209      2.00000
    197      -0.3735      2.00000
    198      -0.0057      2.00000
    199      -0.0019      2.00000
    200      -0.0018      2.00000
    201       0.0551      2.00000
    202       0.0684      2.88800
    203       0.0685      1.73659
    204       0.9097      0.00000
    205       1.8703      0.00000
    206       1.9009      0.00000
    207       1.9009      0.00000
    208       2.2751      0.00000
    209       2.2975      0.00000
    210       2.2975      0.00000
    211       2.6261      0.00000
    212       2.6262      0.00000
    213       3.6297      0.00000
    214       3.6667      0.00000
    215       3.8339      0.00000
    216       3.8340      0.00000
    217       3.9144      0.00000
    218       3.9144      0.00000
    219       4.0479      0.00000
    220       4.5895      0.00000
    221       4.6182      0.00000
    222       4.6183      0.00000
    223       4.6370      0.00000
    224       4.6487      0.00000
    225       4.6487      0.00000
    226       4.7014      0.00000
    227       4.7014      0.00000
    228       4.8777      0.00000
    229       4.9183      0.00000
    230       4.9586      0.00000
    231       5.0228      0.00000
    232       5.0228      0.00000
    233       5.5811      0.00000
    234       5.7865      0.00000
    235       6.0029      0.00000
    236       6.2460      0.00000
    237       6.2460      0.00000
    238       6.4116      0.00000
    239       6.4412      0.00000
    240       6.4413      0.00000
    241       6.5905      0.00000
    242       6.5905      0.00000
    243       6.6076      0.00000
    244       6.6947      0.00000
    245       6.6948      0.00000
    246       6.7727      0.00000
    247       6.8463      0.00000
    248       6.9133      0.00000
    249       6.9143      0.00000
    250       6.9375      0.00000
    251       6.9689      0.00000
    252       6.9746      0.00000

 k-point     2 :       0.1250    0.0000    0.0000
  band No.  band energies     occupation 
      1      -9.8948      2.00000
      2      -6.6898      2.00000
      3      -5.8249      2.00000
      4      -5.5698      2.00000
      5      -5.5383      2.00000
      6      -5.4971      2.00000
      7      -5.4846      2.00000
      8      -5.4818      2.00000
      9      -5.4653      2.00000
     10      -5.4476      2.00000
     11      -5.4463      2.00000
     12      -5.4285      2.00000
     13      -5.4243      2.00000
     14      -5.3952      2.00000
     15      -5.3699      2.00000
     16      -5.3560      2.00000
     17      -5.3533      2.00000
     18      -5.3359      2.00000
     19      -5.3167      2.00000
     20      -5.3114      2.00000
     21      -5.2006      2.00000
     22      -5.1999      2.00000
     23      -5.1489      2.00000
     24      -5.1334      2.00000
     25      -5.1321      2.00000
     26      -5.1205      2.00000
     27      -5.0679      2.00000
     28      -5.0605      2.00000
     29      -5.0385      2.00000
     30      -5.0285      2.00000
     31      -4.9928      2.00000
     32      -4.9825      2.00000
     33      -4.9705      2.00000
     34      -4.9424      2.00000
     35      -4.9281      2.00000
     36      -4.9214      2.00000
     37      -4.8921      2.00000
     38      -4.8802      2.00000
     39      -4.8146      2.00000
     40      -4.7941      2.00000
     41      -4.7850      2.00000
     42      -4.7627      2.00000
     43      -4.7595      2.00000
     44      -4.7373      2.00000
     45      -4.7230      2.00000
     46      -4.7124      2.00000
     47      -4.6979      2.00000
     48      -4.6884      2.00000
     49      -4.6332      2.00000
     50      -4.6300      2.00000
     51      -4.5918      2.00000
     52      -4.5259      2.00000
     53      -4.5051      2.00000
     54      -4.4754      2.00000
     55      -4.4744      2.00000
     56      -4.3413      2.00000
     57      -4.3315      2.00000
     58      -4.3048      2.00000
     59      -4.2890      2.00000
     60      -4.2718      2.00000
     61      -4.2704      2.00000
     62      -4.2633      2.00000
     63      -4.2548      2.00000
     64      -4.2419      2.00000
     65      -4.2397      2.00000
     66      -4.2037      2.00000
     67      -4.2035      2.00000
     68      -4.1750      2.00000
     69      -4.1490      2.00000
     70      -4.1246      2.00000
     71      -4.1204      2.00000
     72      -4.0949      2.00000
     73      -4.0946      2.00000
     74      -4.0854      2.00000
     75      -4.0822      2.00000
     76      -4.0770      2.00000
     77      -4.0736      2.00000
     78      -4.0618      2.00000
     79      -4.0526      2.00000
     80      -4.0382      2.00000
     81      -4.0376      2.00000
     82      -4.0248      2.00000
     83      -4.0089      2.00000
     84      -4.0023      2.00000
     85      -3.9937      2.00000
     86      -3.9912      2.00000
     87      -3.9600      2.00000
     88      -3.9329      2.00000
     89      -3.9304      2.00000
     90      -3.9150      2.00000
     91      -3.8668      2.00000
     92      -3.8665      2.00000
     93      -3.8432      2.00000
     94      -3.8390      2.00000
     95      -3.8152      2.00000
     96      -3.7865      2.00000
     97      -3.7191      2.00000
     98      -3.6731      2.00000
     99      -3.6726      2.00000
    100      -3.6356      2.00000
    101      -3.6316      2.00000
    102      -3.6066      2.00000
    103      -3.6035      2.00000
    104      -3.5956      2.00000
    105      -3.5806      2.00000
    106      -3.5607      2.00000
    107      -3.5574      2.00000
    108      -3.5471      2.00000
    109      -3.4956      2.00000
    110      -3.4954      2.00000
    111      -3.4658      2.00000
    112      -3.4551      2.00000
    113      -3.4222      2.00000
    114      -3.4208      2.00000
    115      -3.4035      2.00000
    116      -3.3592      2.00000
    117      -3.3556      2.00000
    118      -3.3383      2.00000
    119      -3.3275      2.00000
    120      -3.3082      2.00000
    121      -3.3029      2.00000
    122      -3.2495      2.00000
    123      -3.2488      2.00000
    124      -3.2444      2.00000
    125      -3.2409      2.00000
    126      -3.2328      2.00000
    127      -3.2082      2.00000
    128      -3.1993      2.00000
    129      -3.1874      2.00000
    130      -3.1812      2.00000
    131      -3.1608      2.00000
    132      -3.1571      2.00000
    133      -3.1351      2.00000
    134      -3.1339      2.00000
    135      -3.1043      2.00000
    136      -3.1018      2.00000
    137      -3.0924      2.00000
    138      -3.0619      2.00000
    139      -3.0529      2.00000
    140      -3.0325      2.00000
    141      -3.0302      2.00000
    142      -3.0007      2.00000
    143      -2.9489      2.00000
    144      -2.9417      2.00000
    145      -2.9397      2.00000
    146      -2.9263      2.00000
    147      -2.9080      2.00000
    148      -2.9024      2.00000
    149      -2.8989      2.00000
    150      -2.8893      2.00000
    151      -2.8875      2.00000
    152      -2.8760      2.00000
    153      -2.8592      2.00000
    154      -2.8427      2.00000
    155      -2.8394      2.00000
    156      -2.8272      2.00000
    157      -2.8251      2.00000
    158      -2.8192      2.00000
    159      -2.8111      2.00000
    160      -2.7973      2.00000
    161      -2.7897      2.00000
    162      -2.7886      2.00000
    163      -2.7804      2.00000
    164      -2.7631      2.00000
    165      -2.7592      2.00000
    166      -2.7268      2.00000
    167      -2.7236      2.00000
    168      -2.7165      2.00000
    169      -2.7037      2.00000
    170      -2.6856      2.00000
    171      -2.6850      2.00000
    172      -2.6684      2.00000
    173      -2.6318      2.00000
    174      -2.6263      2.00000
    175      -2.6140      2.00000
[...]
  0.000   0.000   0.000   0.000   0.000   0.000   0.000   0.000   0.000   0.000   0.000   0.000   0.000   0.000   0.000   0.000
  0.000   0.000   0.000   0.000   0.000   0.000   0.000   0.000   0.000   0.000   0.000   0.000   0.000   0.000   0.000   0.000
  0.000   0.000   0.000   0.000   0.000   0.000   0.000   0.000   0.000   0.000   0.000   0.000   0.000   0.000   0.000   0.000
  0.000   0.000   0.000   0.000   0.000   0.000   0.000   0.000   0.000   0.000   0.000   0.000   0.000   0.000   0.000   0.000
  0.000   0.000   0.000   0.000   0.000   0.000   0.000   0.000   0.000   0.000   0.000   0.000   0.000   0.000   0.000   0.000
  0.000   0.000   0.000   0.000   0.000   0.000   0.000   0.000   0.000   0.000   1.000   0.000   0.000   0.000   0.000   0.000
  0.000   0.000   0.000   0.000   0.000   0.000   0.000   0.000   0.000   0.000   0.000   0.000   0.000   0.000   0.000   0.000
  0.000   0.000   0.000   0.000   0.000   0.000   0.000   0.000   0.000   0.000   0.000   0.000   0.000   0.000   0.000   0.000
  0.000   0.000   0.000   0.000   0.000   0.000   0.000   0.000   0.000   0.000   0.000   0.000   0.000   0.000   0.000   0.000
  0.000   0.000   0.000   0.000   0.000   0.000   0.000   0.000   0.000   0.000   0.000   0.000   0.000   0.000   0.000   0.000
  0.000   0.000   0.000   0.000   0.000   0.000   0.000   0.000   0.000   0.000   0.000   0.000   0.000   0.000   0.000   0.000
  0.000   0.000   0.000   0.000   0.000   0.000   0.000   0.000   0.000   0.000   0.000   0.000   0.000   0.000   0.000   0.000
  0.000   0.000   0.000   0.000   0.000   0.000   0.000   0.000   0.000   0.000   0.000   0.000   0.000   0.000   0.000   0.000


------------------------ aborting loop because EDIFF is reached ----------------------------------------





 total charge

# of ion       s       p       d       tot
------------------------------------------
    1        0.416   0.204   9.177   9.796
    2        0.416   0.204   9.177   9.796
    3        0.416   0.204   9.177   9.796
    4        0.416   0.204   9.177   9.796
    5        0.419   0.202   9.177   9.797
    6        0.416   0.204   9.177   9.796
    7        0.416   0.204   9.177   9.796
    8        0.416   0.204   9.177   9.796
    9        0.414   0.205   9.176   9.795
   10        0.407   0.269   9.165   9.841
   11        0.402   0.273   9.164   9.840
   12        0.407   0.269   9.165   9.841
   13        0.402   0.273   9.164   9.840
   14        0.402   0.273   9.164   9.840
   15        0.404   0.269   9.165   9.838
   16        0.407   0.269   9.165   9.841
   17        0.404   0.269   9.165   9.838
   18        0.404   0.269   9.165   9.838
   19        0.406   0.266   9.167   9.839
   20        0.421   0.290   9.155   9.866
   21        0.421   0.290   9.155   9.866
   22        0.398   0.275   9.165   9.839
   23        0.421   0.290   9.155   9.866
   24        0.398   0.275   9.165   9.839
   25        0.406   0.266   9.167   9.839
   26        0.406   0.266   9.167   9.839
   27        0.398   0.275   9.165   9.839
   28        0.419   0.196   9.181   9.796
   29        0.407   0.210   9.181   9.798
   30        0.407   0.210   9.181   9.798
   31        0.407   0.210   9.181   9.798
   32        0.407   0.210   9.181   9.798
   33        0.407   0.210   9.181   9.798
   34        0.407   0.210   9.181   9.798
   35        0.419   0.196   9.182   9.797
   36        0.526   0.543   7.657   8.726
   37        1.029   1.186   0.000   2.215
--------------------------------------------------
tot         15.894  10.145 328.637 354.676
 
    CHARGE:  cpu time    0.3890: real time    0.3891
    FORLOC:  cpu time    0.0111: real time    0.0111
    FORNL :  cpu time    1.6358: real time    1.6360
    STRESS:  cpu time    4.8873: real time    4.8875
    FORCOR:  cpu time    0.0479: real time    0.0480
    FORHAR:  cpu time    0.0182: real time    0.0182
    OFIELD:  cpu time    0.0003: real time    0.0003

  FORCE on cell =-STRESS in cart. coord.  units (eV):
  Direction    XX          YY          ZZ          XY          YZ          ZX
  --------------------------------------------------------------------------------------
  Alpha Z   680.62107   680.62107   680.62107
  Ewald  154294.68704154294.68708************     0.00002     0.00000     0.00002
  Hartree164259.05576164259.05577************     0.00001    -0.00000     0.00001
  E(xc)   -2086.25238 -2086.25236 -2091.63027    -0.00002    -0.00000    -0.00000
  Local  ************************330070.09774     0.00025    -0.00004    -0.00011
  n-local  -324.17891  -306.13513  -308.95305    11.28349    -0.38815     0.58588
  augment  3281.86090  3281.86112  3280.49904    -0.00019    -0.00003    -0.00001
  Kinetic  4939.43278  4941.56485  4942.68167     4.19606     1.23613    -0.46120
  Fock        0.00000     0.00000     0.00000     0.00000     0.00000     0.00000
  -------------------------------------------------------------------------------------
  Total      -6.52794    -6.52794    -0.02004    -0.00000    -0.00000     0.00000
  in kB      -6.41403    -6.41403    -0.01969    -0.00000    -0.00000     0.00000
  external pressure =       -4.28 kB  Pullay stress =        0.00 kB


 VOLUME and BASIS-vectors are now :
 -----------------------------------------------------------------------------
  energy-cutoff  :      500.00
  volume of cell :     1630.63
      direct lattice vectors                 reciprocal lattice vectors
     8.791366577  0.000000000  0.000000000     0.113747958 -0.065672414  0.000000000
     4.395683289  7.613546790  0.000000000     0.000000000  0.131344829  0.000000000
     0.000000000  0.000000000 24.361965240     0.000000000  0.000000000  0.041047592

  length of vectors
     8.791366577  8.791366577 24.361965240     0.131344829  0.131344829  0.041047592


 FORCES acting on ions
    electron-ion (+dipol)            ewald-force                    non-local-force                 convergence-correction
 -----------------------------------------------------------------------------------------------
   0.462E-04 -.281E-04 0.268E+04   -.954E-04 0.593E-04 -.268E+04   0.225E-18 0.183E-17 -.175E+01   -.171E-03 -.165E-03 0.119E+00
   0.324E+00 0.496E+00 0.268E+04   -.405E+00 -.469E+00 -.268E+04   0.787E-02 -.818E-02 -.165E+01   0.731E-01 -.189E-01 0.176E+00
   -.324E+00 0.496E+00 0.268E+04   0.405E+00 -.469E+00 -.268E+04   -.787E-02 -.818E-02 -.165E+01   -.735E-01 -.170E-01 0.177E+00
   0.592E+00 0.326E-01 0.268E+04   -.609E+00 -.116E+00 -.268E+04   -.315E-02 0.109E-01 -.165E+01   0.204E-01 0.729E-01 0.176E+00
   -.726E-05 -.196E-04 0.269E+04   0.981E-04 -.199E-05 -.268E+04   -.191E-17 -.710E-18 -.182E+01   0.625E-02 0.382E-02 0.187E+00
   -.592E+00 0.326E-01 0.268E+04   0.609E+00 -.116E+00 -.268E+04   0.315E-02 0.109E-01 -.165E+01   -.218E-01 0.738E-01 0.177E+00
   0.268E+00 -.529E+00 0.268E+04   -.204E+00 0.585E+00 -.268E+04   -.110E-01 -.273E-02 -.165E+01   -.510E-01 -.547E-01 0.177E+00
   -.268E+00 -.529E+00 0.268E+04   0.204E+00 0.585E+00 -.268E+04   0.110E-01 -.273E-02 -.165E+01   0.526E-01 -.557E-01 0.177E+00
   0.364E-04 -.131E-04 0.268E+04   0.792E-04 -.643E-04 -.268E+04   0.125E-17 0.154E-17 -.164E+01   -.661E-02 -.343E-02 0.215E+00
   0.436E+01 0.252E+01 0.911E+03   -.435E+01 -.251E+01 -.910E+03   -.130E+00 -.750E-01 -.589E+00   0.109E+00 0.630E-01 0.181E+00
   -.287E-04 0.457E+01 0.917E+03   0.413E-04 -.470E+01 -.917E+03   0.543E-12 0.827E-01 -.622E+00   0.661E-02 0.202E-01 0.175E+00
   -.436E+01 0.252E+01 0.911E+03   0.435E+01 -.251E+01 -.910E+03   0.130E+00 -.750E-01 -.589E+00   -.111E+00 0.640E-01 0.182E+00
   0.396E+01 -.229E+01 0.917E+03   -.407E+01 0.235E+01 -.917E+03   0.716E-01 -.414E-01 -.622E+00   0.207E-01 -.436E-02 0.175E+00
   -.396E+01 -.229E+01 0.917E+03   0.407E+01 0.235E+01 -.917E+03   -.716E-01 -.414E-01 -.622E+00   -.989E-02 -.575E-02 0.174E+00
   0.164E-04 0.580E+00 0.911E+03   -.108E-03 -.603E+00 -.910E+03   -.129E-12 -.196E-01 -.486E+00   -.171E-02 0.318E-01 0.170E+00
   -.783E-05 -.503E+01 0.911E+03   0.206E-04 0.503E+01 -.910E+03   0.986E-12 0.150E+00 -.589E+00   -.238E-03 -.128E+00 0.181E+00
   0.502E+00 -.290E+00 0.911E+03   -.522E+00 0.301E+00 -.910E+03   -.169E-01 0.978E-02 -.486E+00   0.268E-01 -.174E-01 0.169E+00
   -.502E+00 -.290E+00 0.911E+03   0.522E+00 0.301E+00 -.910E+03   0.169E-01 0.978E-02 -.486E+00   -.263E-01 -.153E-01 0.171E+00
   0.405E-04 0.230E+01 -.892E+03   -.129E-03 -.225E+01 0.892E+03   -.459E-12 -.698E-01 0.492E+00   -.657E-02 0.107E-01 0.176E-01
   0.140E+02 0.810E+01 -.860E+03   -.136E+02 -.787E+01 0.860E+03   -.621E+00 -.359E+00 -.173E+00   0.697E-01 0.410E-01 0.260E-01
   -.140E+02 0.810E+01 -.860E+03   0.136E+02 -.787E+01 0.860E+03   0.621E+00 -.359E+00 -.173E+00   -.681E-01 0.396E-01 0.253E-01
   0.556E+01 -.321E+01 -.883E+03   -.593E+01 0.342E+01 0.883E+03   0.293E+00 -.169E+00 0.709E+00   0.706E-01 -.391E-01 -.424E-01
   -.562E-04 -.162E+02 -.860E+03   0.439E-04 0.157E+02 0.860E+03   0.471E-11 0.717E+00 -.173E+00   -.543E-02 -.878E-01 0.254E-01
   -.556E+01 -.321E+01 -.883E+03   0.593E+01 0.342E+01 0.883E+03   -.293E+00 -.169E+00 0.709E+00   -.691E-01 -.406E-01 -.418E-01
   -.199E+01 -.115E+01 -.892E+03   0.195E+01 0.113E+01 0.892E+03   0.605E-01 0.349E-01 0.492E+00   -.169E-01 -.915E-02 0.177E-01
   0.199E+01 -.115E+01 -.892E+03   -.195E+01 0.113E+01 0.892E+03   -.605E-01 0.349E-01 0.492E+00   0.607E-02 -.101E-01 0.176E-01
   0.199E-04 0.642E+01 -.883E+03   0.110E-03 -.685E+01 0.883E+03   0.222E-11 0.338E+00 0.709E+00   0.993E-03 0.801E-01 -.424E-01
   0.540E-04 -.374E-04 -.267E+04   -.116E-03 0.781E-04 0.266E+04   -.490E-17 0.816E-18 0.190E+01   -.149E-02 -.713E-03 -.533E-01
   0.184E+02 0.326E+02 -.266E+04   -.182E+02 -.323E+02 0.266E+04   -.272E+00 -.457E+00 0.213E+01   0.458E-01 0.118E-01 -.788E-01
   -.184E+02 0.326E+02 -.266E+04   0.182E+02 -.323E+02 0.266E+04   0.272E+00 -.457E+00 0.213E+01   -.356E-01 0.131E-01 -.797E-01
   0.374E+02 -.397E+00 -.266E+04   -.371E+02 0.376E+00 0.266E+04   -.531E+00 -.675E-02 0.213E+01   0.333E-01 0.340E-01 -.790E-01
   -.374E+02 -.397E+00 -.266E+04   0.371E+02 0.376E+00 0.266E+04   0.531E+00 -.675E-02 0.213E+01   -.238E-01 0.343E-01 -.795E-01
   0.191E+02 -.322E+02 -.266E+04   -.189E+02 0.320E+02 0.266E+04   -.260E+00 0.464E+00 0.213E+01   -.631E-02 -.371E-01 -.797E-01
   -.191E+02 -.322E+02 -.266E+04   0.189E+02 0.320E+02 0.266E+04   0.260E+00 0.464E+00 0.213E+01   0.177E-01 -.379E-01 -.789E-01
   0.229E-04 -.119E-04 -.266E+04   0.106E-03 -.662E-04 0.266E+04   0.265E-17 -.272E-17 0.197E+01   -.744E-02 -.400E-02 -.836E-01
   -.923E-06 -.182E-04 -.195E+04   0.860E-04 0.106E-04 0.195E+04   -.391E-17 0.294E-17 -.463E+01   0.212E-02 0.155E-02 -.487E-01
   0.472E-04 -.279E-04 -.123E+04   0.194E-04 0.298E-06 0.124E+04   -.822E-18 -.696E-18 -.117E+02   0.590E-03 0.372E-03 -.858E-01
 -----------------------------------------------------------------------------------------------
   0.418E-03 -.728E-03 0.143E+02   0.277E-13 -.168E-12 -.841E-11   -.208E-17 0.222E-15 -.168E+02   0.194E-01 0.931E-02 0.241E+01
 
 
 POSITION                                       TOTAL-FORCE (eV/Angst)
 -----------------------------------------------------------------------------------
      0.00000      0.00000      5.28219        -0.000000      0.000000      0.016615
      2.93046      0.00000      5.28219         0.000730      0.001427      0.021882
      5.86091      0.00000      5.28219        -0.000730      0.001427      0.021882
      1.46523      2.53785      5.28219         0.001601     -0.000081      0.021882
      4.39568      2.53785      5.28219        -0.000000     -0.000000     -0.006816
      7.32614      2.53785      5.28219        -0.001601     -0.000081      0.021882
      2.93046      5.07570      5.28219         0.000870     -0.001346      0.021882
      5.86091      5.07570      5.28219        -0.000870     -0.001346      0.021882
      8.79137      5.07570      5.28219        -0.000000      0.000000      0.030419
      1.46523      0.84595      7.67490        -0.015971     -0.009221     -0.009913
      4.39568      0.84595      7.67490        -0.000000     -0.024086     -0.052650
      7.32614      0.84595      7.67490         0.015971     -0.009221     -0.009913
      2.93046      3.38380      7.67490        -0.020859      0.012043     -0.052650
      5.86091      3.38380      7.67490         0.020859      0.012043     -0.052650
      8.79137      3.38380      7.67490        -0.000000     -0.011187      0.001372
      4.39568      5.92165      7.67490         0.000000      0.018442     -0.009913
      7.32614      5.92165      7.67490        -0.009688      0.005594      0.001372
     10.25659      5.92165      7.67490         0.009688      0.005594      0.001372
      8.79137      1.69615     10.06050        -0.000000     -0.005581     -0.010226
      2.93321      1.69349     10.03240        -0.151669     -0.087566     -0.187270
      5.85816      1.69349     10.03240         0.151669     -0.087566     -0.187270
     10.25564      4.23030     10.05204        -0.007956      0.004593     -0.007134
      4.39568      4.22657     10.03240         0.000000      0.175132     -0.187270
      7.32709      4.23030     10.05204         0.007956      0.004593     -0.007134
     11.71814      6.76547     10.06050         0.004833      0.002790     -0.010226
      5.86459      6.76547     10.06050        -0.004833      0.002790     -0.010226
      8.79137      6.76650     10.05204        -0.000000     -0.009187     -0.007134
      0.00000      0.00000     12.42190        -0.000000     -0.000000      0.017431
      2.95118      0.03878     12.42853        -0.105450     -0.187561     -0.042249
      5.84018      0.03878     12.42853         0.105450     -0.187561     -0.042249
      1.50917      2.53641     12.42853        -0.215157      0.002458     -0.042249
      7.28219      2.53641     12.42853         0.215157      0.002458     -0.042249
      2.95367      5.03836     12.42853        -0.109708      0.185102     -0.042249
      5.83769      5.03836     12.42853         0.109708      0.185102     -0.042249
      8.79137      5.07570     12.41313        -0.000000      0.000000      0.018192
      4.39568      2.53785     12.23685        -0.000000     -0.000000      0.851133
      4.39568      2.53785     13.92269        -0.000000     -0.000000     -0.007307
 -----------------------------------------------------------------------------------
    total drift:                                0.019779      0.008587     -0.082379


--------------------------------------------------------------------------------------------------------



  FREE ENERGIE OF THE ION-ELECTRON SYSTEM (eV)
  ---------------------------------------------------
  free  energy   TOTEN  =      -102.24139632 eV

  energy  without entropy=     -102.24139632  energy(sigma->0) =     -102.24139632
 


--------------------------------------------------------------------------------------------------------


    POTLOK:  cpu time    0.0492: real time    0.0492


--------------------------------------------------------------------------------------------------------


 stress matrix after NEB project (eV)
     -6.52794     -0.00000      0.00000
     -0.00000     -6.52794      0.00000
      0.00000     -0.00000     -0.02004
  FORCES: max atom, RMS     0.007307    0.001201
  FORCE total and by dimension    0.007307    0.007307
  Stress total and by dimension    9.231923    6.527940
     LOOP+:  cpu time   75.6921: real time   75.7048
 -----------------------------------------------------------------------------
|                                                                             |
|           W    W    AA    RRRRR   N    N  II  N    N   GGGG   !!!           |
|           W    W   A  A   R    R  NN   N  II  NN   N  G    G  !!!           |
|           W    W  A    A  R    R  N N  N  II  N N  N  G       !!!           |
|           W WW W  AAAAAA  RRRRR   N  N N  II  N  N N  G  GGG   !            |
|           WW  WW  A    A  R   R   N   NN  II  N   NN  G    G                |
|           W    W  A    A  R    R  N    N  II  N    N   GGGG   !!!           |
|                                                                             |
|     Tetrahedron method does not include variations of the Fermi             |
|     occupations, so forces and stress will be inaccurate. We suggest        |
|     using a different smearing scheme ISMEAR = 1 or 2 for metals in         |
|     relaxations.                                                            |
|                                                                             |
 -----------------------------------------------------------------------------

    4ORBIT:  cpu time    0.0000: real time    0.0000



 total charge

# of ion       s       p       d       tot
------------------------------------------
    1        0.416   0.204   9.177   9.796
    2        0.416   0.204   9.177   9.796
    3        0.416   0.204   9.177   9.796
    4        0.416   0.204   9.177   9.796
    5        0.419   0.202   9.177   9.797
    6        0.416   0.204   9.177   9.796
    7        0.416   0.204   9.177   9.796
    8        0.416   0.204   9.177   9.796
    9        0.414   0.205   9.176   9.795
   10        0.407   0.269   9.165   9.841
   11        0.402   0.273   9.164   9.840
   12        0.407   0.269   9.165   9.841
   13        0.402   0.273   9.164   9.840
   14        0.402   0.273   9.164   9.840
   15        0.404   0.269   9.165   9.838
   16        0.407   0.269   9.165   9.841
   17        0.404   0.269   9.165   9.838
   18        0.404   0.269   9.165   9.838
   19        0.406   0.266   9.167   9.839
   20        0.421   0.290   9.155   9.866
   21        0.421   0.290   9.155   9.866
   22        0.398   0.275   9.165   9.839
   23        0.421   0.290   9.155   9.866
   24        0.398   0.275   9.165   9.839
   25        0.406   0.266   9.167   9.839
   26        0.406   0.266   9.167   9.839
   27        0.398   0.275   9.165   9.839
   28        0.419   0.196   9.181   9.796
   29        0.407   0.210   9.181   9.798
   30        0.407   0.210   9.181   9.798
   31        0.407   0.210   9.181   9.798
   32        0.407   0.210   9.181   9.798
   33        0.407   0.210   9.181   9.798
   34        0.407   0.210   9.181   9.798
   35        0.419   0.196   9.182   9.797
   36        0.526   0.543   7.657   8.726
   37        1.029   1.186   0.000   2.215
--------------------------------------------------
tot         15.894  10.145 328.637 354.676
 
 BZINTS: Fermi energy:    0.376950;  398.000000 electrons
         Band energy:-0.147872E+04;  BLOECHL correction:   -0.099464

 total amount of memory used by VASP MPI-rank0   131173. kBytes
=======================================================================

   base      :      30000. kBytes
   nonlr-proj:      15252. kBytes
   fftplans  :       4808. kBytes
   grid      :      19857. kBytes
   one-center:        575. kBytes
   wavefun   :      60681. kBytes
 
  
  
 General timing and accounting informations for this job:
 ========================================================
  
                  Total CPU time used (sec):       83.534
                            User time (sec):       80.490
                          System time (sec):        3.044
                         Elapsed time (sec):       83.889
  
                   Maximum memory used (kb):      395940.
                   Average memory used (kb):          N/A
  
                          Minor page faults:        76250
                          Major page faults:            0
                 Voluntary context switches:         5276
