PROCAR new format
# of k-points:   10         # of bands:  252         # of ions:   37

 k-point     1 :    0.00000000 0.00000000 0.00000000     weight = 0.01562500

band     1 # energy   -9.89500340 # occ.  2.00000000
 
ion      s      p      d    tot
    1  0.000  0.000  0.000  0.000
    2  0.000  0.000  0.000  0.000
    3  0.000  0.000  0.000  0.000
    4  0.000  0.000  0.000  0.000
    5  0.000  0.000  0.000  0.000
    6  0.000  0.000  0.000  0.000
    7  0.000  0.000  0.000  0.000
    8  0.000  0.000  0.000  0.000
    9  0.000  0.000  0.000  0.000
   10  0.000  0.000  0.000  0.000
   11  0.000  0.000  0.000  0.000
   12  0.000  0.000  0.000  0.000
   13  0.000  0.000  0.000  0.000
   14  0.000  0.000  0.000  0.000
   15  0.000  0.000  0.000  0.000
   16  0.000  0.000  0.000  0.000
   17  0.000  0.000  0.000  0.000
   18  0.000  0.000  0.000  0.000
   19  0.000  0.000  0.000  0.000
   20  0.001  0.000  0.001  0.002
   21  0.001  0.000  0.001  0.002
   22  0.000  0.000  0.000  0.000
   23  0.001  0.000  0.001  0.002
   24  0.000  0.000  0.000  0.000
   25  0.000  0.000  0.000  0.000
   26  0.000  0.000  0.000  0.000
   27  0.000  0.000  0.000  0.000
   28  0.000  0.000  0.000  0.000
   29  0.000  0.000  0.000  0.001
   30  0.000  0.000  0.000  0.001
   31  0.000  0.000  0.000  0.001
   32  0.000  0.000  0.000  0.001
   33  0.000  0.000  0.000  0.001
   34  0.000  0.000  0.000  0.001
   35  0.000  0.000  0.000  0.000
   36  0.080  0.072  0.251  0.403
   37  0.429  0.031  0.000  0.460
tot    0.514  0.105  0.257  0.876
 
band     2 # energy   -6.73536043 # occ.  2.00000000
 
ion      s      p      d    tot
    1  0.006  0.001  0.000  0.007
    2  0.006  0.001  0.000  0.007
    3  0.006  0.001  0.000  0.007
    4  0.006  0.001  0.000  0.007
    5  0.006  0.001  0.000  0.007
    6  0.006  0.001  0.000  0.007
    7  0.006  0.001  0.000  0.007
    8  0.006  0.001  0.000  0.007
    9  0.006  0.001  0.000  0.006
   10  0.023  0.000  0.000  0.024
   11  0.024  0.000  0.000  0.024
   12  0.023  0.000  0.000  0.024
   13  0.024  0.000  0.000  0.024
   14  0.024  0.000  0.000  0.024
   15  0.023  0.000  0.000  0.024
   16  0.023  0.000  0.000  0.024
   17  0.023  0.000  0.000  0.024
   18  0.023  0.000  0.000  0.024
   19  0.023  0.000  0.000  0.023
   20  0.024  0.000  0.000  0.025
   21  0.024  0.000  0.000  0.025
   22  0.023  0.000  0.000  0.024
   23  0.024  0.000  0.000  0.025
   24  0.023  0.000  0.000  0.024
   25  0.023  0.000  0.000  0.023
   26  0.023  0.000  0.000  0.023
   27  0.023  0.000  0.000  0.024
   28  0.005  0.001  0.000  0.006
   29  0.005  0.001  0.000  0.006
   30  0.005  0.001  0.000  0.006
   31  0.005  0.001  0.000  0.006
   32  0.005  0.001  0.000  0.006
   33  0.005  0.001  0.000  0.006
   34  0.005  0.001  0.000  0.006
   35  0.005  0.001  0.000  0.006
   36  0.003  0.003  0.002  0.008
   37  0.002  0.000  0.000  0.002
tot    0.523  0.015  0.009  0.547
 
band     3 # energy   -5.86464839 # occ.  2.00000000
 
ion      s      p      d    tot
    1  0.008  0.000  0.000  0.008
    2  0.008  0.000  0.000  0.008
    3  0.008  0.000  0.000  0.008
    4  0.008  0.000  0.000  0.008
    5  0.007  0.000  0.000  0.008
    6  0.008  0.000  0.000  0.008
    7  0.008  0.000  0.000  0.008
    8  0.008  0.000  0.000  0.008
    9  0.007  0.000  0.000  0.008
   10  0.012  0.001  0.015  0.028
   11  0.011  0.001  0.016  0.028
   12  0.012  0.001  0.015  0.028
   13  0.011  0.001  0.016  0.028
   14  0.011  0.001  0.016  0.028
   15  0.010  0.001  0.015  0.026
   16  0.012  0.001  0.015  0.028
   17  0.010  0.001  0.015  0.026
   18  0.010  0.001  0.015  0.026
   19  0.012  0.001  0.018  0.031
   20  0.012  0.001  0.021  0.034
   21  0.012  0.001  0.021  0.034
   22  0.013  0.001  0.017  0.031
   23  0.012  0.001  0.021  0.034
   24  0.013  0.001  0.017  0.031
   25  0.012  0.001  0.018  0.031
   26  0.012  0.001  0.018  0.031
   27  0.013  0.001  0.017  0.031
   28  0.006  0.000  0.000  0.007
   29  0.006  0.000  0.000  0.006
   30  0.006  0.000  0.000  0.006
   31  0.006  0.000  0.000  0.006
   32  0.006  0.000  0.000  0.006
   33  0.006  0.000  0.000  0.006
   34  0.006  0.000  0.000  0.006
   35  0.006  0.000  0.000  0.007
   36  0.003  0.002  0.002  0.007
   37  0.001  0.000  0.000  0.001
tot    0.328  0.025  0.312  0.665
 
band     4 # energy   -5.59932232 # occ.  2.00000000
 
ion      s      p      d    tot
    1  0.014  0.000  0.016  0.030
    2  0.011  0.000  0.016  0.027
    3  0.011  0.000  0.016  0.027
    4  0.011  0.000  0.016  0.027
    5  0.009  0.000  0.015  0.025
    6  0.011  0.000  0.016  0.027
    7  0.011  0.000  0.016  0.027
    8  0.011  0.000  0.016  0.027
    9  0.010  0.000  0.015  0.025
   10  0.000  0.000  0.020  0.021
   11  0.000  0.000  0.012  0.013
   12  0.000  0.000  0.020  0.021
   13  0.000  0.000  0.012  0.013
   14  0.000  0.000  0.012  0.013
   15  0.000  0.001  0.010  0.011
   16  0.000  0.000  0.020  0.021
   17  0.000  0.001  0.010  0.011
   18  0.000  0.001  0.010  0.011
   19  0.000  0.000  0.014  0.015
   20  0.001  0.000  0.028  0.029
   21  0.001  0.000  0.028  0.029
   22  0.001  0.000  0.011  0.012
   23  0.001  0.000  0.028  0.029
   24  0.001  0.000  0.011  0.012
   25  0.000  0.000  0.014  0.015
   26  0.000  0.000  0.014  0.015
   27  0.001  0.000  0.011  0.012
   28  0.010  0.000  0.010  0.019
   29  0.011  0.000  0.013  0.023
   30  0.011  0.000  0.013  0.023
   31  0.011  0.000  0.013  0.023
   32  0.011  0.000  0.013  0.023
   33  0.011  0.000  0.013  0.023
   34  0.011  0.000  0.013  0.023
   35  0.013  0.000  0.011  0.024
   36  0.007  0.000  0.028  0.035
   37  0.000  0.002  0.000  0.002
tot    0.200  0.009  0.552  0.761
 
band     5 # energy   -5.49963730 # occ.  2.00000000
 
ion      s      p      d    tot
    1  0.000  0.000  0.010  0.010
    2  0.003  0.000  0.009  0.012
    3  0.003  0.000  0.009  0.012
    4  0.003  0.000  0.009  0.012
    5  0.007  0.000  0.006  0.013
    6  0.003  0.000  0.009  0.012
    7  0.003  0.000  0.009  0.012
    8  0.003  0.000  0.009  0.012
    9  0.006  0.000  0.003  0.009
   10  0.004  0.000  0.012  0.016
   11  0.001  0.001  0.025  0.027
   12  0.004  0.000  0.012  0.016
   13  0.001  0.001  0.025  0.027
   14  0.001  0.001  0.025  0.027
   15  0.002  0.000  0.016  0.018
   16  0.004  0.000  0.012  0.016
   17  0.002  0.000  0.016  0.018
   18  0.002  0.000  0.016  0.018
   19  0.002  0.001  0.033  0.035
   20  0.009  0.000  0.090  0.100
   21  0.009  0.000  0.090  0.099
   22  0.010  0.001  0.009  0.019
   23  0.009  0.000  0.090  0.099
   24  0.010  0.001  0.009  0.019
   25  0.002  0.001  0.033  0.035
   26  0.002  0.001  0.033  0.036
   27  0.010  0.001  0.009  0.019
   28  0.000  0.000  0.000  0.000
   29  0.000  0.000  0.004  0.005
   30  0.000  0.000  0.004  0.005
   31  0.000  0.000  0.004  0.005
   32  0.000  0.000  0.004  0.005
   33  0.000  0.000  0.004  0.005
   34  0.000  0.000  0.004  0.005
   35  0.004  0.001  0.001  0.006
   36  0.000  0.004  0.011  0.015
   37  0.003  0.001  0.000  0.005
tot    0.123  0.017  0.667  0.806
 
band     6 # energy   -5.49062025 # occ.  2.00000000
 
ion      s      p      d    tot
    1  0.000  0.000  0.008  0.008
    2  0.001  0.000  0.002  0.004
    3  0.001  0.000  0.003  0.004
    4  0.001  0.000  0.002  0.004
    5  0.000  0.000  0.005  0.005
    6  0.000  0.000  0.002  0.002
    7  0.001  0.000  0.003  0.004
    8  0.000  0.000  0.002  0.002
    9  0.000  0.000  0.001  0.001
   10  0.000  0.000  0.025  0.025
   11  0.004  0.000  0.023  0.027
   12  0.010  0.001  0.015  0.025
   13  0.004  0.001  0.023  0.027
   14  0.000  0.001  0.021  0.022
   15  0.001  0.000  0.012  0.014
   16  0.010  0.001  0.014  0.025
   17  0.001  0.000  0.012  0.014
   18  0.000  0.000  0.019  0.019
   19  0.013  0.001  0.033  0.047
   20  0.000  0.000  0.135  0.136
   21  0.025  0.000  0.040  0.065
   22  0.001  0.001  0.034  0.036
   23  0.026  0.000  0.036  0.062
   24  0.000  0.001  0.063  0.063
   25  0.000  0.002  0.012  0.014
   26  0.013  0.001  0.032  0.045
   27  0.001  0.001  0.033  0.035
   28  0.000  0.000  0.003  0.004
   29  0.000  0.000  0.007  0.007
   30  0.000  0.000  0.005  0.005
   31  0.000  0.000  0.007  0.007
   32  0.001  0.001  0.007  0.009
   33  0.001  0.000  0.005  0.006
   34  0.001  0.001  0.007  0.009
   35  0.000  0.000  0.002  0.002
   36  0.000  0.001  0.020  0.021
   37  0.000  0.002  0.000  0.002
tot    0.117  0.017  0.672  0.807
 
band     7 # energy   -5.49060719 # occ.  2.00000000
 
ion      s      p      d    tot
    1  0.000  0.000  0.008  0.008
    2  0.000  0.000  0.002  0.003
    3  0.000  0.000  0.002  0.003
    4  0.000  0.000  0.002  0.003
    5  0.000  0.000  0.005  0.005
    6  0.001  0.000  0.003  0.004
    7  0.000  0.000  0.002  0.003
    8  0.001  0.000  0.003  0.004
    9  0.000  0.000  0.001  0.001
   10  0.013  0.001  0.011  0.025
   11  0.001  0.001  0.022  0.024
   12  0.003  0.001  0.021  0.025
   13  0.001  0.001  0.022  0.024
   14  0.005  0.000  0.024  0.029
   15  0.000  0.000  0.017  0.017
   16  0.003  0.001  0.022  0.025
   17  0.001  0.000  0.016  0.017
   18  0.002  0.000  0.010  0.013
   19  0.004  0.001  0.018  0.024
   20  0.034  0.000  0.005  0.040
   21  0.009  0.000  0.101  0.110
   22  0.000  0.001  0.053  0.054
   23  0.008  0.000  0.105  0.113
   24  0.002  0.000  0.024  0.026
   25  0.018  0.000  0.039  0.057
   26  0.005  0.001  0.019  0.025
   27  0.000  0.001  0.054  0.055
   28  0.000  0.000  0.003  0.004
   29  0.001  0.001  0.005  0.007
   30  0.001  0.001  0.007  0.009
   31  0.001  0.001  0.005  0.007
   32  0.000  0.000  0.005  0.005
   33  0.001  0.001  0.007  0.009
   34  0.000  0.000  0.005  0.005
   35  0.000  0.000  0.002  0.002
   36  0.000  0.001  0.020  0.021
   37  0.000  0.002  0.000  0.002
tot    0.117  0.017  0.672  0.807
 
band     8 # energy   -5.46505810 # occ.  2.00000000
 
ion      s      p      d    tot
    1  0.000  0.000  0.001  0.001
    2  0.000  0.000  0.002  0.002
    3  0.001  0.001  0.005  0.006
    4  0.001  0.000  0.004  0.005
    5  0.000  0.000  0.007  0.007
    6  0.001  0.000  0.004  0.006
    7  0.001  0.000  0.004  0.006
    8  0.000  0.000  0.002  0.002
    9  0.000  0.000  0.005  0.005
   10  0.000  0.000  0.029  0.030
   11  0.014  0.001  0.033  0.047
   12  0.000  0.001  0.046  0.047
   13  0.000  0.000  0.083  0.083
   14  0.018  0.001  0.018  0.037
   15  0.011  0.001  0.025  0.037
   16  0.000  0.000  0.033  0.033
   17  0.000  0.001  0.016  0.018
   18  0.014  0.001  0.028  0.043
   19  0.005  0.000  0.030  0.036
   20  0.003  0.000  0.036  0.040
   21  0.000  0.001  0.022  0.024
   22  0.000  0.001  0.041  0.042
   23  0.003  0.001  0.033  0.036
   24  0.019  0.001  0.021  0.040
   25  0.007  0.001  0.019  0.026
   26  0.000  0.000  0.068  0.068
   27  0.015  0.001  0.025  0.041
   28  0.000  0.000  0.003  0.004
   29  0.001  0.000  0.004  0.006
   30  0.000  0.000  0.003  0.003
   31  0.001  0.000  0.003  0.004
   32  0.000  0.000  0.003  0.004
   33  0.000  0.000  0.003  0.003
   34  0.001  0.000  0.004  0.006
   35  0.000  0.000  0.008  0.008
   36  0.000  0.000  0.001  0.001
   37  0.000  0.000  0.000  0.000
tot    0.119  0.016  0.671  0.806
 
band     9 # energy   -5.46505120 # occ.  2.00000000
 
ion      s      p      d    tot
    1  0.000  0.000  0.001  0.001
    2  0.001  0.001  0.005  0.007
    3  0.000  0.000  0.003  0.003
    4  0.001  0.000  0.003  0.004
    5  0.000  0.000  0.007  0.007
    6  0.000  0.000  0.003  0.004
    7  0.000  0.000  0.003  0.003
    8  0.001  0.000  0.005  0.007
    9  0.000  0.000  0.005  0.005
   10  0.000  0.001  0.043  0.044
   11  0.007  0.000  0.057  0.065
   12  0.000  0.000  0.026  0.026
   13  0.021  0.001  0.006  0.029
   14  0.003  0.000  0.071  0.075
   15  0.006  0.001  0.021  0.028
   16  0.000  0.001  0.039  0.040
   17  0.017  0.000  0.029  0.047
   18  0.003  0.001  0.018  0.022
   19  0.003  0.000  0.048  0.051
   20  0.001  0.001  0.025  0.027
   21  0.004  0.000  0.038  0.042
   22  0.022  0.001  0.016  0.040
   23  0.001  0.001  0.028  0.030
   24  0.004  0.001  0.038  0.042
   25  0.001  0.000  0.059  0.060
   26  0.008  0.001  0.010  0.019
   27  0.008  0.001  0.033  0.042
   28  0.000  0.000  0.003  0.004
   29  0.000  0.000  0.002  0.002
   30  0.001  0.000  0.004  0.006
   31  0.001  0.000  0.004  0.005
   32  0.001  0.000  0.004  0.005
   33  0.001  0.000  0.004  0.005
   34  0.000  0.000  0.002  0.002
   35  0.000  0.000  0.008  0.008
   36  0.000  0.000  0.001  0.001
   37  0.000  0.000  0.000  0.000
tot    0.119  0.016  0.671  0.806
 
band    10 # energy   -5.46130707 # occ.  2.00000000
 
ion      s      p      d    tot
    1  0.000  0.000  0.000  0.001
    2  0.000  0.000  0.005  0.005
    3  0.000  0.000  0.005  0.005
    4  0.000  0.000  0.005  0.005
    5  0.004  0.001  0.003  0.008
    6  0.000  0.000  0.005  0.005
    7  0.000  0.000  0.005  0.005
    8  0.000  0.000  0.005  0.005
    9  0.002  0.000  0.002  0.004
   10  0.007  0.001  0.005  0.013
   11  0.011  0.001  0.034  0.046
   12  0.007  0.001  0.006  0.013
   13  0.011  0.001  0.035  0.046
   14  0.012  0.001  0.034  0.046
   15  0.000  0.000  0.042  0.042
   16  0.007  0.001  0.006  0.013
   17  0.000  0.000  0.042  0.042
   18  0.001  0.000  0.041  0.042
   19  0.014  0.001  0.034  0.049
   20  0.006  0.001  0.012  0.020
   21  0.006  0.001  0.012  0.020
   22  0.001  0.000  0.065  0.066
   23  0.006  0.001  0.012  0.020
   24  0.001  0.000  0.064  0.066
   25  0.014  0.001  0.034  0.049
   26  0.014  0.001  0.034  0.049
   27  0.001  0.000  0.065  0.066
   28  0.005  0.001  0.005  0.011
   29  0.000  0.000  0.004  0.004
   30  0.000  0.000  0.004  0.004
   31  0.000  0.000  0.004  0.004
   32  0.000  0.000  0.004  0.004
   33  0.000  0.000  0.004  0.004
   34  0.000  0.000  0.004  0.004
   35  0.001  0.000  0.007  0.009
   36  0.000  0.000  0.000  0.000
   37  0.000  0.000  0.000  0.000
tot    0.132  0.017  0.650  0.800
 
band    11 # energy   -5.43837638 # occ.  2.00000000
 
ion      s      p      d    tot
    1  0.002  0.001  0.012  0.015
    2  0.000  0.000  0.007  0.008
    3  0.000  0.000  0.007  0.008
    4  0.000  0.000  0.007  0.008
    5  0.001  0.000  0.007  0.008
    6  0.000  0.000  0.007  0.008
    7  0.000  0.000  0.007  0.008
    8  0.000  0.000  0.007  0.008
    9  0.005  0.001  0.002  0.008
   10  0.006  0.000  0.072  0.078
   11  0.000  0.000  0.068  0.068
   12  0.006  0.000  0.073  0.078
   13  0.000  0.000  0.068  0.068
   14  0.000  0.000  0.068  0.068
   15  0.011  0.001  0.004  0.016
   16  0.006  0.000  0.073  0.078
   17  0.011  0.001  0.004  0.016
   18  0.011  0.001  0.004  0.016
   19  0.001  0.000  0.012  0.013
   20  0.002  0.000  0.032  0.034
   21  0.002  0.000  0.032  0.034
   22  0.000  0.000  0.019  0.020
   23  0.002  0.000  0.032  0.034
   24  0.000  0.000  0.019  0.019
   25  0.001  0.000  0.012  0.013
   26  0.001  0.000  0.012  0.013
   27  0.000  0.000  0.019  0.020
   28  0.004  0.000  0.000  0.004
   29  0.000  0.000  0.009  0.009
   30  0.000  0.000  0.009  0.009
   31  0.000  0.000  0.009  0.009
   32  0.000  0.000  0.009  0.009
   33  0.000  0.000  0.009  0.009
   34  0.000  0.000  0.009  0.009
   35  0.000  0.000  0.003  0.003
   36  0.006  0.001  0.004  0.010
   37  0.000  0.000  0.000  0.000
tot    0.079  0.010  0.748  0.837
 
band    12 # energy   -5.43293327 # occ.  2.00000000
 
ion      s      p      d    tot
    1  0.001  0.000  0.005  0.007
    2  0.004  0.000  0.013  0.016
    3  0.004  0.000  0.013  0.016
    4  0.004  0.000  0.013  0.016
    5  0.005  0.000  0.004  0.009
    6  0.004  0.000  0.013  0.016
    7  0.004  0.000  0.013  0.016
    8  0.004  0.000  0.013  0.016
    9  0.004  0.000  0.027  0.032
   10  0.002  0.000  0.027  0.029
   11  0.001  0.001  0.005  0.006
   12  0.002  0.000  0.027  0.029
   13  0.001  0.001  0.005  0.006
   14  0.001  0.001  0.005  0.006
   15  0.006  0.000  0.051  0.057
   16  0.002  0.000  0.027  0.029
   17  0.006  0.000  0.051  0.057
   18  0.006  0.000  0.051  0.056
   19  0.000  0.001  0.003  0.004
   20  0.000  0.000  0.029  0.030
   21  0.000  0.000  0.029  0.030
   22  0.003  0.001  0.036  0.039
   23  0.000  0.000  0.029  0.030
   24  0.003  0.001  0.036  0.039
   25  0.000  0.001  0.003  0.004
   26  0.000  0.001  0.003  0.004
   27  0.003  0.001  0.036  0.039
   28  0.005  0.000  0.004  0.009
   29  0.005  0.000  0.014  0.019
   30  0.005  0.000  0.014  0.019
   31  0.005  0.000  0.014  0.019
   32  0.005  0.000  0.014  0.019
   33  0.005  0.000  0.014  0.019
   34  0.005  0.000  0.014  0.019
   35  0.008  0.000  0.024  0.032
   36  0.002  0.000  0.012  0.014
   37  0.000  0.001  0.000  0.001
tot    0.115  0.009  0.685  0.809
 
band    13 # energy   -5.42308552 # occ.  2.00000000
 
ion      s      p      d    tot
    1  0.000  0.001  0.014  0.014
    2  0.001  0.000  0.007  0.008
    3  0.000  0.000  0.011  0.011
    4  0.002  0.000  0.005  0.007
    5  0.000  0.000  0.007  0.007
    6  0.003  0.001  0.005  0.009
    7  0.001  0.001  0.010  0.012
    8  0.003  0.001  0.007  0.010
    9  0.000  0.000  0.006  0.007
   10  0.001  0.000  0.080  0.081
   11  0.001  0.000  0.045  0.046
   12  0.012  0.000  0.048  0.060
   13  0.001  0.000  0.032  0.033
   14  0.000  0.001  0.010  0.011
   15  0.011  0.000  0.019  0.030
   16  0.019  0.000  0.029  0.048
   17  0.007  0.000  0.053  0.061
   18  0.000  0.000  0.112  0.113
   19  0.000  0.000  0.025  0.026
   20  0.000  0.000  0.031  0.031
   21  0.001  0.000  0.019  0.020
   22  0.001  0.000  0.019  0.021
   23  0.001  0.001  0.012  0.014
   24  0.000  0.000  0.015  0.015
   25  0.000  0.000  0.030  0.030
   26  0.000  0.000  0.027  0.027
   27  0.002  0.000  0.022  0.024
   28  0.000  0.000  0.013  0.013
   29  0.002  0.000  0.004  0.006
   30  0.003  0.000  0.004  0.007
   31  0.001  0.000  0.004  0.005
   32  0.000  0.000  0.004  0.004
   33  0.002  0.000  0.004  0.007
   34  0.001  0.000  0.004  0.005
   35  0.000  0.000  0.004  0.004
   36  0.000  0.000  0.003  0.003
   37  0.000  0.000  0.000  0.000
tot    0.076  0.010  0.746  0.832
 
band    14 # energy   -5.42306779 # occ.  2.00000000
 
ion      s      p      d    tot
    1  0.000  0.001  0.014  0.014
    2  0.002  0.001  0.008  0.011
    3  0.003  0.001  0.005  0.008
    4  0.001  0.001  0.010  0.012
    5  0.000  0.000  0.007  0.007
    6  0.000  0.000  0.010  0.011
    7  0.002  0.000  0.005  0.007
    8  0.000  0.000  0.008  0.009
    9  0.000  0.000  0.006  0.007
   10  0.020  0.000  0.025  0.046
   11  0.000  0.001  0.013  0.014
   12  0.009  0.000  0.057  0.066
   13  0.000  0.000  0.026  0.027
   14  0.001  0.000  0.048  0.049
   15  0.001  0.000  0.104  0.105
   16  0.002  0.000  0.075  0.078
   17  0.005  0.000  0.070  0.075
   18  0.012  0.000  0.011  0.023
   19  0.000  0.000  0.030  0.030
   20  0.001  0.001  0.010  0.012
   21  0.000  0.000  0.022  0.023
   22  0.001  0.000  0.018  0.019
   23  0.000  0.000  0.029  0.030
   24  0.002  0.000  0.023  0.025
   25  0.000  0.000  0.025  0.025
   26  0.000  0.000  0.028  0.028
   27  0.000  0.000  0.015  0.016
   28  0.000  0.000  0.013  0.013
   29  0.001  0.000  0.004  0.005
   30  0.000  0.000  0.004  0.004
   31  0.002  0.000  0.004  0.006
   32  0.003  0.000  0.004  0.007
   33  0.001  0.000  0.004  0.005
   34  0.002  0.000  0.004  0.007
   35  0.000  0.000  0.004  0.004
   36  0.000  0.000  0.003  0.003
   37  0.000  0.000  0.000  0.000
tot    0.076  0.010  0.746  0.832
 
band    15 # energy   -5.41707263 # occ.  2.00000000
 
ion      s      p      d    tot
    1  0.000  0.000  0.006  0.006
    2  0.002  0.000  0.006  0.009
    3  0.000  0.000  0.009  0.009
    4  0.002  0.000  0.007  0.009
    5  0.000  0.000  0.008  0.008
    6  0.002  0.001  0.006  0.008
    7  0.000  0.000  0.009  0.009
    8  0.002  0.001  0.005  0.008
    9  0.000  0.000  0.016  0.016
   10  0.002  0.000  0.029  0.030
   11  0.003  0.000  0.053  0.056
   12  0.000  0.000  0.025  0.026
   13  0.002  0.000  0.064  0.065
   14  0.009  0.000  0.007  0.016
   15  0.001  0.000  0.032  0.033
   16  0.001  0.000  0.026  0.027
   17  0.000  0.000  0.031  0.031
   18  0.002  0.000  0.038  0.041
   19  0.002  0.000  0.053  0.056
   20  0.000  0.000  0.047  0.047
   21  0.000  0.000  0.022  0.022
   22  0.001  0.000  0.054  0.055
   23  0.000  0.000  0.026  0.027
   24  0.008  0.000  0.027  0.035
   25  0.007  0.000  0.007  0.014
   26  0.001  0.000  0.064  0.065
   27  0.003  0.000  0.049  0.052
   28  0.000  0.000  0.004  0.004
   29  0.000  0.000  0.008  0.009
   30  0.002  0.000  0.003  0.005
   31  0.001  0.000  0.007  0.008
   32  0.001  0.000  0.008  0.009
   33  0.002  0.000  0.003  0.005
   34  0.000  0.000  0.009  0.009
   35  0.000  0.000  0.012  0.012
   36  0.000  0.000  0.003  0.003
   37  0.000  0.000  0.000  0.000
tot    0.057  0.007  0.781  0.845
 
band    16 # energy   -5.41702510 # occ.  2.00000000
 
ion      s      p      d    tot
    1  0.000  0.000  0.006  0.006
    2  0.000  0.000  0.008  0.009
    3  0.003  0.000  0.005  0.008
    4  0.001  0.000  0.007  0.009
    5  0.000  0.000  0.008  0.008
    6  0.001  0.000  0.008  0.009
    7  0.003  0.000  0.005  0.008
    8  0.001  0.000  0.009  0.009
    9  0.000  0.000  0.016  0.016
   10  0.000  0.000  0.024  0.025
   11  0.006  0.000  0.029  0.035
   12  0.001  0.000  0.028  0.030
   13  0.007  0.000  0.019  0.026
   14  0.000  0.000  0.075  0.075
   15  0.002  0.000  0.035  0.037
   16  0.001  0.000  0.027  0.029
   17  0.002  0.000  0.037  0.039
   18  0.000  0.000  0.029  0.030
   19  0.005  0.000  0.030  0.035
   20  0.000  0.000  0.016  0.016
   21  0.000  0.000  0.042  0.042
   22  0.007  0.000  0.033  0.040
   23  0.000  0.000  0.037  0.037
   24  0.000  0.000  0.059  0.060
   25  0.000  0.000  0.076  0.076
   26  0.006  0.000  0.019  0.025
   27  0.005  0.000  0.038  0.043
   28  0.000  0.000  0.004  0.004
   29  0.002  0.001  0.004  0.006
   30  0.000  0.000  0.009  0.010
   31  0.001  0.001  0.005  0.007
   32  0.001  0.000  0.005  0.006
   33  0.000  0.000  0.010  0.010
   34  0.002  0.000  0.004  0.006
   35  0.000  0.000  0.012  0.012
   36  0.000  0.000  0.003  0.003
   37  0.000  0.000  0.000  0.000
tot    0.057  0.007  0.781  0.845
 
band    17 # energy   -5.40717361 # occ.  2.00000000
 
ion      s      p      d    tot
    1  0.011  0.000  0.009  0.020
    2  0.002  0.000  0.012  0.014
    3  0.002  0.000  0.012  0.014
    4  0.002  0.000  0.012  0.014
    5  0.000  0.001  0.015  0.016
    6  0.002  0.000  0.012  0.014
    7  0.002  0.000  0.012  0.014
    8  0.002  0.000  0.012  0.014
    9  0.001  0.000  0.000  0.001
   10  0.000  0.000  0.026  0.026
   11  0.006  0.000  0.017  0.024
   12  0.000  0.000  0.026  0.026
   13  0.006  0.000  0.017  0.024
   14  0.006  0.000  0.017  0.024
   15  0.000  0.000  0.033  0.033
   16  0.000  0.000  0.026  0.026
   17  0.000  0.000  0.033  0.033
   18  0.000  0.000  0.033  0.033
   19  0.001  0.000  0.051  0.052
   20  0.001  0.001  0.009  0.011
   21  0.001  0.001  0.009  0.011
   22  0.003  0.000  0.023  0.026
   23  0.001  0.001  0.009  0.011
   24  0.003  0.000  0.023  0.026
   25  0.001  0.000  0.051  0.052
   26  0.001  0.000  0.051  0.052
   27  0.003  0.000  0.023  0.026
   28  0.007  0.000  0.031  0.039
   29  0.005  0.000  0.015  0.021
   30  0.005  0.000  0.015  0.021
   31  0.005  0.000  0.015  0.021
   32  0.005  0.000  0.015  0.021
   33  0.005  0.000  0.015  0.021
   34  0.005  0.000  0.015  0.021
   35  0.000  0.000  0.008  0.008
   36  0.010  0.002  0.007  0.018
   37  0.001  0.000  0.000  0.001
tot    0.105  0.009  0.708  0.822
 
band    18 # energy   -5.28549326 # occ.  2.00000000
 
ion      s      p      d    tot
    1  0.000  0.000  0.002  0.002
    2  0.001  0.000  0.008  0.009
    3  0.000  0.000  0.008  0.008
    4  0.001  0.001  0.007  0.009
    5  0.000  0.001  0.012  0.012
    6  0.002  0.001  0.005  0.007
    7  0.000  0.000  0.006  0.007
    8  0.001  0.000  0.004  0.006
    9  0.000  0.000  0.010  0.011
   10  0.000  0.001  0.025  0.026
   11  0.000  0.000  0.071  0.071
   12  0.000  0.001  0.015  0.015
   13  0.001  0.000  0.058  0.059
   14  0.002  0.000  0.041  0.042
   15  0.000  0.000  0.026  0.027
   16  0.000  0.000  0.007  0.007
   17  0.001  0.000  0.029  0.030
   18  0.002  0.000  0.033  0.035
   19  0.000  0.000  0.002  0.003
   20  0.002  0.000  0.068  0.071
   21  0.001  0.000  0.079  0.080
   22  0.000  0.000  0.040  0.041
   23  0.000  0.000  0.087  0.087
   24  0.000  0.001  0.025  0.025
   25  0.000  0.001  0.025  0.027
   26  0.000  0.000  0.012  0.013
   27  0.000  0.000  0.052  0.052
   28  0.000  0.000  0.002  0.003
   29  0.000  0.000  0.007  0.008
   30  0.000  0.000  0.009  0.009
   31  0.000  0.000  0.007  0.008
   32  0.001  0.001  0.008  0.009
   33  0.001  0.001  0.009  0.011
   34  0.001  0.001  0.008  0.011
   35  0.000  0.000  0.002  0.002
   36  0.000  0.001  0.028  0.029
   37  0.000  0.002  0.000  0.002
tot    0.020  0.015  0.836  0.871
 
band    19 # energy   -5.28548381 # occ.  2.00000000
 
ion      s      p      d    tot
    1  0.000  0.000  0.002  0.002
    2  0.001  0.000  0.004  0.006
    3  0.002  0.001  0.005  0.007
    4  0.000  0.000  0.006  0.006
    5  0.000  0.001  0.012  0.012
    6  0.000  0.000  0.008  0.008
    7  0.001  0.001  0.006  0.008
    8  0.000  0.000  0.008  0.009
    9  0.000  0.000  0.010  0.011
   10  0.000  0.000  0.006  0.007
   11  0.002  0.000  0.042  0.044
   12  0.000  0.001  0.016  0.017
   13  0.001  0.000  0.055  0.056
   14  0.000  0.000  0.072  0.072
   15  0.002  0.000  0.032  0.035
   16  0.000  0.001  0.024  0.025
   17  0.001  0.000  0.030  0.031
   18  0.000  0.000  0.026  0.026
   19  0.000  0.001  0.024  0.025
   20  0.000  0.000  0.088  0.088
   21  0.001  0.000  0.077  0.079
   22  0.000  0.000  0.038  0.038
   23  0.002  0.000  0.069  0.071
   24  0.000  0.000  0.053  0.053
   25  0.000  0.000  0.001  0.002
   26  0.000  0.001  0.014  0.015
   27  0.000  0.001  0.026  0.027
   28  0.000  0.000  0.002  0.003
   29  0.001  0.001  0.009  0.011
   30  0.001  0.001  0.007  0.009
   31  0.001  0.001  0.009  0.011
   32  0.000  0.000  0.008  0.009
   33  0.000  0.000  0.007  0.008
   34  0.000  0.000  0.008  0.008
   35  0.000  0.000  0.002  0.002
   36  0.000  0.001  0.028  0.029
   37  0.000  0.002  0.000  0.002
tot    0.020  0.015  0.836  0.871
 
band    20 # energy   -5.27378835 # occ.  2.00000000
 
ion      s      p      d    tot
    1  0.001  0.000  0.000  0.002
    2  0.000  0.000  0.006  0.006
    3  0.000  0.000  0.006  0.006
    4  0.000  0.000  0.006  0.006
    5  0.000  0.000  0.009  0.009
    6  0.000  0.000  0.006  0.006
    7  0.000  0.000  0.006  0.006
    8  0.000  0.000  0.006  0.006
    9  0.002  0.001  0.008  0.011
   10  0.000  0.000  0.014  0.014
   11  0.001  0.001  0.060  0.062
   12  0.000  0.000  0.014  0.014
   13  0.001  0.001  0.061  0.062
   14  0.001  0.001  0.060  0.062
   15  0.000  0.001  0.043  0.043
   16  0.000  0.000  0.014  0.014
   17  0.000  0.001  0.043  0.043
   18  0.000  0.001  0.042  0.043
   19  0.000  0.000  0.018  0.018
   20  0.001  0.001  0.067  0.069
   21  0.001  0.001  0.067  0.068
   22  0.002  0.000  0.028  0.031
   23  0.001  0.001  0.067  0.069
   24  0.002  0.000  0.028  0.031
   25  0.000  0.000  0.017  0.018
   26  0.000  0.000  0.018  0.018
   27  0.002  0.000  0.028  0.031
   28  0.002  0.001  0.002  0.005
   29  0.000  0.000  0.012  0.013
   30  0.000  0.000  0.012  0.012
   31  0.000  0.000  0.012  0.013
   32  0.000  0.000  0.012  0.012
   33  0.000  0.000  0.012  0.013
   34  0.000  0.000  0.012  0.012
   35  0.003  0.000  0.004  0.008
   36  0.001  0.002  0.003  0.006
   37  0.002  0.001  0.000  0.002
tot    0.025  0.016  0.824  0.865
 
band    21 # energy   -5.25138054 # occ.  2.00000000
 
ion      s      p      d    tot
    1  0.000  0.000  0.007  0.008
    2  0.000  0.000  0.011  0.011
    3  0.000  0.000  0.011  0.011
    4  0.000  0.000  0.011  0.011
    5  0.004  0.001  0.001  0.005
    6  0.000  0.000  0.011  0.011
    7  0.000  0.000  0.011  0.011
    8  0.000  0.000  0.011  0.011
    9  0.001  0.000  0.003  0.005
   10  0.002  0.001  0.052  0.054
   11  0.000  0.000  0.025  0.025
   12  0.002  0.001  0.052  0.054
   13  0.000  0.000  0.025  0.025
   14  0.000  0.000  0.025  0.025
   15  0.002  0.000  0.028  0.030
   16  0.002  0.001  0.052  0.055
   17  0.002  0.000  0.028  0.030
   18  0.002  0.000  0.028  0.031
   19  0.002  0.000  0.051  0.053
   20  0.001  0.000  0.015  0.016
   21  0.001  0.000  0.015  0.016
   22  0.000  0.001  0.048  0.049
   23  0.001  0.000  0.015  0.016
   24  0.000  0.001  0.048  0.049
   25  0.002  0.000  0.052  0.054
   26  0.002  0.000  0.051  0.053
   27  0.000  0.001  0.048  0.049
   28  0.000  0.000  0.012  0.012
   29  0.000  0.000  0.010  0.010
   30  0.000  0.000  0.010  0.010
   31  0.000  0.000  0.010  0.010
   32  0.000  0.000  0.010  0.010
   33  0.000  0.000  0.010  0.010
   34  0.000  0.000  0.010  0.010
   35  0.004  0.001  0.004  0.009
   36  0.003  0.001  0.000  0.004