PROCAR new format
# of k-points:   10         # of bands:  252         # of ions:   37

 k-point     1 :    0.00000000 0.00000000 0.00000000     weight = 0.01562500

band     1 # energy  -13.85366036 # occ.  2.00000000
 
ion      s      p      d    tot
    1  0.000  0.000  0.000  0.000
    2  0.000  0.000  0.000  0.000
    3  0.000  0.000  0.000  0.000
    4  0.000  0.000  0.000  0.000
    5  0.000  0.000  0.000  0.000
    6  0.000  0.000  0.000  0.000
    7  0.000  0.000  0.000  0.000
    8  0.000  0.000  0.000  0.000
    9  0.000  0.000  0.000  0.000
   10  0.000  0.000  0.000  0.000
   11  0.000  0.000  0.000  0.000
   12  0.000  0.000  0.000  0.000
   13  0.000  0.000  0.000  0.000
   14  0.000  0.000  0.000  0.000
   15  0.000  0.000  0.000  0.000
   16  0.000  0.000  0.000  0.000
   17  0.000  0.000  0.000  0.000
   18  0.000  0.000  0.000  0.000
   19  0.000  0.000  0.000  0.000
   20  0.000  0.000  0.000  0.000
   21  0.000  0.000  0.000  0.000
   22  0.000  0.000  0.000  0.000
   23  0.000  0.000  0.000  0.000
   24  0.000  0.000  0.000  0.000
   25  0.000  0.000  0.000  0.000
   26  0.000  0.000  0.000  0.000
   27  0.000  0.000  0.000  0.000
   28  0.000  0.000  0.000  0.000
   29  0.000  0.000  0.000  0.001
   30  0.000  0.000  0.000  0.001
   31  0.000  0.000  0.000  0.001
   32  0.000  0.000  0.000  0.001
   33  0.000  0.000  0.000  0.001
   34  0.000  0.000  0.000  0.001
   35  0.000  0.000  0.000  0.000
   36  0.078  0.080  0.114  0.272
   37  0.629  0.018  0.000  0.647
tot    0.709  0.100  0.115  0.924
 
band     2 # energy   -8.75810994 # occ.  2.00000000
 
ion      s      p      d    tot
    1  0.007  0.001  0.000  0.008
    2  0.007  0.001  0.000  0.008
    3  0.007  0.001  0.000  0.008
    4  0.007  0.001  0.000  0.008
    5  0.007  0.001  0.000  0.008
    6  0.007  0.001  0.000  0.008
    7  0.007  0.001  0.000  0.008
    8  0.007  0.001  0.000  0.008
    9  0.007  0.001  0.000  0.008
   10  0.025  0.000  0.000  0.026
   11  0.026  0.000  0.000  0.026
   12  0.025  0.000  0.000  0.026
   13  0.026  0.000  0.000  0.026
   14  0.026  0.000  0.000  0.026
   15  0.025  0.000  0.000  0.025
   16  0.025  0.000  0.000  0.026
   17  0.025  0.000  0.000  0.025
   18  0.025  0.000  0.000  0.025
   19  0.024  0.000  0.000  0.024
   20  0.025  0.000  0.000  0.025
   21  0.025  0.000  0.000  0.025
   22  0.024  0.000  0.000  0.025
   23  0.025  0.000  0.000  0.025
   24  0.024  0.000  0.000  0.025
   25  0.024  0.000  0.000  0.024
   26  0.024  0.000  0.000  0.024
   27  0.024  0.000  0.000  0.025
   28  0.006  0.001  0.000  0.007
   29  0.006  0.001  0.000  0.007
   30  0.006  0.001  0.000  0.007
   31  0.006  0.001  0.000  0.007
   32  0.006  0.001  0.000  0.007
   33  0.006  0.001  0.000  0.007
   34  0.006  0.001  0.000  0.007
   35  0.006  0.001  0.000  0.007
   36  0.005  0.002  0.000  0.007
   37  0.001  0.000  0.000  0.002
tot    0.563  0.018  0.001  0.583
 
band     3 # energy   -7.41777352 # occ.  2.00000000
 
ion      s      p      d    tot
    1  0.019  0.001  0.001  0.020
    2  0.019  0.001  0.001  0.020
    3  0.019  0.001  0.001  0.020
    4  0.019  0.001  0.001  0.020
    5  0.019  0.001  0.001  0.020
    6  0.019  0.001  0.001  0.020
    7  0.019  0.001  0.001  0.020
    8  0.019  0.001  0.001  0.020
    9  0.019  0.001  0.001  0.020
   10  0.009  0.002  0.001  0.012
   11  0.009  0.002  0.001  0.012
   12  0.009  0.002  0.001  0.012
   13  0.009  0.002  0.001  0.012
   14  0.009  0.002  0.001  0.012
   15  0.009  0.003  0.001  0.012
   16  0.009  0.002  0.001  0.012
   17  0.009  0.003  0.001  0.012
   18  0.009  0.003  0.001  0.012
   19  0.012  0.002  0.001  0.015
   20  0.011  0.002  0.001  0.014
   21  0.011  0.002  0.001  0.014
   22  0.012  0.002  0.001  0.015
   23  0.011  0.002  0.001  0.014
   24  0.012  0.002  0.001  0.015
   25  0.012  0.002  0.001  0.015
   26  0.012  0.002  0.001  0.015
   27  0.012  0.002  0.001  0.015
   28  0.018  0.001  0.000  0.019
   29  0.017  0.001  0.000  0.018
   30  0.017  0.001  0.000  0.018
   31  0.017  0.001  0.000  0.018
   32  0.017  0.001  0.000  0.018
   33  0.017  0.001  0.000  0.018
   34  0.017  0.001  0.000  0.018
   35  0.018  0.001  0.000  0.019
   36  0.011  0.003  0.003  0.017
   37  0.003  0.000  0.000  0.003
tot    0.504  0.058  0.022  0.584
 
band     4 # energy   -5.82640518 # occ.  2.00000000
 
ion      s      p      d    tot
    1  0.012  0.000  0.003  0.015
    2  0.008  0.001  0.005  0.014
    3  0.008  0.001  0.005  0.014
    4  0.008  0.001  0.005  0.014
    5  0.000  0.002  0.005  0.007
    6  0.008  0.001  0.005  0.014
    7  0.008  0.001  0.005  0.014
    8  0.008  0.001  0.005  0.014
    9  0.025  0.001  0.001  0.027
   10  0.001  0.003  0.005  0.009
   11  0.023  0.007  0.001  0.031
   12  0.001  0.003  0.005  0.009
   13  0.023  0.007  0.001  0.031
   14  0.023  0.007  0.001  0.031
   15  0.003  0.001  0.007  0.012
   16  0.001  0.003  0.005  0.009
   17  0.003  0.001  0.007  0.012
   18  0.003  0.001  0.007  0.012
   19  0.000  0.001  0.008  0.010
   20  0.031  0.007  0.003  0.040
   21  0.031  0.007  0.003  0.040
   22  0.001  0.005  0.004  0.010
   23  0.031  0.007  0.003  0.040
   24  0.001  0.005  0.004  0.010
   25  0.000  0.001  0.008  0.010
   26  0.000  0.001  0.008  0.010
   27  0.001  0.005  0.004  0.010
   28  0.018  0.000  0.002  0.020
   29  0.009  0.001  0.005  0.016
   30  0.009  0.001  0.005  0.016
   31  0.009  0.001  0.005  0.016
   32  0.009  0.001  0.005  0.016
   33  0.009  0.001  0.005  0.016
   34  0.009  0.001  0.005  0.016
   35  0.025  0.000  0.002  0.028
   36  0.001  0.002  0.022  0.025
   37  0.000  0.003  0.000  0.004
tot    0.364  0.092  0.181  0.637
 
band     5 # energy   -5.78474927 # occ.  2.00000000
 
ion      s      p      d    tot
    1  0.000  0.002  0.005  0.006
    2  0.008  0.002  0.002  0.013
    3  0.000  0.001  0.002  0.003
    4  0.008  0.002  0.002  0.012
    5  0.000  0.003  0.004  0.008
    6  0.006  0.002  0.002  0.010
    7  0.000  0.001  0.002  0.003
    8  0.006  0.002  0.002  0.010
    9  0.000  0.000  0.002  0.002
   10  0.047  0.005  0.003  0.054
   11  0.012  0.008  0.006  0.027
   12  0.011  0.001  0.013  0.025
   13  0.011  0.008  0.006  0.026
   14  0.046  0.001  0.006  0.053
   15  0.000  0.007  0.005  0.012
   16  0.012  0.001  0.013  0.026
   17  0.000  0.007  0.005  0.012
   18  0.000  0.001  0.004  0.006
   19  0.003  0.010  0.003  0.015
   20  0.066  0.003  0.006  0.074
   21  0.016  0.005  0.012  0.032
   22  0.005  0.002  0.011  0.019
   23  0.017  0.005  0.012  0.034
   24  0.023  0.004  0.002  0.029
   25  0.010  0.000  0.006  0.016
   26  0.002  0.010  0.003  0.015
   27  0.006  0.002  0.011  0.020
   28  0.000  0.001  0.003  0.004
   29  0.010  0.003  0.003  0.016
   30  0.001  0.001  0.002  0.004
   31  0.010  0.003  0.003  0.015
   32  0.005  0.002  0.002  0.009
   33  0.001  0.001  0.002  0.004
   34  0.005  0.002  0.002  0.009
   35  0.000  0.000  0.003  0.004
   36  0.000  0.005  0.007  0.012
   37  0.000  0.000  0.000  0.000
tot    0.347  0.117  0.179  0.642
 
band     6 # energy   -5.78464804 # occ.  2.00000000
 
ion      s      p      d    tot
    1  0.000  0.002  0.005  0.006
    2  0.001  0.001  0.002  0.005
    3  0.010  0.002  0.002  0.014
    4  0.002  0.001  0.002  0.005
    5  0.000  0.003  0.004  0.008
    6  0.004  0.001  0.002  0.007
    7  0.009  0.002  0.002  0.014
    8  0.003  0.001  0.002  0.007
    9  0.000  0.000  0.002  0.002
   10  0.000  0.000  0.016  0.016
   11  0.034  0.004  0.006  0.044
   12  0.036  0.004  0.006  0.045
   13  0.035  0.004  0.006  0.045
   14  0.000  0.011  0.006  0.017
   15  0.000  0.003  0.005  0.008
   16  0.035  0.004  0.006  0.044
   17  0.000  0.003  0.005  0.008
   18  0.000  0.009  0.005  0.014
   19  0.007  0.004  0.005  0.016
   20  0.000  0.006  0.014  0.019
   21  0.050  0.004  0.008  0.061
   22  0.017  0.004  0.005  0.026
   23  0.048  0.004  0.008  0.060
   24  0.000  0.002  0.014  0.016
   25  0.000  0.013  0.002  0.015
   26  0.007  0.003  0.005  0.016
   27  0.017  0.004  0.005  0.026
   28  0.000  0.001  0.003  0.004
   29  0.001  0.001  0.002  0.004
   30  0.010  0.003  0.003  0.015
   31  0.001  0.001  0.002  0.004
   32  0.006  0.002  0.003  0.010
   33  0.010  0.002  0.003  0.015
   34  0.005  0.002  0.003  0.010
   35  0.000  0.000  0.003  0.004
   36  0.000  0.005  0.007  0.012
   37  0.000  0.000  0.000  0.000
tot    0.347  0.117  0.179  0.642
 
band     7 # energy   -5.75796967 # occ.  2.00000000
 
ion      s      p      d    tot
    1  0.022  0.003  0.001  0.026
    2  0.000  0.002  0.004  0.006
    3  0.000  0.002  0.004  0.006
    4  0.000  0.002  0.004  0.006
    5  0.001  0.000  0.001  0.002
    6  0.000  0.002  0.004  0.006
    7  0.000  0.002  0.004  0.006
    8  0.000  0.002  0.004  0.006
    9  0.009  0.002  0.000  0.011
   10  0.029  0.005  0.006  0.041
   11  0.005  0.000  0.012  0.017
   12  0.029  0.005  0.006  0.041
   13  0.005  0.000  0.012  0.017
   14  0.005  0.000  0.012  0.017
   15  0.013  0.008  0.003  0.025
   16  0.029  0.005  0.006  0.041
   17  0.013  0.008  0.003  0.025
   18  0.013  0.008  0.003  0.025
   19  0.021  0.009  0.002  0.033
   20  0.000  0.002  0.010  0.013
   21  0.000  0.002  0.010  0.013
   22  0.025  0.003  0.009  0.037
   23  0.000  0.002  0.010  0.013
   24  0.025  0.003  0.009  0.037
   25  0.021  0.009  0.002  0.032
   26  0.021  0.009  0.002  0.033
   27  0.025  0.003  0.009  0.037
   28  0.019  0.003  0.000  0.022
   29  0.000  0.002  0.004  0.005
   30  0.000  0.002  0.004  0.005
   31  0.000  0.002  0.004  0.006
   32  0.000  0.002  0.004  0.005
   33  0.000  0.002  0.004  0.005
   34  0.000  0.002  0.004  0.005
   35  0.011  0.002  0.002  0.015
   36  0.000  0.000  0.000  0.000
   37  0.000  0.000  0.000  0.000
tot    0.345  0.115  0.179  0.639
 
band     8 # energy   -5.75246973 # occ.  2.00000000
 
ion      s      p      d    tot
    1  0.000  0.002  0.003  0.005
    2  0.009  0.002  0.002  0.014
    3  0.000  0.001  0.002  0.003
    4  0.009  0.002  0.002  0.014
    5  0.000  0.000  0.003  0.004
    6  0.007  0.002  0.003  0.011
    7  0.000  0.001  0.002  0.003
    8  0.007  0.002  0.003  0.011
    9  0.000  0.003  0.006  0.009
   10  0.000  0.014  0.002  0.015
   11  0.012  0.004  0.005  0.021
   12  0.012  0.003  0.006  0.021
   13  0.012  0.004  0.005  0.021
   14  0.000  0.003  0.013  0.016
   15  0.048  0.004  0.007  0.058
   16  0.012  0.004  0.005  0.021
   17  0.049  0.004  0.007  0.059
   18  0.000  0.004  0.014  0.018
   19  0.039  0.004  0.006  0.049
   20  0.000  0.008  0.007  0.015
   21  0.001  0.003  0.005  0.009
   22  0.030  0.004  0.006  0.040
   23  0.001  0.004  0.005  0.009
   24  0.000  0.012  0.005  0.017
   25  0.000  0.000  0.017  0.017
   26  0.040  0.004  0.006  0.049
   27  0.030  0.004  0.006  0.040
   28  0.000  0.002  0.005  0.007
   29  0.009  0.002  0.002  0.014
   30  0.001  0.001  0.002  0.004
   31  0.009  0.002  0.002  0.014
   32  0.004  0.001  0.002  0.008
   33  0.001  0.001  0.002  0.004
   34  0.004  0.001  0.002  0.008
   35  0.000  0.003  0.004  0.007
   36  0.000  0.000  0.002  0.002
   37  0.000  0.000  0.000  0.000
tot    0.345  0.116  0.178  0.639
 
band     9 # energy   -5.75238545 # occ.  2.00000000
 
ion      s      p      d    tot
    1  0.000  0.002  0.003  0.005
    2  0.002  0.001  0.002  0.005
    3  0.010  0.003  0.003  0.016
    4  0.002  0.001  0.002  0.005
    5  0.000  0.000  0.003  0.004
    6  0.004  0.001  0.002  0.008
    7  0.010  0.003  0.003  0.016
    8  0.004  0.001  0.002  0.007
    9  0.000  0.003  0.006  0.009
   10  0.016  0.000  0.007  0.023
   11  0.004  0.003  0.010  0.018
   12  0.004  0.011  0.003  0.017
   13  0.004  0.003  0.010  0.018
   14  0.016  0.004  0.003  0.023
   15  0.017  0.004  0.012  0.032
   16  0.004  0.010  0.003  0.017
   17  0.016  0.004  0.012  0.031
   18  0.064  0.004  0.004  0.072
   19  0.014  0.001  0.013  0.028
   20  0.001  0.002  0.005  0.007
   21  0.000  0.007  0.006  0.013
   22  0.010  0.009  0.005  0.024
   23  0.000  0.007  0.006  0.013
   24  0.040  0.001  0.007  0.048
   25  0.052  0.005  0.003  0.060
   26  0.013  0.001  0.013  0.028
   27  0.010  0.009  0.005  0.025
   28  0.000  0.002  0.005  0.007
   29  0.000  0.001  0.002  0.003
   30  0.009  0.002  0.002  0.013
   31  0.000  0.001  0.002  0.003
   32  0.005  0.002  0.002  0.010
   33  0.009  0.002  0.002  0.013
   34  0.005  0.002  0.002  0.009
   35  0.000  0.003  0.004  0.007
   36  0.000  0.000  0.002  0.002
   37  0.000  0.000  0.000  0.000
tot    0.345  0.116  0.178  0.639
 
band    10 # energy   -5.70798904 # occ.  2.00000000
 
ion      s      p      d    tot
    1  0.003  0.000  0.004  0.007
    2  0.009  0.001  0.007  0.016
    3  0.009  0.001  0.007  0.016
    4  0.009  0.001  0.007  0.016
    5  0.042  0.001  0.002  0.045
    6  0.009  0.001  0.007  0.016
    7  0.009  0.001  0.007  0.016
    8  0.009  0.001  0.007  0.016
    9  0.000  0.001  0.007  0.009
   10  0.007  0.004  0.006  0.017
   11  0.006  0.006  0.006  0.018
   12  0.007  0.004  0.006  0.017
   13  0.006  0.006  0.006  0.018
   14  0.006  0.006  0.006  0.018
   15  0.023  0.003  0.007  0.033
   16  0.007  0.004  0.006  0.017
   17  0.023  0.003  0.007  0.033
   18  0.023  0.003  0.007  0.033
   19  0.010  0.003  0.005  0.019
   20  0.007  0.004  0.005  0.016
   21  0.007  0.004  0.005  0.016
   22  0.007  0.006  0.003  0.016
   23  0.007  0.004  0.005  0.016
   24  0.007  0.006  0.003  0.016
   25  0.010  0.003  0.005  0.019
   26  0.010  0.003  0.005  0.019
   27  0.007  0.006  0.003  0.016
   28  0.004  0.000  0.005  0.009
   29  0.009  0.000  0.004  0.014
   30  0.009  0.000  0.004  0.014
   31  0.009  0.000  0.004  0.014
   32  0.009  0.000  0.004  0.014
   33  0.009  0.000  0.004  0.014
   34  0.009  0.000  0.004  0.014
   35  0.003  0.000  0.004  0.007
   36  0.021  0.003  0.004  0.029
   37  0.003  0.000  0.000  0.003
tot    0.361  0.093  0.190  0.645
 
band    11 # energy   -5.04677011 # occ.  2.00000000
 
ion      s      p      d    tot
    1  0.010  0.000  0.006  0.017
    2  0.004  0.001  0.009  0.014
    3  0.004  0.001  0.009  0.014
    4  0.004  0.001  0.009  0.014
    5  0.003  0.003  0.008  0.014
    6  0.004  0.001  0.009  0.014
    7  0.004  0.001  0.009  0.014
    8  0.004  0.001  0.009  0.014
    9  0.018  0.000  0.004  0.023
   10  0.004  0.000  0.023  0.027
   11  0.016  0.002  0.018  0.035
   12  0.004  0.000  0.023  0.027
   13  0.016  0.002  0.018  0.035
   14  0.016  0.002  0.017  0.035
   15  0.000  0.001  0.018  0.019
   16  0.004  0.000  0.023  0.027
   17  0.000  0.001  0.018  0.019
   18  0.000  0.001  0.018  0.019
   19  0.001  0.000  0.015  0.016
   20  0.013  0.002  0.027  0.043
   21  0.013  0.002  0.027  0.043
   22  0.002  0.000  0.019  0.021
   23  0.013  0.002  0.027  0.043
   24  0.002  0.000  0.019  0.021
   25  0.001  0.000  0.015  0.016
   26  0.001  0.000  0.015  0.016
   27  0.002  0.000  0.019  0.021
   28  0.007  0.000  0.003  0.010
   29  0.003  0.001  0.007  0.010
   30  0.003  0.001  0.007  0.010
   31  0.003  0.001  0.007  0.010
   32  0.003  0.001  0.007  0.010
   33  0.003  0.001  0.007  0.010
   34  0.003  0.001  0.007  0.010
   35  0.011  0.000  0.004  0.015
   36  0.005  0.003  0.036  0.044
   37  0.001  0.012  0.000  0.013
tot    0.204  0.045  0.517  0.765
 
band    12 # energy   -5.00196993 # occ.  2.00000000
 
ion      s      p      d    tot
    1  0.000  0.002  0.010  0.011
    2  0.017  0.003  0.005  0.026
    3  0.000  0.002  0.005  0.007
    4  0.017  0.003  0.005  0.025
    5  0.000  0.006  0.009  0.015
    6  0.014  0.003  0.005  0.023
    7  0.000  0.002  0.005  0.007
    8  0.016  0.003  0.005  0.024
    9  0.000  0.001  0.012  0.014
   10  0.013  0.004  0.009  0.026
   11  0.006  0.002  0.021  0.029
   12  0.003  0.001  0.015  0.019
   13  0.005  0.002  0.022  0.029
   14  0.021  0.004  0.005  0.030
   15  0.000  0.003  0.016  0.019
   16  0.004  0.002  0.015  0.020
   17  0.000  0.003  0.017  0.020
   18  0.001  0.000  0.008  0.009
   19  0.000  0.003  0.017  0.020
   20  0.019  0.005  0.005  0.029
   21  0.004  0.002  0.026  0.032
   22  0.002  0.001  0.013  0.017
   23  0.005  0.002  0.024  0.032
   24  0.011  0.004  0.010  0.025
   25  0.001  0.000  0.007  0.009
   26  0.000  0.003  0.017  0.020
   27  0.003  0.002  0.013  0.018
   28  0.000  0.001  0.011  0.013
   29  0.017  0.003  0.005  0.025
   30  0.000  0.002  0.005  0.007
   31  0.016  0.003  0.005  0.024
   32  0.017  0.003  0.005  0.025
   33  0.000  0.002  0.005  0.007
   34  0.018  0.003  0.005  0.026
   35  0.000  0.002  0.009  0.010
   36  0.000  0.010  0.003  0.013
   37  0.000  0.002  0.000  0.002
tot    0.230  0.099  0.375  0.704
 
band    13 # energy   -5.00193950 # occ.  2.00000000
 
ion      s      p      d    tot
    1  0.000  0.002  0.010  0.011
    2  0.004  0.002  0.005  0.011
    3  0.021  0.004  0.005  0.031
    4  0.005  0.002  0.005  0.012
    5  0.000  0.006  0.009  0.015
    6  0.007  0.002  0.005  0.014
    7  0.021  0.004  0.005  0.031
    8  0.006  0.002  0.005  0.013
    9  0.000  0.001  0.012  0.014
   10  0.000  0.001  0.017  0.017
   11  0.015  0.004  0.011  0.030
   12  0.010  0.003  0.011  0.024
   13  0.016  0.004  0.010  0.030
   14  0.000  0.001  0.027  0.029
   15  0.001  0.001  0.011  0.013
   16  0.009  0.003  0.011  0.023
   17  0.001  0.001  0.010  0.012
   18  0.000  0.004  0.019  0.023
   19  0.001  0.001  0.011  0.013
   20  0.000  0.001  0.032  0.033
   21  0.015  0.004  0.011  0.030
   22  0.008  0.003  0.011  0.022
   23  0.014  0.004  0.012  0.030
   24  0.000  0.001  0.014  0.015
   25  0.000  0.003  0.020  0.024
   26  0.001  0.001  0.010  0.012
   27  0.008  0.003  0.011  0.022
   28  0.000  0.001  0.011  0.013
   29  0.006  0.002  0.005  0.013
   30  0.022  0.004  0.005  0.031
   31  0.007  0.002  0.005  0.014
   32  0.006  0.002  0.005  0.013
   33  0.022  0.004  0.005  0.031
   34  0.005  0.002  0.005  0.012
   35  0.000  0.002  0.009  0.010
   36  0.000  0.010  0.003  0.013
   37  0.000  0.002  0.000  0.002
tot    0.230  0.099  0.375  0.704
 
band    14 # energy   -4.98165142 # occ.  2.00000000
 
ion      s      p      d    tot
    1  0.035  0.003  0.000  0.039
    2  0.000  0.003  0.010  0.014
    3  0.000  0.003  0.010  0.014
    4  0.000  0.003  0.010  0.014
    5  0.000  0.000  0.000  0.000
    6  0.000  0.003  0.010  0.014
    7  0.000  0.003  0.010  0.014
    8  0.000  0.003  0.010  0.014
    9  0.030  0.003  0.000  0.034
   10  0.009  0.004  0.011  0.023
   11  0.001  0.000  0.015  0.016
   12  0.009  0.004  0.011  0.023
   13  0.001  0.000  0.015  0.016
   14  0.001  0.000  0.015  0.016
   15  0.006  0.003  0.019  0.028
   16  0.009  0.004  0.011  0.023
   17  0.006  0.003  0.019  0.028
   18  0.006  0.003  0.019  0.028
   19  0.006  0.004  0.016  0.026
   20  0.000  0.000  0.017  0.018
   21  0.000  0.000  0.017  0.017
   22  0.011  0.003  0.011  0.025
   23  0.000  0.000  0.017  0.017
   24  0.011  0.003  0.011  0.025
   25  0.006  0.004  0.016  0.026
   26  0.006  0.004  0.016  0.026
   27  0.011  0.003  0.011  0.025
   28  0.035  0.003  0.000  0.039
   29  0.000  0.003  0.009  0.012
   30  0.000  0.003  0.009  0.012
   31  0.000  0.003  0.009  0.012
   32  0.000  0.003  0.009  0.012
   33  0.000  0.003  0.009  0.012
   34  0.000  0.003  0.009  0.012
   35  0.025  0.003  0.001  0.030
   36  0.000  0.000  0.000  0.000
   37  0.000  0.000  0.000  0.000
tot    0.226  0.092  0.389  0.706
 
band    15 # energy   -4.96996484 # occ.  2.00000000
 
ion      s      p      d    tot
    1  0.000  0.004  0.011  0.016
    2  0.017  0.003  0.005  0.026
    3  0.000  0.002  0.005  0.007
    4  0.017  0.003  0.005  0.026
    5  0.000  0.000  0.012  0.012
    6  0.015  0.003  0.006  0.024
    7  0.000  0.002  0.005  0.007
    8  0.015  0.003  0.006  0.024
    9  0.000  0.005  0.008  0.013
   10  0.000  0.003  0.029  0.032
   11  0.001  0.001  0.012  0.014
   12  0.007  0.002  0.011  0.020
   13  0.001  0.001  0.012  0.014
   14  0.000  0.002  0.015  0.017
   15  0.014  0.004  0.011  0.030
   16  0.007  0.002  0.011  0.020
   17  0.015  0.004  0.011  0.030
   18  0.000  0.000  0.022  0.022
   19  0.016  0.004  0.011  0.031
   20  0.000  0.003  0.017  0.020
   21  0.001  0.002  0.012  0.015
   22  0.009  0.002  0.010  0.022
   23  0.001  0.002  0.012  0.015
   24  0.000  0.003  0.026  0.029
   25  0.000  0.000  0.023  0.023
   26  0.017  0.004  0.010  0.031
   27  0.009  0.002  0.011  0.022
   28  0.000  0.005  0.008  0.012
   29  0.015  0.003  0.005  0.023
   30  0.000  0.002  0.005  0.007
   31  0.015  0.003  0.005  0.023
   32  0.016  0.003  0.005  0.023
   33  0.000  0.002  0.005  0.007
   34  0.016  0.003  0.005  0.024
   35  0.000  0.004  0.010  0.014
   36  0.000  0.000  0.008  0.008
   37  0.000  0.000  0.000  0.000
tot    0.225  0.093  0.386  0.704
 
band    16 # energy   -4.96993812 # occ.  2.00000000
 
ion      s      p      d    tot
    1  0.000  0.004  0.011  0.016
    2  0.004  0.002  0.005  0.012
    3  0.021  0.004  0.006  0.031
    4  0.004  0.002  0.005  0.012
    5  0.000  0.000  0.012  0.012
    6  0.007  0.002  0.005  0.014
    7  0.021  0.004  0.006  0.031
    8  0.006  0.002  0.005  0.014
    9  0.000  0.005  0.008  0.013
   10  0.009  0.002  0.005  0.016
   11  0.000  0.002  0.014  0.016
   12  0.002  0.003  0.023  0.028
   13  0.000  0.002  0.014  0.016
   14  0.002  0.001  0.010  0.014
   15  0.005  0.002  0.019  0.025
   16  0.002  0.003  0.023  0.028
   17  0.005  0.001  0.019  0.025
   18  0.019  0.006  0.007  0.033
   19  0.006  0.001  0.019  0.026
   20  0.002  0.001  0.011  0.014
   21  0.000  0.002  0.015  0.018
   22  0.003  0.003  0.021  0.027
   23  0.000  0.002  0.015  0.018
   24  0.012  0.002  0.006  0.019
   25  0.022  0.005  0.006  0.034
   26  0.005  0.001  0.019  0.026
   27  0.003  0.003  0.020  0.026
   28  0.000  0.005  0.008  0.012
   29  0.005  0.002  0.005  0.013
   30  0.020  0.004  0.005  0.029
   31  0.006  0.002  0.005  0.013
   32  0.005  0.002  0.005  0.012
   33  0.020  0.004  0.005  0.029
   34  0.005  0.002  0.005  0.012
   35  0.000  0.004  0.010  0.014
   36  0.000  0.000  0.008  0.008
   37  0.000  0.000  0.000  0.000
tot    0.225  0.093  0.386  0.704
 
band    17 # energy   -4.90461068 # occ.  2.00000000
 
ion      s      p      d    tot
    1  0.005  0.001  0.002  0.008
    2  0.001  0.002  0.010  0.013
    3  0.001  0.002  0.010  0.013
    4  0.001  0.002  0.010  0.013
    5  0.041  0.002  0.001  0.044
    6  0.001  0.002  0.010  0.013
    7  0.001  0.002  0.010  0.013
    8  0.001  0.002  0.010  0.013
    9  0.003  0.001  0.003  0.007
   10  0.003  0.001  0.020  0.024
   11  0.001  0.003  0.019  0.024
   12  0.003  0.001  0.020  0.024
   13  0.001  0.003  0.019  0.024
   14  0.001  0.003  0.019  0.024
   15  0.007  0.001  0.014  0.023
   16  0.003  0.001  0.020  0.024
   17  0.007  0.001  0.014  0.023
   18  0.008  0.001  0.014  0.023
   19  0.013  0.000  0.021  0.034
   20  0.003  0.004  0.018  0.024
   21  0.003  0.004  0.018  0.024
   22  0.005  0.001  0.020  0.026
   23  0.003  0.004  0.018  0.024
   24  0.005  0.001  0.020  0.026
   25  0.013  0.000  0.021  0.034
   26  0.013  0.000  0.021  0.034
   27  0.005  0.001  0.020  0.026
   28  0.000  0.002  0.008  0.010
   29  0.003  0.002  0.010  0.015
   30  0.003  0.002  0.010  0.015
   31  0.003  0.002  0.010  0.015
   32  0.003  0.002  0.010  0.015
   33  0.003  0.002  0.010  0.015
   34  0.003  0.002  0.010  0.015
   35  0.001  0.002  0.005  0.008
   36  0.036  0.004  0.002  0.042
   37  0.003  0.003  0.000  0.006
tot    0.209  0.068  0.476  0.753
 
band    18 # energy   -4.42019567 # occ.  2.00000000
 
ion      s      p      d    tot
    1  0.000  0.001  0.001  0.002
    2  0.006  0.001  0.004  0.010
    3  0.005  0.001  0.004  0.009
    4  0.006  0.001  0.004  0.010
    5  0.000  0.001  0.011  0.011
    6  0.000  0.000  0.003  0.004
    7  0.005  0.001  0.004  0.009
    8  0.000  0.000  0.003  0.004
    9  0.000  0.000  0.009  0.010
   10  0.000  0.004  0.009  0.013
   11  0.000  0.000  0.021  0.021
   12  0.000  0.001  0.006  0.007
   13  0.000  0.000  0.021  0.022
   14  0.000  0.001  0.001  0.001
   15  0.000  0.000  0.007  0.008
   16  0.000  0.001  0.006  0.007
   17  0.000  0.000  0.007  0.008
   18  0.000  0.001  0.007  0.008
   19  0.000  0.000  0.021  0.022
   20  0.003  0.002  0.024  0.029
   21  0.001  0.001  0.015  0.016
   22  0.000  0.000  0.016  0.016
   23  0.001  0.001  0.015  0.016
   24  0.000  0.000  0.005  0.005
   25  0.000  0.001  0.003  0.004
   26  0.000  0.000  0.021  0.022
   27  0.000  0.000  0.016  0.016
   28  0.000  0.002  0.015  0.017
   29  0.018  0.002  0.014  0.034
   30  0.001  0.001  0.011  0.013
   31  0.018  0.002  0.014  0.034
   32  0.011  0.002  0.011  0.024
   33  0.001  0.001  0.011  0.013
   34  0.011  0.002  0.011  0.024
   35  0.000  0.000  0.023  0.023
   36  0.000  0.015  0.142  0.157
   37  0.000  0.111  0.000  0.111
tot    0.087  0.157  0.516  0.760
 
band    19 # energy   -4.42015813 # occ.  2.00000000
 
ion      s      p      d    tot
    1  0.000  0.001  0.001  0.002
    2  0.001  0.000  0.003  0.005
    3  0.002  0.000  0.003  0.006
    4  0.001  0.000  0.003  0.005
    5  0.000  0.001  0.011  0.011
    6  0.007  0.001  0.004  0.012
    7  0.002  0.000  0.003  0.006
    8  0.007  0.001  0.004  0.012
    9  0.000  0.000  0.009  0.010
   10  0.000  0.000  0.006  0.006
   11  0.000  0.000  0.008  0.008
   12  0.000  0.003  0.008  0.011
   13  0.000  0.000  0.007  0.008
   14  0.000  0.000  0.028  0.028
   15  0.000  0.001  0.007  0.008
   16  0.000  0.003  0.008  0.011
   17  0.000  0.001  0.007  0.008
   18  0.000  0.000  0.007  0.007
   19  0.000  0.001  0.009  0.010
   20  0.000  0.000  0.012  0.012
   21  0.002  0.002  0.021  0.025
   22  0.000  0.000  0.009  0.009
   23  0.002  0.002  0.021  0.025
   24  0.000  0.000  0.020  0.020
   25  0.000  0.000  0.028  0.028
   26  0.000  0.001  0.009  0.010
   27  0.000  0.000  0.009  0.009
   28  0.000  0.002  0.015  0.017
   29  0.002  0.001  0.010  0.013
   30  0.019  0.002  0.013  0.035
   31  0.002  0.001  0.010  0.013
   32  0.009  0.001  0.013  0.023
   33  0.019  0.002  0.013  0.035
   34  0.009  0.001  0.013  0.023
   35  0.000  0.000  0.023  0.023
   36  0.000  0.015  0.142  0.157
   37  0.000  0.111  0.000  0.111
tot    0.087  0.157  0.516  0.760
 
band    20 # energy   -4.28980846 # occ.  2.00000000
 
ion      s      p      d    tot
    1  0.000  0.000  0.037  0.037
    2  0.010  0.001  0.011  0.022
    3  0.014  0.001  0.010  0.025
    4  0.010  0.001  0.011  0.022
    5  0.000  0.002  0.004  0.006
    6  0.000  0.001  0.010  0.011
    7  0.014  0.001  0.010  0.025
    8  0.000  0.001  0.010  0.011
    9  0.000  0.002  0.017  0.020
   10  0.000  0.000  0.048  0.048
   11  0.001  0.005  0.018  0.024
   12  0.000  0.001  0.020  0.021
   13  0.001  0.005  0.018  0.024
   14  0.000  0.000  0.008  0.008
   15  0.001  0.002  0.017  0.020
   16  0.000  0.001  0.020  0.020
   17  0.001  0.002  0.017  0.021
   18  0.000  0.000  0.048  0.048
   19  0.000  0.003  0.016  0.019
   20  0.000  0.000  0.077  0.077
   21  0.000  0.000  0.023  0.024
   22  0.001  0.005  0.019  0.024
   23  0.000  0.000  0.022  0.023
   24  0.000  0.000  0.022  0.022
   25  0.000  0.000  0.014  0.015
   26  0.000  0.003  0.016  0.019
   27  0.001  0.005  0.019  0.024
   28  0.000  0.001  0.014  0.014
   29  0.014  0.001  0.008  0.023
   30  0.002  0.001  0.010  0.012
   31  0.014  0.001  0.008  0.023
   32  0.006  0.001  0.007  0.014
   33  0.002  0.001  0.010  0.012
   34  0.006  0.001  0.007  0.014
   35  0.000  0.003  0.002  0.005
   36  0.000  0.001  0.020  0.021
   37  0.000  0.000  0.000  0.000
tot    0.097  0.055  0.648  0.799
 
band    21 # energy   -4.28976896 # occ.  2.00000000
 
ion      s      p      d    tot
    1  0.000  0.000  0.037  0.037
    2  0.006  0.001  0.010  0.017
    3  0.002  0.001  0.010  0.013
    4  0.006  0.001  0.010  0.017
    5  0.000  0.002  0.004  0.006
    6  0.016  0.001  0.011  0.028
    7  0.002  0.001  0.010  0.013
    8  0.016  0.001  0.011  0.028
    9  0.000  0.002  0.017  0.020
   10  0.000  0.001  0.011  0.011
   11  0.000  0.002  0.011  0.014
   12  0.000  0.000  0.038  0.039
   13  0.000  0.002  0.012  0.014
   14  0.001  0.007  0.021  0.029
   15  0.000  0.001  0.038  0.039
   16  0.000  0.000  0.039  0.039
   17  0.000  0.001  0.037  0.038
   18  0.001  0.003  0.007  0.011
   19  0.000  0.001  0.015  0.016
   20  0.001  0.001  0.005  0.006
   21  0.000  0.000  0.058  0.059
   22  0.000  0.002  0.021  0.023
   23  0.000  0.000  0.060  0.060
   24  0.001  0.007  0.018  0.025
   25  0.000  0.004  0.017  0.021
   26  0.000  0.001  0.015  0.016
   27  0.000  0.002  0.021  0.023
   28  0.000  0.001  0.014  0.014
   29  0.000  0.001  0.008  0.009
   30  0.013  0.001  0.007  0.021
   31  0.000  0.001  0.008  0.009
   32  0.008  0.001  0.010  0.019
   33  0.013  0.001  0.007  0.021
   34  0.009  0.001  0.010  0.019
   35  0.000  0.003  0.002  0.005
   36  0.000  0.001  0.020  0.021