 vasp.6.2.0 18Jan21 (build Jun 12 2021 23:27:24) complex                        
  
 executed on             LinuxIFC date 2022.05.26  19:52:58
 running on   28 total cores
 distrk:  each k-point on   28 cores,    1 groups
 distr:  one band on NCORE=   1 cores,   28 groups


--------------------------------------------------------------------------------------------------------


 INCAR:
   ISMEAR = -5
   SIGMA = 0.1
   ISPIN = 1
   EDIFF = 1.d-5
   EDIFFG = -0.01
   NSW = 0
   NELM = 150
   ENCUT = 500
   ISIF = 2
   IBRION = 2
   LREAL = Auto
   ALGO = Fast
   ICHARG = 11
   LORBIT = 10
   LCHARG = .F.
   LWAVE = .F.

 POTCAR:    PAW_PBE Ag 02Apr2005                  
 POTCAR:    PAW_PBE Re 17Jan2003                  
 POTCAR:    PAW_PBE H 15Jun2001                   
 -----------------------------------------------------------------------------
|                                                                             |
|           W    W    AA    RRRRR   N    N  II  N    N   GGGG   !!!           |
|           W    W   A  A   R    R  NN   N  II  NN   N  G    G  !!!           |
|           W    W  A    A  R    R  N N  N  II  N N  N  G       !!!           |
|           W WW W  AAAAAA  RRRRR   N  N N  II  N  N N  G  GGG   !            |
|           WW  WW  A    A  R   R   N   NN  II  N   NN  G    G                |
|           W    W  A    A  R    R  N    N  II  N    N   GGGG   !!!           |
|                                                                             |
|     For optimal performance we recommend to set                             |
|       NCORE = 2 up to number-of-cores-per-socket                            |
|     NCORE specifies how many cores store one orbital (NPAR=cpu/NCORE).      |
|     This setting can greatly improve the performance of VASP for DFT.       |
|     The default, NCORE=1 might be grossly inefficient on modern             |
|     multi-core architectures or massively parallel machines. Do your        |
|     own testing! More info at https://www.vasp.at/wiki/index.php/NCORE      |
|     Unfortunately you need to use the default for GW and RPA                |
|     calculations (for HF NCORE is supported but not extensively tested      |
|     yet).                                                                   |
|                                                                             |
 -----------------------------------------------------------------------------

 POTCAR:    PAW_PBE Ag 02Apr2005                  
   VRHFIN =Ag : s1 d10                                                                              
   LEXCH  = PE                                                                                      
   EATOM  =  1037.2675 eV,   76.2370 Ry                                                             
                                                                                                    
   TITEL  = PAW_PBE Ag 02Apr2005                                                                    
   LULTRA =        F    use ultrasoft PP ?                                                          
   IUNSCR =        1    unscreen: 0-lin 1-nonlin 2-no                                               
   RPACOR =    2.000    partial core radius                                                         
   POMASS =  107.868; ZVAL   =   11.000    mass and valenz                                          
   RCORE  =    2.500    outmost cutoff radius                                                       
   RWIGS  =    2.840; RWIGS  =    1.503    wigner-seitz radius (au A)                               
   ENMAX  =  249.844; ENMIN  =  187.383 eV                                                          
   ICORE  =        3    local potential                                                             
   LCOR   =        T    correct aug charges                                                         
   LPAW   =        T    paw PP                                                                      
   EAUG   =  412.496                                                                                
   DEXC   =    0.000                                                                                
   RMAX   =    2.560    core radius for proj-oper                                                   
   RAUG   =    1.300    factor for augmentation sphere                                              
   RDEP   =    2.576    radius for radial grids                                                     
   RDEPT  =    2.072    core radius for aug-charge                                                  
                                                                                                    
   Atomic configuration                                                                             
   12 entries                                                                                       
     n  l   j            E        occ.                                                              
     1  0  0.50    -25324.9161   2.0000                                                             
     2  0  0.50     -3728.5341   2.0000                                                             
     2  1  1.50     -3344.0404   6.0000                                                             
     3  0  0.50      -683.5581   2.0000                                                             
     3  1  1.50      -557.3225   6.0000                                                             
     3  2  2.50      -358.3853  10.0000                                                             
     4  0  0.50       -95.0341   2.0000                                                             
     4  1  1.50       -58.5511   6.0000                                                             
     4  2  2.50        -7.4440  10.0000                                                             
     5  0  0.50        -4.4045   1.0000                                                             
     5  1  0.50        -1.3606   0.0000                                                             
     4  3  2.50        -1.3606   0.0000                                                             
   Description                                                                                      
     l       E           TYP  RCUT    TYP  RCUT                                                     
     2     -7.4439781     23  2.400                                                                 
     2     -8.8045607     23  2.400                                                                 
     0     -4.4044681     23  2.400                                                                 
     0      1.9520038     23  2.400                                                                 
     1     -1.3605826     23  2.500                                                                 
     1     27.2116520     23  2.500                                                                 
     3     -4.0817478     23  2.400                                                                 
  local pseudopotential read in
  partial core-charges read in
  partial kinetic energy density read in
  atomic valenz-charges read in
  non local Contribution for L=           2  read in
    real space projection operators read in
  non local Contribution for L=           2  read in
    real space projection operators read in
  non local Contribution for L=           0  read in
    real space projection operators read in
  non local Contribution for L=           0  read in
    real space projection operators read in
  non local Contribution for L=           1  read in
    real space projection operators read in
  non local Contribution for L=           1  read in
    real space projection operators read in
    PAW grid and wavefunctions read in
 
   number of l-projection  operators is LMAX  =           6
   number of lm-projection operators is LMMAX =          18
 
 POTCAR:    PAW_PBE Re 17Jan2003                  
   VRHFIN =Re: 5p6s5d                                                                               
   LEXCH  = PE                                                                                      
   EATOM  =   299.6589 eV,   22.0243 Ry                                                             
                                                                                                    
   TITEL  = PAW_PBE Re 17Jan2003                                                                    
   LULTRA =        F    use ultrasoft PP ?                                                          
   IUNSCR =        1    unscreen: 0-lin 1-nonlin 2-no                                               
   RPACOR =    2.250    partial core radius                                                         
   POMASS =  186.207; ZVAL   =    7.000    mass and valenz                                          
   RCORE  =    2.700    outmost cutoff radius                                                       
   RWIGS  =    2.710; RWIGS  =    1.434    wigner-seitz radius (au A)                               
   ENMAX  =  226.216; ENMIN  =  169.662 eV                                                          
   RCLOC  =    2.105    cutoff for local pot                                                        
   LCOR   =        T    correct aug charges                                                         
   LPAW   =        T    paw PP                                                                      
   EAUG   =  370.280                                                                                
   DEXC   =    0.000                                                                                
   RMAX   =    2.768    core radius for proj-oper                                                   
   RAUG   =    1.300    factor for augmentation sphere                                              
   RDEP   =    2.719    radius for radial grids                                                     
   RDEPT  =    2.204    core radius for aug-charge                                                  
                                                                                                    
   Atomic configuration                                                                             
   16 entries                                                                                       
     n  l   j            E        occ.                                                              
     1  0  0.50    -71633.0043   2.0000                                                             
     2  0  0.50    -12416.1215   2.0000                                                             
     2  1  1.50    -10832.4223   6.0000                                                             
     3  0  0.50     -2872.9330   2.0000                                                             
     3  1  1.50     -2406.1720   6.0000                                                             
     3  2  2.50     -1877.8916  10.0000                                                             
     4  0  0.50      -597.8463   2.0000                                                             
     4  1  1.50      -444.8000   6.0000                                                             
     4  2  2.50      -252.9938  10.0000                                                             
     4  3  3.50       -40.1243  14.0000                                                             
     5  0  0.50       -83.0609   2.0000                                                             
     5  1  1.50       -44.9781   6.0000                                                             
     5  2  2.50        -4.0055   6.0000                                                             
     6  0  0.50        -5.2962   1.0000                                                             
     6  1  1.50        -2.7212   0.0000                                                             
     5  3  2.50        -1.3606   0.0000                                                             
   Description                                                                                      
     l       E           TYP  RCUT    TYP  RCUT                                                     
     2     -4.0054887     23  2.500                                                                 
     2     -2.6236470     23  2.500                                                                 
     0     -5.2961782     23  2.600                                                                 
     0      4.1641227     23  2.600                                                                 
     1     -2.7211652     23  2.700                                                                 
     1     27.2116520     23  2.700                                                                 
  local pseudopotential read in
  partial core-charges read in
  partial kinetic energy density read in
  kinetic energy density of atom read in
  atomic valenz-charges read in
  non local Contribution for L=           2  read in
    real space projection operators read in
  non local Contribution for L=           2  read in
    real space projection operators read in
  non local Contribution for L=           0  read in
    real space projection operators read in
  non local Contribution for L=           0  read in
    real space projection operators read in
  non local Contribution for L=           1  read in
    real space projection operators read in
  non local Contribution for L=           1  read in
    real space projection operators read in
    PAW grid and wavefunctions read in
 
   number of l-projection  operators is LMAX  =           6
   number of lm-projection operators is LMMAX =          18
 
 POTCAR:    PAW_PBE H 15Jun2001                   
   VRHFIN =H: ultrasoft test                                                                        
   LEXCH  = PE                                                                                      
   EATOM  =    12.4884 eV,    0.9179 Ry                                                             
                                                                                                    
   TITEL  = PAW_PBE H 15Jun2001                                                                     
   LULTRA =        F    use ultrasoft PP ?                                                          
   IUNSCR =        0    unscreen: 0-lin 1-nonlin 2-no                                               
   RPACOR =    0.000    partial core radius                                                         
   POMASS =    1.000; ZVAL   =    1.000    mass and valenz                                          
   RCORE  =    1.100    outmost cutoff radius                                                       
   RWIGS  =    0.700; RWIGS  =    0.370    wigner-seitz radius (au A)                               
   ENMAX  =  250.000; ENMIN  =  200.000 eV                                                          
   RCLOC  =    0.701    cutoff for local pot                                                        
   LCOR   =        T    correct aug charges                                                         
   LPAW   =        T    paw PP                                                                      
   EAUG   =  400.000                                                                                
   RMAX   =    1.123    core radius for proj-oper                                                   
   RAUG   =    1.200    factor for augmentation sphere                                              
   RDEP   =    1.112    radius for radial grids                                                     
   RDEPT  =    0.926    core radius for aug-charge                                                  
                                                                                                    
   Atomic configuration                                                                             
    2 entries                                                                                       
     n  l   j            E        occ.                                                              
     1  0  0.50        -6.4927   1.0000                                                             
     2  1  0.50        -3.4015   0.0000                                                             
   Description                                                                                      
     l       E           TYP  RCUT    TYP  RCUT                                                     
     0     -6.4927494     23  1.100                                                                 
     0      6.8029130     23  1.100                                                                 
     1     -4.0817478     23  1.100                                                                 
  local pseudopotential read in
  atomic valenz-charges read in
  non local Contribution for L=           0  read in
    real space projection operators read in
  non local Contribution for L=           0  read in
    real space projection operators read in
  non local Contribution for L=           1  read in
    real space projection operators read in
    PAW grid and wavefunctions read in
 
   number of l-projection  operators is LMAX  =           3
   number of lm-projection operators is LMMAX =           5
 
 Optimization of the real space projectors (new method)

 maximal supplied QI-value         = 15.12
 optimisation between [QCUT,QGAM] = [ 11.34, 22.83] = [ 36.00,145.93] Ry 
 Optimized for a Real-space Cutoff    1.43 Angstroem

   l    n(q)    QCUT    max X(q) W(low)/X(q) W(high)/X(q)  e(spline) 
   2      9    11.338    53.897    0.16E-03    0.20E-03    0.28E-06
   2      9    11.338    52.416    0.16E-03    0.20E-03    0.29E-06
   0     10    11.338   122.045    0.31E-04    0.76E-04    0.15E-06
   0     10    11.338    73.629    0.30E-04    0.72E-04    0.15E-06
   1      9    11.338    15.255    0.20E-03    0.19E-04    0.17E-06
   1      9    11.338     9.562    0.16E-03    0.15E-04    0.14E-06
 Optimization of the real space projectors (new method)

 maximal supplied QI-value         = 13.98
 optimisation between [QCUT,QGAM] = [ 11.33, 22.79] = [ 35.93,145.49] Ry 
 Optimized for a Real-space Cutoff    1.56 Angstroem

   l    n(q)    QCUT    max X(q) W(low)/X(q) W(high)/X(q)  e(spline) 
   2     10    11.327   884.633    0.22E-03    0.51E-03    0.88E-06
   2     10    11.327   796.723    0.22E-03    0.51E-03    0.88E-06
   0     11    11.327    65.348    0.44E-04    0.11E-03    0.75E-06
   0     11    11.327    39.642    0.40E-04    0.10E-03    0.69E-06
   1     10    11.327    13.988    0.15E-03    0.10E-03    0.19E-06
   1     10    11.327     8.682    0.11E-03    0.76E-04    0.14E-06
 Optimization of the real space projectors (new method)

 maximal supplied QI-value         = 34.20
 optimisation between [QCUT,QGAM] = [ 11.29, 22.57] = [ 35.68,142.71] Ry 
 Optimized for a Real-space Cutoff    1.16 Angstroem

   l    n(q)    QCUT    max X(q) W(low)/X(q) W(high)/X(q)  e(spline) 
   0      8    11.287    19.460    0.40E-03    0.73E-03    0.16E-06
   0      8    11.287    12.209    0.38E-03    0.70E-03    0.15E-06
   1      7    11.287     4.655    0.22E-03    0.25E-04    0.22E-06
  PAW_PBE Ag 02Apr2005                  :
 energy of atom  1       EATOM=-1037.2675
 kinetic energy error for atom=    0.0052 (will be added to EATOM!!)
  PAW_PBE Re 17Jan2003                  :
 energy of atom  2       EATOM= -299.6589
 kinetic energy error for atom=    0.0023 (will be added to EATOM!!)
  PAW_PBE H 15Jun2001                   :
 energy of atom  3       EATOM=  -12.4884
 kinetic energy error for atom=    0.0020 (will be added to EATOM!!)
 
 
 POSCAR: Ag-Re-H
  positions in direct lattice
  velocities in cartesian coordinates
 exchange correlation table for  LEXCH =        8
   RHO(1)=    0.500       N(1)  =     2000
   RHO(2)=  100.500       N(2)  =     4000

 VTST: version 3.2, (02/03/18)

 CHAIN: initializing optimizer
 
 OPT: Using VASP Conjugate-Gradient optimizer
 CHAIN: Read ICHAIN            0
 
 POSCAR: Ag-Re-H
  positions in direct lattice
  velocities in cartesian coordinates
 


--------------------------------------------------------------------------------------------------------


 ion  position               nearest neighbor table
   1  0.000  0.000  0.238-   2 2.93   8 2.93   7 2.93   6 2.93   4 2.93  12 2.93  16 2.93  10 2.93
                             3 2.93
   2  0.333  0.000  0.238-   1 2.93   8 2.93   9 2.93   3 2.93   4 2.93   5 2.93  10 2.93  17 2.93
                            11 2.93
   3  0.667  0.000  0.238-   9 2.93   2 2.93   5 2.93  11 2.93   7 2.93  18 2.93   1 2.93   6 2.93
                            12 2.93
   4  0.000  0.333  0.238-   5 2.93   6 2.93   2 2.93   1 2.93   7 2.93  13 2.93  15 2.93   9 2.93
                            10 2.93
   5  0.333  0.333  0.238-   4 2.93   3 2.93   7 2.93   2 2.93   8 2.93  14 2.93  13 2.93  11 2.93
                             6 2.93
   6  0.667  0.333  0.238-   4 2.93   9 2.93   1 2.93  15 2.93   8 2.93  12 2.93   3 2.93   5 2.93
                            14 2.93
   7  0.000  0.667  0.238-   8 2.93   1 2.93   5 2.93   3 2.93   4 2.93  16 2.93  18 2.93  13 2.93
                             9 2.93
   8  0.333  0.667  0.238-   7 2.93   1 2.93   2 2.93   9 2.93   5 2.93  16 2.93   6 2.93  17 2.93
                            14 2.93
   9  0.667  0.667  0.238-   3 2.93   2 2.93   8 2.93   6 2.93  17 2.93   4 2.93  15 2.93   7 2.93
                            18 2.93
  10  0.111  0.111  0.346-  20 2.89  12 2.93  16 2.93  15 2.93  17 2.93  13 2.93  11 2.93   2 2.93
                             1 2.93   4 2.93  19 2.93  26 2.93
  11  0.444  0.111  0.346-  21 2.89  20 2.89  27 2.93  14 2.93  17 2.93  18 2.93   3 2.93  12 2.93
                            13 2.93  10 2.93   5 2.93   2 2.93
  12  0.778  0.111  0.346-  21 2.89  10 2.93  16 2.93  18 2.93  15 2.93  11 2.93   1 2.93  14 2.93
                             6 2.93   3 2.93  25 2.93  19 2.93
  13  0.111  0.444  0.346-  20 2.89  23 2.89  22 2.93  15 2.93  14 2.93  18 2.93  10 2.93  11 2.93
                            16 2.93   4 2.93   5 2.93   7 2.93
  14  0.444  0.444  0.346-  23 2.89  21 2.89  24 2.93  13 2.93  11 2.93  16 2.93   5 2.93  12 2.93
                            17 2.93   8 2.93  15 2.93   6 2.93
  15  0.778  0.444  0.346-  24 2.92  22 2.92  19 2.93  13 2.93  10 2.93  12 2.93  17 2.93  18 2.93
                             4 2.93   6 2.93   9 2.93  14 2.93
  16  0.111  0.778  0.346-  23 2.89  18 2.93  12 2.93  10 2.93  14 2.93  17 2.93  13 2.93   7 2.93
                             8 2.93   1 2.93  26 2.93  25 2.93
  17  0.444  0.778  0.346-  27 2.92  24 2.92  26 2.93  11 2.93  10 2.93   9 2.93  18 2.93  15 2.93
                            16 2.93   2 2.93  14 2.93   8 2.93
  18  0.778  0.778  0.346-  22 2.92  27 2.92  25 2.93  16 2.93  12 2.93  13 2.93  11 2.93  17 2.93
                            15 2.93   7 2.93   3 2.93   9 2.93
  19  0.889  0.223  0.454-  28 2.91  24 2.93  22 2.93  15 2.93  20 2.93  21 2.93  10 2.93  12 2.93
                            26 2.94  25 2.94  32 2.97  31 2.97
  20  0.222  0.222  0.452-  36 2.76  10 2.89  13 2.89  11 2.89  19 2.93  26 2.93  21 2.93  23 2.93
                            27 2.94  22 2.94  31 2.94  29 2.94
  21  0.556  0.222  0.452-  36 2.76  12 2.89  11 2.89  14 2.89  25 2.93  19 2.93  20 2.93  23 2.93
                            27 2.94  24 2.94  30 2.94  32 2.94
  22  0.888  0.556  0.453-  35 2.91  24 2.92  27 2.92  18 2.92  15 2.92  13 2.93  25 2.93  19 2.93
                            23 2.94  20 2.94  33 2.95  31 2.95
  23  0.222  0.556  0.452-  36 2.76  16 2.89  14 2.89  13 2.89  26 2.93  25 2.93  21 2.93  20 2.93
                            22 2.94  24 2.94  34 2.94  33 2.94
  24  0.556  0.556  0.453-  35 2.91  27 2.92  22 2.92  15 2.92  17 2.92  14 2.93  19 2.93  26 2.93
                            23 2.94  21 2.94  32 2.95  34 2.95
  25  0.889  0.889  0.454-  28 2.91  22 2.93  27 2.93  18 2.93  23 2.93  21 2.93  16 2.93  12 2.93
                            26 2.94  19 2.94  33 2.97  30 2.97
  26  0.223  0.889  0.454-  28 2.91  27 2.93  24 2.93  17 2.93  23 2.93  20 2.93  16 2.93  10 2.93
                            25 2.94  19 2.94  34 2.97  29 2.97
  27  0.556  0.888  0.453-  35 2.91  24 2.92  22 2.92  17 2.92  18 2.92  11 2.93  26 2.93  25 2.93
                            20 2.94  21 2.94  29 2.95  30 2.95
  28  0.000  0.000  0.560-  26 2.91  25 2.91  19 2.91  29 2.96  34 2.96  33 2.96  32 2.96  31 2.96
                            30 2.96
  29  0.333  0.008  0.562-  31 2.86  30 2.87  36 2.88  20 2.94  27 2.95  28 2.96  26 2.97  35 2.97
                            34 3.06
  30  0.659  0.008  0.562-  32 2.86  29 2.87  36 2.88  21 2.94  27 2.95  28 2.96  25 2.97  35 2.97
                            33 3.06
  31  0.008  0.333  0.562-  29 2.86  33 2.87  36 2.88  20 2.94  22 2.95  28 2.96  19 2.97  35 2.97
                            32 3.06
  32  0.659  0.333  0.562-  30 2.86  34 2.87  36 2.88  21 2.94  24 2.95  28 2.96  19 2.97  35 2.97
                            31 3.06
  33  0.008  0.659  0.562-  34 2.86  31 2.87  36 2.88  23 2.94  22 2.95  28 2.96  25 2.97  35 2.97
                            30 3.06
  34  0.333  0.659  0.562-  33 2.86  32 2.87  36 2.88  23 2.94  24 2.95  28 2.96  26 2.97  35 2.97
                            29 3.06
  35  0.667  0.667  0.560-  24 2.91  27 2.91  22 2.91  30 2.97  32 2.97  29 2.97  34 2.97  31 2.97
                            33 2.97
  36  0.333  0.333  0.550-  37 1.67  21 2.76  20 2.76  23 2.76  31 2.88  30 2.88  33 2.88  29 2.88
                            34 2.88  32 2.88
  37  0.333  0.333  0.625-  36 1.67
 
  LATTYP: Found a hexagonal cell.
 ALAT       =     8.7913665772
 C/A-ratio  =     2.5227160501
  
  Lattice vectors:
  
 A1 = (  -4.3956832886,  -7.6135467898,   0.0000000000)
 A2 = (   8.7913665771,   0.0000000000,   0.0000000000)
 A3 = (   0.0000000000,   0.0000000000,  22.1781215668)


Analysis of symmetry for initial positions (statically):
=====================================================================
 Subroutine PRICEL returns:
 Original cell was already a primitive cell.
 

 Routine SETGRP: Setting up the symmetry group for a 
 hexagonal supercell.


 Subroutine GETGRP returns: Found  6 space group operations
 (whereof  6 operations were pure point group operations)
 out of a pool of 24 trial point group operations.


The static configuration has the point symmetry C_3v.


Analysis of symmetry for dynamics (positions and initial velocities):
=====================================================================
 Subroutine PRICEL returns:
 Original cell was already a primitive cell.
 

 Routine SETGRP: Setting up the symmetry group for a 
 hexagonal supercell.


 Subroutine GETGRP returns: Found  6 space group operations
 (whereof  6 operations were pure point group operations)
 out of a pool of 24 trial point group operations.


The dynamic configuration has the point symmetry C_3v.


Analysis of constrained symmetry for selective dynamics:
=====================================================================
 Subroutine PRICEL returns:
 Original cell was already a primitive cell.
 

 Routine SETGRP: Setting up the symmetry group for a 
 hexagonal supercell.


 Subroutine GETGRP returns: Found  6 space group operations
 (whereof  6 operations were pure point group operations)
 out of a pool of 24 trial point group operations.


The constrained configuration has the point symmetry C_3v.


 Subroutine INISYM returns: Found  6 space group operations
 (whereof  6 operations are pure point group operations),
 and found     1 'primitive' translations


----------------------------------------------------------------------------------------

                                     Primitive cell                                     

  volume of cell :    1484.4589

  direct lattice vectors                    reciprocal lattice vectors
     8.791366577  0.000000000  0.000000000     0.113747958 -0.065672414  0.000000000
     4.395683289  7.613546790  0.000000000     0.000000000  0.131344829  0.000000000
     0.000000000  0.000000000 22.178121567     0.000000000  0.000000000  0.045089481

  length of vectors
     8.791366577  8.791366577 22.178121567     0.131344829  0.131344829  0.045089481

  position of ions in fractional coordinates (direct lattice)
     0.000000000  0.000000000  0.238171124
     0.333333313  0.000000000  0.238171124
     0.666666627  0.000000000  0.238171124
     0.000000000  0.333333343  0.238171124
     0.333333313  0.333333343  0.238171124
     0.666666687  0.333333343  0.238171124
     0.000000000  0.666666687  0.238171124
     0.333333313  0.666666687  0.238171124
     0.666666627  0.666666687  0.238171124
     0.111111104  0.111111112  0.346057051
     0.444444448  0.111111112  0.346057051
     0.777777791  0.111111112  0.346057051
     0.111111097  0.444444448  0.346057051
     0.444444418  0.444444448  0.346057051
     0.777777791  0.444444448  0.346057051
     0.111111104  0.777777791  0.346057051
     0.444444448  0.777777791  0.346057051
     0.777777791  0.777777791  0.346057051
     0.888537475  0.222925067  0.453949028
     0.222149514  0.222149529  0.451848950
     0.555700912  0.222149529  0.451848950
     0.887981608  0.556009226  0.453463158
     0.222149529  0.555700972  0.451848950
     0.556009226  0.556009226  0.453463158
     0.888537475  0.888537475  0.453949028
     0.222925037  0.888537475  0.453949028
     0.556009166  0.887981608  0.453463158
     0.000000000  0.000000000  0.560480452
     0.333030248  0.007722346  0.562010326
     0.659247346  0.007722346  0.562010326
     0.007722346  0.333030278  0.562010326
     0.659247406  0.333030278  0.562010326
     0.007722346  0.659247406  0.562010326
     0.333030248  0.659247406  0.562010326
     0.666666627  0.666666687  0.560260407
     0.333333313  0.333333343  0.550036921
     0.333333313  0.333333343  0.625172366

  ion indices of the primitive-cell ions
   primitive index   ion index
                 1           1
                 2           2
                 3           3
                 4           4
                 5           5
                 6           6
                 7           7
                 8           8
                 9           9
                10          10
                11          11
                12          12
                13          13
                14          14
                15          15
                16          16
                17          17
                18          18
                19          19
                20          20
                21          21
                22          22
                23          23
                24          24
                25          25
                26          26
                27          27
                28          28
                29          29
                30          30
                31          31
                32          32
                33          33
                34          34
                35          35
                36          36
                37          37

----------------------------------------------------------------------------------------

 
 
 KPOINTS: Automatic mesh                          

Automatic generation of k-mesh.
 Grid dimensions read from file:
 generate k-points for:    8    8    1

 Generating k-lattice:

  Cartesian coordinates                     Fractional coordinates (reciprocal lattice)
     0.014218495 -0.008209052  0.000000000     0.125000000  0.000000000  0.000000000
     0.000000000  0.016418104  0.000000000     0.000000000  0.125000000  0.000000000
     0.000000000  0.000000000  0.045089481     0.000000000  0.000000000  1.000000000

  Length of vectors
     0.016418104  0.016418104  0.045089481

  Shift w.r.t. Gamma in fractional coordinates (k-lattice)
     0.000000000  0.000000000  0.000000000

 TETIRR: Found     36 inequivalent tetrahedra from      384
 
 Subroutine IBZKPT returns following result:
 ===========================================
 
 Found     10 irreducible k-points:
 
 Following reciprocal coordinates:
            Coordinates               Weight
  0.000000  0.000000  0.000000      1.000000
  0.125000 -0.000000  0.000000      6.000000
  0.250000 -0.000000  0.000000      6.000000
  0.375000 -0.000000  0.000000      6.000000
  0.500000 -0.000000  0.000000      3.000000
  0.250000  0.125000  0.000000      6.000000
  0.375000  0.125000  0.000000     12.000000
  0.500000  0.125000  0.000000     12.000000
  0.500000  0.250000  0.000000      6.000000
 -0.375000  0.250000  0.000000      6.000000
 
 Following cartesian coordinates:
            Coordinates               Weight
  0.000000  0.000000  0.000000      1.000000
  0.014218 -0.008209  0.000000      6.000000
  0.028437 -0.016418  0.000000      6.000000
  0.042655 -0.024627  0.000000      6.000000
  0.056874 -0.032836  0.000000      3.000000
  0.028437 -0.000000  0.000000      6.000000
  0.042655 -0.008209  0.000000     12.000000
  0.056874 -0.016418  0.000000     12.000000
  0.056874 -0.000000  0.000000      6.000000
 -0.042655  0.057463  0.000000      6.000000
 


--------------------------------------------------------------------------------------------------------




 Dimension of arrays:
   k-points           NKPTS =     10   k-points in BZ     NKDIM =     10   number of bands    NBANDS=    252
   number of dos      NEDOS =    301   number of ions     NIONS =     37
   non local maximal  LDIM  =      6   non local SUM 2l+1 LMDIM =     18
   total plane-waves  NPLWV = 290304
   max r-space proj   IRMAX =   3185   max aug-charges    IRDMAX=  11504
   dimension x,y,z NGX =    48 NGY =   48 NGZ =  126
   dimension x,y,z NGXF=    96 NGYF=   96 NGZF=  252
   support grid    NGXF=    96 NGYF=   96 NGZF=  252
   ions per type =              35   1   1
   NGX,Y,Z   is equivalent  to a cutoff of   9.08,  9.08,  9.44 a.u.
   NGXF,Y,Z  is equivalent  to a cutoff of  18.15, 18.15, 18.89 a.u.

 SYSTEM =  unknown system                          
 POSCAR =  Ag-Re-H                                 

 Startparameter for this run:
   NWRITE =      2    write-flag & timer
   PREC   = normal    normal or accurate (medium, high low for compatibility)
   ISTART =      0    job   : 0-new  1-cont  2-samecut
   ICHARG =     11    charge: 1-file 2-atom 10-const
   ISPIN  =      1    spin polarized calculation?
   LNONCOLLINEAR =      F non collinear calculations
   LSORBIT =      F    spin-orbit coupling
   INIWAV =      1    electr: 0-lowe 1-rand  2-diag
   LASPH  =      F    aspherical Exc in radial PAW
   METAGGA=      F    non-selfconsistent MetaGGA calc.

 Electronic Relaxation 1
   ENCUT  =  500.0 eV  36.75 Ry    6.06 a.u.  16.03 16.03 40.44*2*pi/ulx,y,z
   ENINI  =  500.0     initial cutoff
   ENAUG  =  412.5 eV  augmentation charge cutoff
   NELM   =    150;   NELMIN=  2; NELMDL= -5     # of ELM steps 
   EDIFF  = 0.1E-04   stopping-criterion for ELM
   LREAL  =      T    real-space projection
   NLSPLINE    = F    spline interpolate recip. space projectors
   LCOMPAT=      F    compatible to vasp.4.4
   GGA_COMPAT  = T    GGA compatible to vasp.4.4-vasp.4.6
   LMAXPAW     = -100 max onsite density
   LMAXMIX     =    2 max onsite mixed and CHGCAR
   VOSKOWN=      0    Vosko Wilk Nusair interpolation
   ROPT   =   -0.00050  -0.00050  -0.00050
 Ionic relaxation
   EDIFFG = -.1E-01   stopping-criterion for IOM
   NSW    =      0    number of steps for IOM
   NBLOCK =      1;   KBLOCK =      1    inner block; outer block 
   IBRION =     -1    ionic relax: 0-MD 1-quasi-New 2-CG
   NFREE  =      1    steps in history (QN), initial steepest desc. (CG)
   ISIF   =      2    stress and relaxation
   IWAVPR =     10    prediction:  0-non 1-charg 2-wave 3-comb
   ISYM   =      2    0-nonsym 1-usesym 2-fastsym
   LCORR  =      T    Harris-Foulkes like correction to forces

   POTIM  = 0.5000    time-step for ionic-motion
   TEIN   =    0.0    initial temperature
   TEBEG  =    0.0;   TEEND  =   0.0 temperature during run
   SMASS  =  -3.00    Nose mass-parameter (am)
   estimated Nose-frequenzy (Omega)   =  0.10E-29 period in steps = 0.13E+47 mass=  -0.177E-26a.u.
   SCALEE = 1.0000    scale energy and forces
   NPACO  =    256;   APACO  = 16.0  distance and # of slots for P.C.
   PSTRESS=    0.0 pullay stress

  Mass of Ions in am
   POMASS = 107.87186.21  1.00
  Ionic Valenz
   ZVAL   =  11.00  7.00  1.00
  Atomic Wigner-Seitz radii
   RWIGS  =  -1.00 -1.00 -1.00
  virtual crystal weights 
   VCA    =   1.00  1.00  1.00
   NELECT =     393.0000    total number of electrons
   NUPDOWN=      -1.0000    fix difference up-down

 DOS related values:
   EMIN   =  10.00;   EMAX   =-10.00  energy-range for DOS
   EFERMI =   0.00
   ISMEAR =    -5;   SIGMA  =   0.10  broadening in eV -4-tet -1-fermi 0-gaus

 Electronic relaxation 2 (details)
   IALGO  =     68    algorithm
   LDIAG  =      T    sub-space diagonalisation (order eigenvalues)
   LSUBROT=      F    optimize rotation matrix (better conditioning)
   TURBO    =      0    0=normal 1=particle mesh
   IRESTART =      0    0=no restart 2=restart with 2 vectors
   NREBOOT  =      0    no. of reboots
   NMIN     =      0    reboot dimension
   EREF     =   0.00    reference energy to select bands
   IMIX   =      4    mixing-type and parameters
     AMIX     =   0.40;   BMIX     =  1.00
     AMIX_MAG =   1.60;   BMIX_MAG =  1.00
     AMIN     =   0.10
     WC   =   100.;   INIMIX=   1;  MIXPRE=   1;  MAXMIX= -45

 Intra band minimization:
   WEIMIN = 0.0000     energy-eigenvalue tresh-hold
   EBREAK =  0.99E-08  absolut break condition
   DEPER  =   0.30     relativ break condition  

   TIME   =   0.40     timestep for ELM

  volume/ion in A,a.u.               =      40.12       270.75
  Fermi-wavevector in a.u.,A,eV,Ry     =   1.051194  1.986469 15.034564  1.105009
  Thomas-Fermi vector in A             =   2.186228
 
 Write flags
   LWAVE        =      F    write WAVECAR
   LDOWNSAMPLE  =      F    k-point downsampling of WAVECAR
   LCHARG       =      F    write CHGCAR
   LVTOT        =      F    write LOCPOT, total local potential
   LVHAR        =      F    write LOCPOT, Hartree potential only
   LELF         =      F    write electronic localiz. function (ELF)
   LORBIT       =     10    0 simple, 1 ext, 2 COOP (PROOUT), +10 PAW based schemes


 Dipole corrections
   LMONO  =      F    monopole corrections only (constant potential shift)
   LDIPOL =      F    correct potential (dipole corrections)
   IDIPOL =      0    1-x, 2-y, 3-z, 4-all directions 
   EPSILON=  1.0000000 bulk dielectric constant

 Exchange correlation treatment:
   GGA     =    --    GGA type
   LEXCH   =     8    internal setting for exchange type
   VOSKOWN=      0    Vosko Wilk Nusair interpolation
   LHFCALC =     F    Hartree Fock is set to
   LHFONE  =     F    Hartree Fock one center treatment
   AEXX    =    0.0000 exact exchange contribution

 Linear response parameters
   LEPSILON=     F    determine dielectric tensor
   LRPA    =     F    only Hartree local field effects (RPA)
   LNABLA  =     F    use nabla operator in PAW spheres
   LVEL    =     F    velocity operator in full k-point grid
   LINTERFAST=   F  fast interpolation
   KINTER  =     0    interpolate to denser k-point grid
   CSHIFT  =0.1000    complex shift for real part using Kramers Kronig
   OMEGAMAX=  -1.0    maximum frequency
   DEG_THRESHOLD= 0.2000000E-02 threshold for treating states as degnerate
   RTIME   =   -0.100 relaxation time in fs
  (WPLASMAI=    0.000 imaginary part of plasma frequency in eV, 0.658/RTIME)
   DFIELD  = 0.0000000 0.0000000 0.0000000 field for delta impulse in time
 
 Orbital magnetization related:
   ORBITALMAG=     F  switch on orbital magnetization
   LCHIMAG   =     F  perturbation theory with respect to B field
   DQ        =  0.001000  dq finite difference perturbation B field
   LLRAUG    =     F  two centre corrections for induced B field



--------------------------------------------------------------------------------------------------------


 Static calculation
 charge density and potential remain constant during run
 non-spin polarized calculation
 RMM-DIIS sequential band-by-band and
  variant of blocked Davidson during initial phase
 perform sub-space diagonalisation
    before iterative eigenvector-optimisation
 no mixing
 using additional bands           55
 real space projection scheme for non local part
 use partial core corrections
 calculate Harris-corrections to forces 
   (improved forces if not selfconsistent)
 use gradient corrections 
 WARNING: stress and forces are not correct
  (second derivative of E(xc) not defined)
 use of overlap-Matrix (Vanderbilt PP)
 Fermi weights with tetrahedron method with Bloechl corrections


--------------------------------------------------------------------------------------------------------


  energy-cutoff  :      500.00
  volume of cell :     1484.46
      direct lattice vectors                 reciprocal lattice vectors
     8.791366577  0.000000000  0.000000000     0.113747958 -0.065672414  0.000000000
     4.395683289  7.613546790  0.000000000     0.000000000  0.131344829  0.000000000
     0.000000000  0.000000000 22.178121567     0.000000000  0.000000000  0.045089481

  length of vectors
     8.791366577  8.791366577 22.178121567     0.131344829  0.131344829  0.045089481


 
 k-points in units of 2pi/SCALE and weight: Automatic mesh                          
   0.00000000  0.00000000  0.00000000       0.016
   0.01421849 -0.00820905  0.00000000       0.094
   0.02843699 -0.01641810  0.00000000       0.094
   0.04265548 -0.02462716  0.00000000       0.094
   0.05687398 -0.03283621  0.00000000       0.047
   0.02843699 -0.00000000  0.00000000       0.094
   0.04265548 -0.00820905  0.00000000       0.188
   0.05687398 -0.01641810  0.00000000       0.188
   0.05687398 -0.00000000  0.00000000       0.094
  -0.04265548  0.05746336  0.00000000       0.094
 
 k-points in reciprocal lattice and weights: Automatic mesh                          
   0.00000000  0.00000000  0.00000000       0.016
   0.12500000 -0.00000000  0.00000000       0.094
   0.25000000 -0.00000000  0.00000000       0.094
   0.37500000 -0.00000000  0.00000000       0.094
   0.50000000 -0.00000000  0.00000000       0.047
   0.25000000  0.12500000  0.00000000       0.094
   0.37500000  0.12500000  0.00000000       0.188
   0.50000000  0.12500000  0.00000000       0.188
   0.50000000  0.25000000  0.00000000       0.094
  -0.37500000  0.25000000  0.00000000       0.094
 
 position of ions in fractional coordinates (direct lattice) 
   0.00000000  0.00000000  0.23817112
   0.33333331  0.00000000  0.23817112
   0.66666663  0.00000000  0.23817112
   0.00000000  0.33333334  0.23817112
   0.33333331  0.33333334  0.23817112
   0.66666669  0.33333334  0.23817112
   0.00000000  0.66666669  0.23817112
   0.33333331  0.66666669  0.23817112
   0.66666663  0.66666669  0.23817112
   0.11111110  0.11111111  0.34605705
   0.44444445  0.11111111  0.34605705
   0.77777779  0.11111111  0.34605705
   0.11111110  0.44444445  0.34605705
   0.44444442  0.44444445  0.34605705
   0.77777779  0.44444445  0.34605705
   0.11111110  0.77777779  0.34605705
   0.44444445  0.77777779  0.34605705
   0.77777779  0.77777779  0.34605705
   0.88853747  0.22292507  0.45394903
   0.22214951  0.22214953  0.45184895
   0.55570091  0.22214953  0.45184895
   0.88798161  0.55600923  0.45346316
   0.22214953  0.55570097  0.45184895
   0.55600923  0.55600923  0.45346316
   0.88853747  0.88853747  0.45394903
   0.22292504  0.88853747  0.45394903
   0.55600917  0.88798161  0.45346316
   0.00000000  0.00000000  0.56048045
   0.33303025  0.00772235  0.56201033
   0.65924735  0.00772235  0.56201033
   0.00772235  0.33303028  0.56201033
   0.65924741  0.33303028  0.56201033
   0.00772235  0.65924741  0.56201033
   0.33303025  0.65924741  0.56201033
   0.66666663  0.66666669  0.56026041
   0.33333331  0.33333334  0.55003692
   0.33333331  0.33333334  0.62517237
 
 position of ions in cartesian coordinates  (Angst):
   0.00000000  0.00000000  5.28218814
   2.93045535  0.00000000  5.28218814
   5.86091070  0.00000000  5.28218814
   1.46522781  2.53784900  5.28218814
   4.39568315  2.53784900  5.28218814
   7.32613904  2.53784900  5.28218814
   2.93045562  5.07569801  5.28218814
   5.86091096  5.07569801  5.28218814
   8.79136632  5.07569801  5.28218814
   1.46522770  0.84594965  7.67489535
   4.39568332  0.84594965  7.67489535
   7.32613893  0.84594965  7.67489535
   2.93045542  3.38379860  7.67489535
   5.86091083  3.38379860  7.67489535
   8.79136671  3.38379860  7.67489535
   4.39568328  5.92164760  7.67489535
   7.32613890  5.92164760  7.67489535
  10.25659451  5.92164760  7.67489535
   8.79136665  1.69725042 10.06773673
   2.92949678  1.69134583 10.02116094
   5.86186940  1.69134583 10.02116094
  10.25061229  4.23320226 10.05696105
   4.39568342  4.23085535 10.02116094
   7.33212139  4.23320226 10.05696105
  11.71718799  6.76492164 10.06773673
   5.86554504  6.76492164 10.06773673
   8.79136631  6.76068952 10.05696105
   0.00000000  0.00000000 12.43040361
   2.96173598  0.05879444 12.46433333
   5.82963007  0.05879444 12.46433333
   1.53178560  2.53554161 12.46433333
   7.25958124  2.53554161 12.46433333
   2.96573278  5.01921097 12.46433333
   5.82563380  5.01921097 12.46433333
   8.79136632  5.07569801 12.42552341
   4.39568315  2.53784900 12.19878570
   4.39568315  2.53784900 13.86514873
 


--------------------------------------------------------------------------------------------------------


 k-point   1 :   0.0000 0.0000 0.0000  plane waves:   37683
 k-point   2 :   0.1250-0.0000 0.0000  plane waves:   37658
 k-point   3 :   0.2500-0.0000 0.0000  plane waves:   37682
 k-point   4 :   0.3750-0.0000 0.0000  plane waves:   37686
 k-point   5 :   0.5000-0.0000 0.0000  plane waves:   37668
 k-point   6 :   0.2500 0.1250 0.0000  plane waves:   37666
 k-point   7 :   0.3750 0.1250 0.0000  plane waves:   37708
 k-point   8 :   0.5000 0.1250 0.0000  plane waves:   37726
 k-point   9 :   0.5000 0.2500 0.0000  plane waves:   37706
 k-point  10 :  -0.3750 0.2500 0.0000  plane waves:   37686

 maximum and minimum number of plane-waves per node :     37726    37658

 maximum number of plane-waves:     37726
 maximum index in each direction: 
   IXMAX=   16   IYMAX=   16   IZMAX=   40
   IXMIN=  -16   IYMIN=  -16   IZMIN=  -40


 serial   3D FFT for wavefunctions
 parallel 3D FFT for charge:
    minimum data exchange during FFTs selected (reduces bandwidth)


 total amount of memory used by VASP MPI-rank0   123499. kBytes
=======================================================================

   base      :      30000. kBytes
   nonlr-proj:      15396. kBytes
   fftplans  :       4330. kBytes
   grid      :      17879. kBytes
   one-center:        575. kBytes
   wavefun   :      55319. kBytes
 
     INWAV:  cpu time    0.0000: real time    0.0000
 initial charge density was supplied:
 number of electron     393.0000024 magnetization 
 keeping initial charge density in first step


--------------------------------------------------------------------------------------------------------


 Maximum index for non-local projection operator         3042
 Maximum index for augmentation-charges          703 (set IRDMAX)


--------------------------------------------------------------------------------------------------------


 First call to EWALD:  gamma=   0.155
 Maximum number of real-space cells 4x 4x 2
 Maximum number of reciprocal cells 2x 2x 5

    FEWALD:  cpu time    0.0013: real time    0.0013


--------------------------------------- Iteration      1(   1)  ---------------------------------------


    POTLOK:  cpu time    0.0459: real time    0.0462
    SETDIJ:  cpu time    0.0047: real time    0.0048
     EDDAV:  cpu time   10.0226: real time   10.0244
 BZINTS: Fermi energy:    7.363372;  393.000000 electrons
         Band energy: 0.800796E+03;  BLOECHL correction:   -0.037263
       DOS:  cpu time    0.0102: real time    0.0103
    --------------------------------------------
      LOOP:  cpu time   10.0835: real time   10.0857

 eigenvalue-minimisations  :  7560
 total energy-change (2. order) : 0.2004237E+04  (-0.1861503E+05)
 number of electron     393.0000024 magnetization 
 augmentation part      393.0000024 magnetization 

 Free energy of the ion-electron system (eV)
  ---------------------------------------------------
  alpha Z        PSCENC =       752.95227045
  Ewald energy   TEWEN  =     97377.04856693
  -Hartree energ DENC   =   -134704.59094900
  -exchange      EXHF   =         0.00000000
  -V(xc)+E(xc)   XCENC  =      -433.36794224
  PAW double counting   =     38920.79302879   -37325.71835878
  entropy T*S    EENTRO =         0.00000000
  eigenvalues    EBANDS =       800.79632284
  atomic energy  EATOM  =     36616.32388275
  Solvation  Ediel_sol  =         0.00000000
  ---------------------------------------------------
  free energy    TOTEN  =      2004.23682173 eV

  energy without entropy =     2004.23682173  energy(sigma->0) =     2004.23682173


--------------------------------------------------------------------------------------------------------




--------------------------------------- Iteration      1(   2)  ---------------------------------------


     EDDAV:  cpu time    9.7779: real time    9.7812
 BZINTS: Fermi energy:    0.967275;  393.000000 electrons
         Band energy:-0.126970E+04;  BLOECHL correction:   -0.021812
       DOS:  cpu time    0.0096: real time    0.0096
    --------------------------------------------
      LOOP:  cpu time    9.7875: real time    9.7908

 eigenvalue-minimisations  :  7364
 total energy-change (2. order) :-0.2070498E+04  (-0.2020435E+04)
 number of electron     393.0000024 magnetization 
 augmentation part      393.0000024 magnetization 

 Free energy of the ion-electron system (eV)
  ---------------------------------------------------
  alpha Z        PSCENC =       752.95227045
  Ewald energy   TEWEN  =     97377.04856693
  -Hartree energ DENC   =   -134704.59094900
  -exchange      EXHF   =         0.00000000
  -V(xc)+E(xc)   XCENC  =      -433.36794224
  PAW double counting   =     38920.79302879   -37325.71835878
  entropy T*S    EENTRO =         0.00000000
  eigenvalues    EBANDS =     -1269.70182229
  atomic energy  EATOM  =     36616.32388275
  Solvation  Ediel_sol  =         0.00000000
  ---------------------------------------------------
  free energy    TOTEN  =       -66.26132340 eV

  energy without entropy =      -66.26132340  energy(sigma->0) =      -66.26132340


--------------------------------------------------------------------------------------------------------




--------------------------------------- Iteration      1(   3)  ---------------------------------------


     EDDAV:  cpu time    9.1118: real time    9.1124
 BZINTS: Fermi energy:    0.723909;  393.000000 electrons
         Band energy:-0.130416E+04;  BLOECHL correction:   -0.019944
       DOS:  cpu time    0.0100: real time    0.0100
    --------------------------------------------
      LOOP:  cpu time    9.1218: real time    9.1223

 eigenvalue-minimisations  :  6748
 total energy-change (2. order) :-0.3445339E+02  (-0.3406292E+02)
 number of electron     393.0000024 magnetization 
 augmentation part      393.0000024 magnetization 

 Free energy of the ion-electron system (eV)
  ---------------------------------------------------
  alpha Z        PSCENC =       752.95227045
  Ewald energy   TEWEN  =     97377.04856693
  -Hartree energ DENC   =   -134704.59094900
  -exchange      EXHF   =         0.00000000
  -V(xc)+E(xc)   XCENC  =      -433.36794224
  PAW double counting   =     38920.79302879   -37325.71835878
  entropy T*S    EENTRO =         0.00000000
  eigenvalues    EBANDS =     -1304.15521284
  atomic energy  EATOM  =     36616.32388275
  Solvation  Ediel_sol  =         0.00000000
  ---------------------------------------------------
  free energy    TOTEN  =      -100.71471395 eV

  energy without entropy =     -100.71471395  energy(sigma->0) =     -100.71471395


--------------------------------------------------------------------------------------------------------




--------------------------------------- Iteration      1(   4)  ---------------------------------------


     EDDAV:  cpu time    8.1639: real time    8.1642
 BZINTS: Fermi energy:    0.719705;  393.000000 electrons
         Band energy:-0.130458E+04;  BLOECHL correction:   -0.019813
       DOS:  cpu time    0.0099: real time    0.0099
    --------------------------------------------
      LOOP:  cpu time    8.1739: real time    8.1742

 eigenvalue-minimisations  :  5908
 total energy-change (2. order) :-0.4258817E+00  (-0.4256444E+00)
 number of electron     393.0000024 magnetization 
 augmentation part      393.0000024 magnetization 

 Free energy of the ion-electron system (eV)
  ---------------------------------------------------
  alpha Z        PSCENC =       752.95227045
  Ewald energy   TEWEN  =     97377.04856693
  -Hartree energ DENC   =   -134704.59094900
  -exchange      EXHF   =         0.00000000
  -V(xc)+E(xc)   XCENC  =      -433.36794224
  PAW double counting   =     38920.79302879   -37325.71835878
  entropy T*S    EENTRO =         0.00000000
  eigenvalues    EBANDS =     -1304.58109457
  atomic energy  EATOM  =     36616.32388275
  Solvation  Ediel_sol  =         0.00000000
  ---------------------------------------------------
  free energy    TOTEN  =      -101.14059567 eV

  energy without entropy =     -101.14059567  energy(sigma->0) =     -101.14059567


--------------------------------------------------------------------------------------------------------




--------------------------------------- Iteration      1(   5)  ---------------------------------------


     EDDAV:  cpu time   10.6545: real time   10.6551
 BZINTS: Fermi energy:    0.719476;  393.000000 electrons
         Band energy:-0.130460E+04;  BLOECHL correction:   -0.019804
       DOS:  cpu time    0.0100: real time    0.0100
    --------------------------------------------
      LOOP:  cpu time   10.6644: real time   10.6650

 eigenvalue-minimisations  :  8092
 total energy-change (2. order) :-0.1876668E-01  (-0.1877386E-01)
 number of electron     393.0000024 magnetization 
 augmentation part      393.0000024 magnetization 

 Free energy of the ion-electron system (eV)
  ---------------------------------------------------
  alpha Z        PSCENC =       752.95227045
  Ewald energy   TEWEN  =     97377.04856693
  -Hartree energ DENC   =   -134704.59094900
  -exchange      EXHF   =         0.00000000
  -V(xc)+E(xc)   XCENC  =      -433.36794224
  PAW double counting   =     38920.79302879   -37325.71835878
  entropy T*S    EENTRO =         0.00000000
  eigenvalues    EBANDS =     -1304.59986124
  atomic energy  EATOM  =     36616.32388275
  Solvation  Ediel_sol  =         0.00000000
  ---------------------------------------------------
  free energy    TOTEN  =      -101.15936235 eV

  energy without entropy =     -101.15936235  energy(sigma->0) =     -101.15936235


--------------------------------------------------------------------------------------------------------




--------------------------------------- Iteration      1(   6)  ---------------------------------------


    EDDIAG:  cpu time    1.3985: real time    1.3990
  RMM-DIIS:  cpu time    4.3701: real time    4.3702
    ORTHCH:  cpu time    0.2599: real time    0.2599
 BZINTS: Fermi energy:    0.719472;  393.000000 electrons
         Band energy:-0.130460E+04;  BLOECHL correction:   -0.019803
       DOS:  cpu time    0.0097: real time    0.0097
    --------------------------------------------
      LOOP:  cpu time    6.0382: real time    6.0388

 eigenvalue-minimisations  :  5528
 total energy-change (2. order) :-0.2285895E-03  (-0.2287694E-03)
 number of electron     393.0000024 magnetization 
 augmentation part      393.0000024 magnetization 

 Free energy of the ion-electron system (eV)
  ---------------------------------------------------
  alpha Z        PSCENC =       752.95227045
  Ewald energy   TEWEN  =     97377.04856693
  -Hartree energ DENC   =   -134704.59094900
  -exchange      EXHF   =         0.00000000
  -V(xc)+E(xc)   XCENC  =      -433.36794224
  PAW double counting   =     38920.79302879   -37325.71835878
  entropy T*S    EENTRO =         0.00000000
  eigenvalues    EBANDS =     -1304.60008983
  atomic energy  EATOM  =     36616.32388275
  Solvation  Ediel_sol  =         0.00000000
  ---------------------------------------------------
  free energy    TOTEN  =      -101.15959094 eV

  energy without entropy =     -101.15959094  energy(sigma->0) =     -101.15959094


--------------------------------------------------------------------------------------------------------




--------------------------------------- Iteration      1(   7)  ---------------------------------------


    EDDIAG:  cpu time    1.3999: real time    1.4001
  RMM-DIIS:  cpu time    5.5529: real time    5.5531
    ORTHCH:  cpu time    0.2596: real time    0.2596
 BZINTS: Fermi energy:    0.719471;  393.000000 electrons
         Band energy:-0.130460E+04;  BLOECHL correction:   -0.019803
       DOS:  cpu time    0.0091: real time    0.0091
    --------------------------------------------
      LOOP:  cpu time    7.2215: real time    7.2219

 eigenvalue-minimisations  :  6888
 total energy-change (2. order) :-0.6528807E-04  (-0.6514838E-04)
 number of electron     393.0000024 magnetization 
 augmentation part      393.0000024 magnetization 

 Free energy of the ion-electron system (eV)
  ---------------------------------------------------
  alpha Z        PSCENC =       752.95227045
  Ewald energy   TEWEN  =     97377.04856693
  -Hartree energ DENC   =   -134704.59094900
  -exchange      EXHF   =         0.00000000
  -V(xc)+E(xc)   XCENC  =      -433.36794224
  PAW double counting   =     38920.79302879   -37325.71835878
  entropy T*S    EENTRO =         0.00000000
  eigenvalues    EBANDS =     -1304.60015512
  atomic energy  EATOM  =     36616.32388275
  Solvation  Ediel_sol  =         0.00000000
  ---------------------------------------------------
  free energy    TOTEN  =      -101.15965623 eV

  energy without entropy =     -101.15965623  energy(sigma->0) =     -101.15965623


--------------------------------------------------------------------------------------------------------




--------------------------------------- Iteration      1(   8)  ---------------------------------------


    EDDIAG:  cpu time    1.3991: real time    1.3992
  RMM-DIIS:  cpu time    5.0998: real time    5.0999
    ORTHCH:  cpu time    0.2597: real time    0.2597
 BZINTS: Fermi energy:    0.719471;  393.000000 electrons
         Band energy:-0.130460E+04;  BLOECHL correction:   -0.019803
       DOS:  cpu time    0.0097: real time    0.0097
    --------------------------------------------
      LOOP:  cpu time    6.7682: real time    6.7685

 eigenvalue-minimisations  :  6059
 total energy-change (2. order) :-0.1836181E-04  (-0.1832218E-04)
 number of electron     393.0000024 magnetization 
 augmentation part      393.0000024 magnetization 

 Free energy of the ion-electron system (eV)
  ---------------------------------------------------
  alpha Z        PSCENC =       752.95227045
  Ewald energy   TEWEN  =     97377.04856693
  -Hartree energ DENC   =   -134704.59094900
  -exchange      EXHF   =         0.00000000
  -V(xc)+E(xc)   XCENC  =      -433.36794224
  PAW double counting   =     38920.79302879   -37325.71835878
  entropy T*S    EENTRO =         0.00000000
  eigenvalues    EBANDS =     -1304.60017348
  atomic energy  EATOM  =     36616.32388275
  Solvation  Ediel_sol  =         0.00000000
  ---------------------------------------------------
  free energy    TOTEN  =      -101.15967459 eV

  energy without entropy =     -101.15967459  energy(sigma->0) =     -101.15967459


--------------------------------------------------------------------------------------------------------




--------------------------------------- Iteration      1(   9)  ---------------------------------------


    EDDIAG:  cpu time    1.3994: real time    1.3996
  RMM-DIIS:  cpu time    3.6276: real time    3.6278
    ORTHCH:  cpu time    0.2595: real time    0.2595
 BZINTS: Fermi energy:    0.719471;  393.000000 electrons
         Band energy:-0.130460E+04;  BLOECHL correction:   -0.019803
       DOS:  cpu time    0.0097: real time    0.0097
    --------------------------------------------
      LOOP:  cpu time    5.2963: real time    5.2966

 eigenvalue-minimisations  :  3700
 total energy-change (2. order) :-0.1448905E-05  (-0.1401517E-05)
 number of electron     393.0000024 magnetization 
 augmentation part      393.0000024 magnetization 

 Free energy of the ion-electron system (eV)
  ---------------------------------------------------
  alpha Z        PSCENC =       752.95227045
  Ewald energy   TEWEN  =     97377.04856693
  -Hartree energ DENC   =   -134704.59094900
  -exchange      EXHF   =         0.00000000
  -V(xc)+E(xc)   XCENC  =      -433.36794224
  PAW double counting   =     38920.79302879   -37325.71835878
  entropy T*S    EENTRO =         0.00000000
  eigenvalues    EBANDS =     -1304.60017493
  atomic energy  EATOM  =     36616.32388275
  Solvation  Ediel_sol  =         0.00000000
  ---------------------------------------------------
  free energy    TOTEN  =      -101.15967604 eV

  energy without entropy =     -101.15967604  energy(sigma->0) =     -101.15967604


--------------------------------------------------------------------------------------------------------




 average (electrostatic) potential at core
  the test charge radii are     1.1249  1.1873  0.5201
  (the norm of the test charge is              1.0000)
       1 -78.1673       2 -78.1602       3 -78.1602       4 -78.1602       5 -78.1490
       6 -78.1600       7 -78.1602       8 -78.1600       9 -78.1750      10 -78.4001
      11 -78.3814      12 -78.4000      13 -78.3814      14 -78.3813      15 -78.3851
      16 -78.4000      17 -78.3851      18 -78.3852      19 -78.3754      20 -78.4626
      21 -78.4629      22 -78.3612      23 -78.4629      24 -78.3612      25 -78.3755
      26 -78.3753      27 -78.3612      28 -78.1489      29 -78.0932      30 -78.0933
      31 -78.0932      32 -78.0932      33 -78.0933      34 -78.0932      35 -78.1344
      36 -46.0563      37 -34.8446
 
 
 
 E-fermi :   0.7195     XC(G=0):  -5.9270     alpha+bet : -5.5763

 Fermi energy:         0.7194711464

 k-point     1 :       0.0000    0.0000    0.0000
  band No.  band energies     occupation 
      1      -6.4346      2.00000
      2      -5.5965      2.00000
      3      -5.3149      2.00000
      4      -5.1934      2.00000
      5      -5.1169      2.00000
      6      -5.1169      2.00000
      7      -5.1138      2.00000
      8      -5.1138      2.00000
      9      -5.1104      2.00000
     10      -5.1088      2.00000
     11      -5.0807      2.00000
     12      -5.0690      2.00000
     13      -5.0690      2.00000
     14      -5.0599      2.00000
     15      -5.0599      2.00000
     16      -5.0593      2.00000
     17      -4.9208      2.00000
     18      -4.9108      2.00000
     19      -4.9107      2.00000
     20      -4.9027      2.00000
     21      -4.8890      2.00000
     22      -4.8890      2.00000
     23      -4.7618      2.00000
     24      -4.7104      2.00000
     25      -4.7011      2.00000
     26      -4.7011      2.00000
     27      -4.6922      2.00000
     28      -4.6922      2.00000
     29      -4.6842      2.00000
     30      -4.6806      2.00000
     31      -4.6536      2.00000
     32      -4.6536      2.00000
     33      -4.6479      2.00000
     34      -4.6479      2.00000
     35      -4.6194      2.00000
     36      -4.5468      2.00000
     37      -4.5273      2.00000
     38      -4.5273      2.00000
     39      -4.4721      2.00000
     40      -4.4721      2.00000
     41      -4.3211      2.00000
     42      -4.3210      2.00000
     43      -4.3208      2.00000
     44      -4.2991      2.00000
     45      -4.2991      2.00000
     46      -4.2915      2.00000
     47      -4.2915      2.00000
     48      -4.2836      2.00000
     49      -4.2750      2.00000
     50      -4.2750      2.00000
     51      -4.1791      2.00000
     52      -4.1569      2.00000
     53      -4.1551      2.00000
     54      -4.0985      2.00000
     55      -3.9480      2.00000
     56      -3.9242      2.00000
     57      -3.9241      2.00000
     58      -3.9215      2.00000
     59      -3.9215      2.00000
     60      -3.9200      2.00000
     61      -3.9140      2.00000
     62      -3.8944      2.00000
     63      -3.8944      2.00000
     64      -3.8658      2.00000
     65      -3.8658      2.00000
     66      -3.7699      2.00000
     67      -3.7699      2.00000
     68      -3.7569      2.00000
     69      -3.7398      2.00000
     70      -3.7398      2.00000
     71      -3.7353      2.00000
     72      -3.7274      2.00000
     73      -3.7274      2.00000
     74      -3.7072      2.00000
     75      -3.7072      2.00000
     76      -3.6994      2.00000
     77      -3.6968      2.00000
     78      -3.6869      2.00000
     79      -3.6869      2.00000
     80      -3.6693      2.00000
     81      -3.6692      2.00000
     82      -3.6537      2.00000
     83      -3.6141      2.00000
     84      -3.6141      2.00000
     85      -3.5441      2.00000
     86      -3.5239      2.00000
     87      -3.5238      2.00000
     88      -3.5025      2.00000
     89      -3.5025      2.00000
     90      -3.4823      2.00000
     91      -3.4823      2.00000
     92      -3.4753      2.00000
     93      -3.4660      2.00000
     94      -3.4660      2.00000
     95      -3.4387      2.00000
     96      -3.4387      2.00000
     97      -3.3921      2.00000
     98      -3.3921      2.00000
     99      -3.2256      2.00000
    100      -3.2050      2.00000
    101      -3.2050      2.00000
    102      -3.1985      2.00000
    103      -3.1955      2.00000
    104      -3.1955      2.00000
    105      -3.1754      2.00000
    106      -3.1754      2.00000
    107      -3.1630      2.00000
    108      -3.1359      2.00000
    109      -3.1114      2.00000
    110      -3.1114      2.00000
    111      -3.0906      2.00000
    112      -3.0795      2.00000
    113      -3.0447      2.00000
    114      -3.0447      2.00000
    115      -2.9524      2.00000
    116      -2.9524      2.00000
    117      -2.9301      2.00000
    118      -2.9300      2.00000
    119      -2.8878      2.00000
    120      -2.8878      2.00000
    121      -2.8705      2.00000
    122      -2.8421      2.00000
    123      -2.8421      2.00000
    124      -2.8365      2.00000
    125      -2.8365      2.00000
    126      -2.8304      2.00000
    127      -2.8137      2.00000
    128      -2.8111      2.00000
    129      -2.8111      2.00000
    130      -2.8006      2.00000
    131      -2.8006      2.00000
    132      -2.7966      2.00000
    133      -2.7149      2.00000
    134      -2.7149      2.00000
    135      -2.6539      2.00000
    136      -2.6334      2.00000
    137      -2.6269      2.00000
    138      -2.6269      2.00000
    139      -2.6216      2.00000
    140      -2.6117      2.00000
    141      -2.6117      2.00000
    142      -2.5965      2.00000
    143      -2.5965      2.00000
    144      -2.5921      2.00000
    145      -2.5917      2.00000
    146      -2.5736      2.00000
    147      -2.5736      2.00000
    148      -2.5263      2.00000
    149      -2.5149      2.00000
    150      -2.5100      2.00000
    151      -2.5100      2.00000
    152      -2.5033      2.00000
    153      -2.4951      2.00000
    154      -2.4951      2.00000
    155      -2.4646      2.00000
    156      -2.4646      2.00000
    157      -2.4637      2.00000
    158      -2.4418      2.00000
    159      -2.4418      2.00000
    160      -2.4229      2.00000
    161      -2.4163      2.00000
    162      -2.4150      2.00000
    163      -2.4150      2.00000
    164      -2.4116      2.00000
    165      -2.3725      2.00000
    166      -2.3725      2.00000
    167      -2.3597      2.00000
    168      -2.3550      2.00000
    169      -2.3550      2.00000
    170      -2.3349      2.00000
    171      -2.3154      2.00000
    172      -2.3153      2.00000
    173      -2.3137      2.00000
    174      -2.2536      2.00000
    175      -2.2536      2.00000
    176      -2.2242      2.00000
    177      -2.2242      2.00000
    178      -2.2193      2.00000
    179      -2.1954      2.00000
    180      -2.1209      2.00000
    181      -2.1143      2.00000
    182      -2.1143      2.00000
    183      -2.1067      2.00000
    184      -2.1067      2.00000
    185      -1.8735      2.00000
    186      -1.3723      2.00000
    187      -1.3723      2.00000
    188      -1.3333      2.00000
    189      -1.3245      2.00000
    190      -1.3245      2.00000
    191      -1.0520      2.00000
    192      -0.1371      2.00000
    193       0.0974      2.00000
    194       0.1645      2.00000
    195       0.1645      2.00000
    196       0.2867      2.00000
    197       0.2867      2.00000
    198       0.4013      2.00000
    199       0.7297      0.00000
    200       0.7297      0.00000
    201       0.8302      0.00000
    202       0.8302      0.00000
    203       1.1724      0.00000
    204       2.1736      0.00000
    205       2.6097      0.00000
    206       2.6674      0.00000
    207       2.6675      0.00000
    208       3.0058      0.00000
    209       3.0058      0.00000
    210       3.9789      0.00000
    211       4.0253      0.00000
    212       4.1852      0.00000
    213       4.1852      0.00000
    214       4.2468      0.00000
    215       4.2468      0.00000
    216       4.7220      0.00000
    217       4.9607      0.00000
    218       4.9811      0.00000
    219       4.9811      0.00000
    220       4.9974      0.00000
    221       5.0414      0.00000
    222       5.0415      0.00000
    223       5.1381      0.00000
    224       5.1510      0.00000
    225       5.1510      0.00000
    226       5.2642      0.00000
    227       5.3112      0.00000
    228       5.3113      0.00000
    229       5.3632      0.00000
    230       6.3580      0.00000
    231       6.4865      0.00000
    232       6.6007      0.00000
    233       6.6007      0.00000
    234       6.6688      0.00000
    235       6.7874      0.00000
    236       6.7937      0.00000
    237       6.7937      0.00000
    238       7.0036      0.00000
    239       7.0037      0.00000
    240       7.0051      0.00000
    241       7.0240      0.00000
    242       7.0241      0.00000
    243       7.0347      0.00000
    244       7.2409      0.00000
    245       7.3040      0.00000
    246       7.3044      0.00000
    247       7.3120      0.00000
    248       7.4044      0.00000
    249       7.4110      0.00000
    250       7.4721      0.00000
    251       7.7273      0.00000
    252       7.7768      0.00000

 k-point     2 :       0.1250   -0.0000    0.0000
  band No.  band energies     occupation 
      1      -6.3890      2.00000
      2      -5.5587      2.00000
      3      -5.2952      2.00000
      4      -5.1810      2.00000
      5      -5.1730      2.00000
      6      -5.1291      2.00000
      7      -5.1160      2.00000
      8      -5.1153      2.00000
      9      -5.1012      2.00000
     10      -5.0889      2.00000
     11      -5.0778      2.00000
     12      -5.0666      2.00000
     13      -5.0510      2.00000
     14      -5.0155      2.00000
     15      -4.9975      2.00000
     16      -4.9966      2.00000
     17      -4.9841      2.00000
     18      -4.9501      2.00000
     19      -4.9480      2.00000
     20      -4.8547      2.00000
     21      -4.8360      2.00000
     22      -4.8030      2.00000
     23      -4.7829      2.00000
     24      -4.7718      2.00000
     25      -4.7687      2.00000
     26      -4.7296      2.00000
     27      -4.7128      2.00000
     28      -4.6769      2.00000
     29      -4.6668      2.00000
     30      -4.6640      2.00000
     31      -4.6332      2.00000
     32      -4.6251      2.00000
     33      -4.6140      2.00000
     34      -4.5692      2.00000
     35      -4.5675      2.00000
     36      -4.5546      2.00000
     37      -4.5237      2.00000
     38      -4.4950      2.00000
     39      -4.4275      2.00000
     40      -4.4271      2.00000
     41      -4.3884      2.00000
     42      -4.3849      2.00000
     43      -4.3640      2.00000
     44      -4.3421      2.00000
     45      -4.3268      2.00000
     46      -4.3254      2.00000
     47      -4.3187      2.00000
     48      -4.2617      2.00000
     49      -4.2527      2.00000
     50      -4.2194      2.00000
     51      -4.1714      2.00000
     52      -4.1312      2.00000
     53      -4.1168      2.00000
     54      -4.1058      2.00000
     55      -3.9680      2.00000
     56      -3.9540      2.00000
     57      -3.9435      2.00000
     58      -3.9372      2.00000
     59      -3.9231      2.00000
     60      -3.9176      2.00000
     61      -3.9169      2.00000
     62      -3.9010      2.00000
     63      -3.8928      2.00000
     64      -3.8799      2.00000
     65      -3.8487      2.00000
     66      -3.8067      2.00000
     67      -3.7817      2.00000
     68      -3.7808      2.00000
     69      -3.7766      2.00000
     70      -3.7698      2.00000
     71      -3.7370      2.00000
     72      -3.7346      2.00000
     73      -3.7269      2.00000
     74      -3.7212      2.00000
     75      -3.7077      2.00000
     76      -3.7010      2.00000
     77      -3.6940      2.00000
     78      -3.6826      2.00000
     79      -3.6815      2.00000
     80      -3.6543      2.00000
     81      -3.6513      2.00000
     82      -3.6375      2.00000
     83      -3.6327      2.00000
     84      -3.6304      2.00000
     85      -3.6148      2.00000
     86      -3.6076      2.00000
     87      -3.5923      2.00000
     88      -3.5469      2.00000
     89      -3.5438      2.00000
     90      -3.4994      2.00000
     91      -3.4931      2.00000
     92      -3.4654      2.00000
     93      -3.4544      2.00000
     94      -3.4008      2.00000
     95      -3.3719      2.00000
     96      -3.3509      2.00000
     97      -3.3297      2.00000
     98      -3.3293      2.00000
     99      -3.2890      2.00000
    100      -3.2597      2.00000
    101      -3.2428      2.00000
    102      -3.2309      2.00000
    103      -3.2281      2.00000
    104      -3.2000      2.00000
    105      -3.1906      2.00000
    106      -3.1722      2.00000
    107      -3.1687      2.00000
    108      -3.1470      2.00000
    109      -3.1281      2.00000
    110      -3.1096      2.00000
    111      -3.0926      2.00000
    112      -3.0912      2.00000
    113      -3.0338      2.00000
    114      -3.0308      2.00000
    115      -2.9983      2.00000
    116      -2.9839      2.00000
    117      -2.9792      2.00000
    118      -2.9615      2.00000
    119      -2.9502      2.00000
    120      -2.9486      2.00000
    121      -2.9169      2.00000
    122      -2.9079      2.00000
    123      -2.8961      2.00000
    124      -2.8877      2.00000
    125      -2.8798      2.00000
    126      -2.8494      2.00000
    127      -2.8374      2.00000
    128      -2.8308      2.00000
    129      -2.8143      2.00000
    130      -2.7982      2.00000
    131      -2.7970      2.00000
    132      -2.7811      2.00000
    133      -2.7781      2.00000
    134      -2.7515      2.00000
    135      -2.7402      2.00000
    136      -2.7304      2.00000
    137      -2.7000      2.00000
    138      -2.6991      2.00000
    139      -2.6829      2.00000
    140      -2.6464      2.00000
    141      -2.6411      2.00000
    142      -2.6124      2.00000
    143      -2.6018      2.00000
    144      -2.5957      2.00000
    145      -2.5809      2.00000
    146      -2.5755      2.00000
    147      -2.5607      2.00000
    148      -2.5501      2.00000
    149      -2.5399      2.00000
    150      -2.5388      2.00000
    151      -2.5252      2.00000
    152      -2.5226      2.00000
    153      -2.4959      2.00000
    154      -2.4926      2.00000
    155      -2.4806      2.00000
    156      -2.4776      2.00000
    157      -2.4683      2.00000
    158      -2.4571      2.00000
    159      -2.4486      2.00000
    160      -2.4420      2.00000
    161      -2.4345      2.00000
    162      -2.4276      2.00000
    163      -2.4091      2.00000
    164      -2.3908      2.00000
    165      -2.3753      2.00000
    166      -2.3715      2.00000
    167      -2.3496      2.00000
    168      -2.3446      2.00000
    169      -2.3230      2.00000
    170      -2.3214      2.00000
    171      -2.3133      2.00000
    172      -2.2808      2.00000
    173      -2.2761      2.00000
    174      -2.2660      2.00000
    175      -2.2470      2.00000
    176      -2.2390      2.00000
    177      -2.2312      2.00000
    178      -2.2111      2.00000
    179      -2.2043      2.00000
    180      -2.1970      2.00000
    181      -2.1782      2.00000
    182      -2.0644      2.00000
    183      -1.8397      2.00000
    184      -1.6740      2.00000
    185      -1.6480      2.00000
    186      -1.5560      2.00000
[...]
  0.000   0.000   0.000   0.000   0.000   0.000   0.000   0.000   0.000   0.000   0.000   0.000   0.000   0.000   0.000   0.000
  0.000   0.000   0.000   0.000   0.000   0.000   0.000   0.000   0.000   0.000   0.000   0.000   0.000   0.000   0.000   0.000
  0.000   0.000   0.000   0.000   0.000   0.000   0.000   0.000   0.000   0.000   0.000   0.000   0.000   0.000   0.000   0.000
  0.000   0.000   0.000   0.000   0.000   0.000   0.000   0.000   0.000   0.000   0.000   0.000   0.000   0.000   0.000   0.000
  0.000   0.000   0.000   0.000   0.000   0.000   0.000   0.000   0.000   0.000   0.000   0.000   0.000   0.000   0.000   0.000
  0.000   0.000   0.000   0.000   0.000   0.000   0.000   0.000   0.000   0.000   1.000   0.000   0.000   0.000   0.000   0.000
  0.000   0.000   0.000   0.000   0.000   0.000   0.000   0.000   0.000   0.000   0.000   0.000   0.000   0.000   0.000   0.000
  0.000   0.000   0.000   0.000   0.000   0.000   0.000   0.000   0.000   0.000   0.000   0.000   0.000   0.000   0.000   0.000
  0.000   0.000   0.000   0.000   0.000   0.000   0.000   0.000   0.000   0.000   0.000   0.000   0.000   0.000   0.000   0.000
  0.000   0.000   0.000   0.000   0.000   0.000   0.000   0.000   0.000   0.000   0.000   0.000   0.000   0.000   0.000   0.000
  0.000   0.000   0.000   0.000   0.000   0.000   0.000   0.000   0.000   0.000   0.000   0.000   0.000   0.000   0.000   0.000
  0.000   0.000   0.000   0.000   0.000   0.000   0.000   0.000   0.000   0.000   0.000   0.000   0.000   0.000   0.000   0.000
  0.000   0.000   0.000   0.000   0.000   0.000   0.000   0.000   0.000   0.000   0.000   0.000   0.000   0.000   0.000   0.000


------------------------ aborting loop because EDIFF is reached ----------------------------------------





 total charge

# of ion       s       p       d       tot
------------------------------------------
    1        0.421   0.200   9.180   9.801
    2        0.415   0.204   9.178   9.797
    3        0.415   0.204   9.178   9.797
    4        0.415   0.204   9.178   9.797
    5        0.422   0.201   9.176   9.799
    6        0.415   0.204   9.178   9.797
    7        0.415   0.204   9.178   9.797
    8        0.415   0.204   9.178   9.797
    9        0.417   0.201   9.179   9.797
   10        0.410   0.270   9.162   9.842
   11        0.409   0.268   9.169   9.847
   12        0.410   0.270   9.162   9.842
   13        0.409   0.268   9.169   9.847
   14        0.409   0.268   9.169   9.847
   15        0.405   0.268   9.165   9.839
   16        0.410   0.270   9.162   9.842
   17        0.405   0.268   9.165   9.839
   18        0.405   0.268   9.165   9.839
   19        0.400   0.263   9.168   9.832
   20        0.443   0.304   9.138   9.886
   21        0.443   0.304   9.138   9.886
   22        0.393   0.272   9.169   9.834
   23        0.443   0.304   9.138   9.886
   24        0.393   0.272   9.169   9.834
   25        0.400   0.263   9.168   9.832
   26        0.400   0.263   9.168   9.832
   27        0.393   0.272   9.169   9.834
   28        0.410   0.197   9.177   9.783
   29        0.427   0.217   9.159   9.803
   30        0.427   0.217   9.159   9.803
   31        0.427   0.217   9.159   9.803
   32        0.427   0.217   9.159   9.803
   33        0.427   0.217   9.159   9.803
   34        0.427   0.217   9.159   9.803
   35        0.402   0.198   9.181   9.780
   36        0.549   0.362   4.675   5.585
   37        0.530   0.017   0.000   0.547
--------------------------------------------------
tot         15.581   8.837 325.509 349.927
 
    CHARGE:  cpu time    0.3312: real time    0.3312
    FORLOC:  cpu time    0.0100: real time    0.0100
    FORNL :  cpu time    1.4847: real time    1.4849
    STRESS:  cpu time    4.4414: real time    4.4417
    FORCOR:  cpu time    0.0428: real time    0.0429
    FORHAR:  cpu time    0.0165: real time    0.0165
    OFIELD:  cpu time    0.0002: real time    0.0002

  FORCE on cell =-STRESS in cart. coord.  units (eV):
  Direction    XX          YY          ZZ          XY          YZ          ZX
  --------------------------------------------------------------------------------------
  Alpha Z   752.95227   752.95227   752.95227
  Ewald  119945.69452119945.69447************     0.00000    -0.00000    -0.00001
  Hartree129972.32544129972.32541************    -0.00000    -0.00000    -0.00000
  E(xc)   -2063.01167 -2063.01165 -2069.93030    -0.00002    -0.00000    -0.00000
  Local  ************************261269.01582     0.00020    -0.00003    -0.00005
  n-local  -352.58698  -331.64501  -343.13175    11.83689    -0.34745     0.40000
  augment  3227.30022  3227.30039  3240.93568    -0.00015    -0.00001    -0.00004
  Kinetic  4863.25811  4870.18180  4904.15539     5.13332     0.40080     0.69067
  Fock        0.00000     0.00000     0.00000     0.00000     0.00000     0.00000
  -------------------------------------------------------------------------------------
  Total     -10.07241   -10.07241     0.39328    -0.00000    -0.00000     0.00000
  in kB     -10.87116   -10.87116     0.42446    -0.00000    -0.00000     0.00000
  external pressure =       -7.11 kB  Pullay stress =        0.00 kB


 VOLUME and BASIS-vectors are now :
 -----------------------------------------------------------------------------
  energy-cutoff  :      500.00
  volume of cell :     1484.46
      direct lattice vectors                 reciprocal lattice vectors
     8.791366577  0.000000000  0.000000000     0.113747958 -0.065672414  0.000000000
     4.395683289  7.613546790  0.000000000     0.000000000  0.131344829  0.000000000
     0.000000000  0.000000000 22.178121567     0.000000000  0.000000000  0.045089481

  length of vectors
     8.791366577  8.791366577 22.178121567     0.131344829  0.131344829  0.045089481


 FORCES acting on ions
    electron-ion (+dipol)            ewald-force                    non-local-force                 convergence-correction
 -----------------------------------------------------------------------------------------------
   0.460E-04 -.282E-04 0.249E+04   -.954E-04 0.593E-04 -.249E+04   0.306E-17 -.372E-17 -.203E+01   -.271E-04 -.122E-03 0.232E+00
   0.241E-01 0.214E+00 0.249E+04   -.341E+00 -.338E+00 -.249E+04   0.160E+00 0.198E+00 -.152E+01   0.149E+00 -.718E-01 0.317E+00
   -.240E-01 0.214E+00 0.249E+04   0.341E+00 -.338E+00 -.249E+04   -.160E+00 0.198E+00 -.152E+01   -.150E+00 -.699E-01 0.317E+00
   0.197E+00 -.862E-01 0.249E+04   -.463E+00 -.126E+00 -.249E+04   0.251E+00 0.397E-01 -.152E+01   0.127E-01 0.165E+00 0.317E+00
   -.802E-05 -.203E-04 0.249E+04   0.980E-04 -.197E-05 -.249E+04   -.101E-18 -.160E-17 -.102E+01   0.615E-02 0.376E-02 0.455E+00
   -.197E+00 -.862E-01 0.249E+04   0.463E+00 -.126E+00 -.249E+04   -.251E+00 0.397E-01 -.152E+01   -.140E-01 0.166E+00 0.317E+00
   0.173E+00 -.128E+00 0.249E+04   -.122E+00 0.464E+00 -.249E+04   0.913E-01 -.238E+00 -.152E+01   -.135E+00 -.944E-01 0.317E+00
   -.173E+00 -.128E+00 0.249E+04   0.122E+00 0.464E+00 -.249E+04   -.913E-01 -.238E+00 -.152E+01   0.137E+00 -.953E-01 0.317E+00
   0.362E-04 -.132E-04 0.249E+04   0.792E-04 -.643E-04 -.249E+04   -.201E-17 0.361E-18 -.180E+01   -.665E-02 -.343E-02 0.231E+00
   0.472E+01 0.273E+01 0.813E+03   -.433E+01 -.250E+01 -.813E+03   -.448E+00 -.259E+00 -.809E+00   0.340E-01 0.197E-01 0.872E+00
   -.284E-04 0.358E+01 0.816E+03   0.406E-04 -.366E+01 -.817E+03   0.975E-12 0.148E+00 -.157E+00   0.582E-02 -.891E-01 0.942E+00
   -.472E+01 0.273E+01 0.813E+03   0.433E+01 -.250E+01 -.813E+03   0.448E+00 -.259E+00 -.809E+00   -.349E-01 0.202E-01 0.870E+00
   0.310E+01 -.179E+01 0.816E+03   -.317E+01 0.183E+01 -.817E+03   0.129E+00 -.742E-01 -.157E+00   -.744E-01 0.496E-01 0.942E+00
   -.310E+01 -.179E+01 0.816E+03   0.317E+01 0.183E+01 -.817E+03   -.129E+00 -.742E-01 -.157E+00   0.845E-01 0.491E-01 0.940E+00
   0.158E-04 0.122E+01 0.814E+03   -.108E-03 -.147E+01 -.814E+03   0.970E-12 0.148E+00 -.800E+00   -.107E-02 0.697E-01 0.826E+00
   -.806E-05 -.545E+01 0.813E+03   0.205E-04 0.500E+01 -.813E+03   0.340E-11 0.518E+00 -.809E+00   0.464E-05 -.405E-01 0.870E+00
   0.106E+01 -.612E+00 0.814E+03   -.127E+01 0.736E+00 -.814E+03   0.128E+00 -.738E-01 -.800E+00   0.598E-01 -.358E-01 0.826E+00
   -.106E+01 -.612E+00 0.814E+03   0.127E+01 0.736E+00 -.814E+03   -.128E+00 -.738E-01 -.800E+00   -.599E-01 -.346E-01 0.827E+00
   0.391E-04 -.154E+01 -.887E+03   -.127E-03 0.130E+01 0.885E+03   0.968E-12 0.147E+00 0.824E+00   0.689E-02 0.745E-01 0.114E+01
   -.466E+01 -.269E+01 -.871E+03   0.577E+01 0.333E+01 0.870E+03   -.151E+01 -.872E+00 -.149E+01   0.294E+00 0.170E+00 0.170E+01
   0.466E+01 -.269E+01 -.871E+03   -.577E+01 0.333E+01 0.870E+03   0.151E+01 -.872E+00 -.149E+01   -.306E+00 0.170E+00 0.170E+01
   -.743E+01 0.429E+01 -.878E+03   0.682E+01 -.394E+01 0.877E+03   0.417E+00 -.240E+00 0.351E+00   0.227E+00 -.133E+00 0.106E+01
   -.520E-04 0.538E+01 -.871E+03   0.400E-04 -.666E+01 0.870E+03   0.115E-10 0.174E+01 -.149E+01   -.571E-02 -.350E+00 0.170E+01
   0.743E+01 0.429E+01 -.878E+03   -.682E+01 -.394E+01 0.877E+03   -.417E+00 -.240E+00 0.351E+00   -.226E+00 -.130E+00 0.106E+01
   0.134E+01 0.771E+00 -.887E+03   -.113E+01 -.649E+00 0.885E+03   -.128E+00 -.737E-01 0.824E+00   -.566E-01 -.329E-01 0.114E+01
   -.134E+01 0.771E+00 -.887E+03   0.113E+01 -.650E+00 0.885E+03   0.128E+00 -.737E-01 0.824E+00   0.677E-01 -.314E-01 0.114E+01
   0.200E-04 -.858E+01 -.878E+03   0.110E-03 0.787E+01 0.877E+03   0.316E-11 0.481E+00 0.351E+00   -.189E-02 0.263E+00 0.106E+01
   0.533E-04 -.362E-04 -.250E+04   -.113E-03 0.769E-04 0.249E+04   0.114E-16 0.157E-17 0.200E+01   -.618E-03 -.491E-03 0.310E+00
   -.415E+01 -.620E+01 -.251E+04   0.476E+01 0.703E+01 0.251E+04   -.104E+01 -.159E+01 0.133E+01   0.445E+00 0.741E+00 0.260E+00
   0.415E+01 -.620E+01 -.251E+04   -.476E+01 0.703E+01 0.251E+04   0.104E+01 -.159E+01 0.133E+01   -.437E+00 0.742E+00 0.261E+00
   -.744E+01 -.495E+00 -.251E+04   0.847E+01 0.605E+00 0.251E+04   -.190E+01 -.107E+00 0.133E+01   0.864E+00 0.157E-01 0.260E+00
   0.744E+01 -.495E+00 -.251E+04   -.847E+01 0.605E+00 0.251E+04   0.190E+01 -.107E+00 0.133E+01   -.854E+00 0.170E-01 0.261E+00
   -.329E+01 0.669E+01 -.251E+04   0.371E+01 -.764E+01 0.251E+04   -.857E+00 0.170E+01 0.133E+01   0.424E+00 -.748E+00 0.261E+00
   0.329E+01 0.669E+01 -.251E+04   -.371E+01 -.764E+01 0.251E+04   0.857E+00 0.170E+01 0.133E+01   -.413E+00 -.748E+00 0.261E+00
   0.252E-04 -.137E-04 -.250E+04   0.104E-03 -.648E-04 0.250E+04   -.628E-17 -.202E-17 0.218E+01   -.768E-02 -.400E-02 0.423E+00
   -.225E-04 -.102E-04 -.150E+04   0.677E-04 0.862E-05 0.150E+04   0.259E-18 0.912E-18 -.265E+01   -.152E-03 -.628E-04 0.471E+00
   0.547E-05 -.434E-05 -.276E+03   0.525E-05 0.829E-07 0.279E+03   0.188E-18 -.631E-20 -.250E+01   0.109E-04 0.919E-05 -.241E+00
 -----------------------------------------------------------------------------------------------
   0.309E-03 -.713E-03 -.117E+02   0.702E-13 -.938E-13 0.335E-11   0.327E-15 0.665E-15 -.132E+02   0.351E-01 0.235E-01 0.250E+02
 
 
 POSITION                                       TOTAL-FORCE (eV/Angst)
 -----------------------------------------------------------------------------------
      0.00000      0.00000      5.28219         0.000000     -0.000000     -0.068220
      2.93046      0.00000      5.28219        -0.006952      0.002945      0.021416
      5.86091      0.00000      5.28219         0.006952      0.002945      0.021416
      1.46523      2.53785      5.28219        -0.000926     -0.007493      0.021416
      4.39568      2.53785      5.28219         0.000000     -0.000000     -0.026832
      7.32614      2.53785      5.28219         0.000926     -0.007493      0.021416
      2.93046      5.07570      5.28219         0.006026      0.004548      0.021416
      5.86091      5.07570      5.28219        -0.006026      0.004548      0.021416
      8.79137      5.07570      5.28219         0.000000     -0.000000     -0.008731
      1.46523      0.84595      7.67490        -0.018760     -0.010831     -0.022878
      4.39568      0.84595      7.67490        -0.000000     -0.027974     -0.058001
      7.32614      0.84595      7.67490         0.018760     -0.010831     -0.022878
      2.93046      3.38380      7.67490        -0.024226      0.013987     -0.058001
      5.86091      3.38380      7.67490         0.024226      0.013987     -0.058001
      8.79137      3.38380      7.67490        -0.000000     -0.031453     -0.008064
      4.39568      5.92165      7.67490         0.000000      0.021663     -0.022878
      7.32614      5.92165      7.67490        -0.027240      0.015727     -0.008064
     10.25659      5.92165      7.67490         0.027240      0.015727     -0.008064
      8.79137      1.69725     10.06774        -0.000000     -0.025067      0.006511
      2.92950      1.69135     10.02116        -0.104950     -0.060593     -0.093673
      5.86187      1.69135     10.02116         0.104950     -0.060593     -0.093673
     10.25061      4.23320     10.05696         0.030641     -0.017690      0.002057
      4.39568      4.23086     10.02116         0.000000      0.121186     -0.093673
      7.33212      4.23320     10.05696        -0.030641     -0.017690      0.002057
     11.71719      6.76492     10.06774         0.021709      0.012534      0.006511
      5.86555      6.76492     10.06774        -0.021709      0.012534      0.006511
      8.79137      6.76069     10.05696         0.000000      0.035381      0.002057
      0.00000      0.00000     12.43040         0.000000     -0.000000      0.038562
      2.96174      0.05879     12.46433         0.009648     -0.016081      0.025627
      5.82963      0.05879     12.46433        -0.009648     -0.016081      0.025627
      1.53179      2.53554     12.46433        -0.009103      0.016396      0.025627
      7.25958      2.53554     12.46433         0.009103      0.016396      0.025627
      2.96573      5.01921     12.46433        -0.018751     -0.000314      0.025627
      5.82563      5.01921     12.46433         0.018751     -0.000314      0.025627
      8.79137      5.07570     12.42552         0.000000     -0.000000      0.045020
      4.39568      2.53785     12.19879         0.000000     -0.000000      0.206336
      4.39568      2.53785     13.86515         0.000000     -0.000000      0.053753
 -----------------------------------------------------------------------------------
    total drift:                                0.035453      0.022774      0.074189


--------------------------------------------------------------------------------------------------------



  FREE ENERGIE OF THE ION-ELECTRON SYSTEM (eV)
  ---------------------------------------------------
  free  energy   TOTEN  =      -101.15967604 eV

  energy  without entropy=     -101.15967604  energy(sigma->0) =     -101.15967604
 


--------------------------------------------------------------------------------------------------------


    POTLOK:  cpu time    0.0563: real time    0.0563


--------------------------------------------------------------------------------------------------------


 stress matrix after NEB project (eV)
    -10.07241     -0.00000      0.00000
     -0.00000    -10.07241      0.00000
     -0.00000     -0.00000      0.39328
  FORCES: max atom, RMS     0.053753    0.008837
  FORCE total and by dimension    0.053753    0.053753
  Stress total and by dimension   14.249967   10.072410
     LOOP+:  cpu time   79.5857: real time   79.5997
 -----------------------------------------------------------------------------
|                                                                             |
|           W    W    AA    RRRRR   N    N  II  N    N   GGGG   !!!           |
|           W    W   A  A   R    R  NN   N  II  NN   N  G    G  !!!           |
|           W    W  A    A  R    R  N N  N  II  N N  N  G       !!!           |
|           W WW W  AAAAAA  RRRRR   N  N N  II  N  N N  G  GGG   !            |
|           WW  WW  A    A  R   R   N   NN  II  N   NN  G    G                |
|           W    W  A    A  R    R  N    N  II  N    N   GGGG   !!!           |
|                                                                             |
|     Tetrahedron method does not include variations of the Fermi             |
|     occupations, so forces and stress will be inaccurate. We suggest        |
|     using a different smearing scheme ISMEAR = 1 or 2 for metals in         |
|     relaxations.                                                            |
|                                                                             |
 -----------------------------------------------------------------------------

    4ORBIT:  cpu time    0.0000: real time    0.0000



 total charge

# of ion       s       p       d       tot
------------------------------------------
    1        0.421   0.200   9.180   9.801
    2        0.415   0.204   9.178   9.797
    3        0.415   0.204   9.178   9.797
    4        0.415   0.204   9.178   9.797
    5        0.422   0.201   9.176   9.799
    6        0.415   0.204   9.178   9.797
    7        0.415   0.204   9.178   9.797
    8        0.415   0.204   9.178   9.797
    9        0.417   0.201   9.179   9.797
   10        0.410   0.270   9.162   9.842
   11        0.409   0.268   9.169   9.847
   12        0.410   0.270   9.162   9.842
   13        0.409   0.268   9.169   9.847
   14        0.409   0.268   9.169   9.847
   15        0.405   0.268   9.165   9.839
   16        0.410   0.270   9.162   9.842
   17        0.405   0.268   9.165   9.839
   18        0.405   0.268   9.165   9.839
   19        0.400   0.263   9.168   9.832
   20        0.443   0.304   9.138   9.886
   21        0.443   0.304   9.138   9.886
   22        0.393   0.272   9.169   9.834
   23        0.443   0.304   9.138   9.886
   24        0.393   0.272   9.169   9.834
   25        0.400   0.263   9.168   9.832
   26        0.400   0.263   9.168   9.832
   27        0.393   0.272   9.169   9.834
   28        0.410   0.197   9.177   9.783
   29        0.427   0.217   9.159   9.803
   30        0.427   0.217   9.159   9.803
   31        0.427   0.217   9.159   9.803
   32        0.427   0.217   9.159   9.803
   33        0.427   0.217   9.159   9.803
   34        0.427   0.217   9.159   9.803
   35        0.402   0.198   9.181   9.780
   36        0.549   0.362   4.675   5.585
   37        0.530   0.017   0.000   0.547
--------------------------------------------------
tot         15.581   8.837 325.509 349.927
 
 BZINTS: Fermi energy:    0.719471;  393.000000 electrons
         Band energy:-0.130460E+04;  BLOECHL correction:   -0.019803

 total amount of memory used by VASP MPI-rank0   123499. kBytes
=======================================================================

   base      :      30000. kBytes
   nonlr-proj:      15396. kBytes
   fftplans  :       4330. kBytes
   grid      :      17879. kBytes
   one-center:        575. kBytes
   wavefun   :      55319. kBytes
 
  
  
 General timing and accounting informations for this job:
 ========================================================
  
                  Total CPU time used (sec):       86.895
                            User time (sec):       83.865
                          System time (sec):        3.031
                         Elapsed time (sec):       87.305
  
                   Maximum memory used (kb):      380372.
                   Average memory used (kb):          N/A
  
                          Minor page faults:        76842
                          Major page faults:            0
                 Voluntary context switches:         4613
