PROCAR new format
# of k-points:   10         # of bands:  252         # of ions:   37

 k-point     1 :    0.00000000 0.00000000 0.00000000     weight = 0.01562500

band     1 # energy   -6.43456415 # occ.  2.00000000
 
ion      s      p      d    tot
    1  0.005  0.001  0.000  0.006
    2  0.005  0.001  0.000  0.006
    3  0.005  0.001  0.000  0.006
    4  0.005  0.001  0.000  0.006
    5  0.005  0.001  0.000  0.006
    6  0.005  0.001  0.000  0.006
    7  0.005  0.001  0.000  0.006
    8  0.005  0.001  0.000  0.006
    9  0.005  0.001  0.000  0.006
   10  0.022  0.000  0.000  0.022
   11  0.022  0.000  0.000  0.022
   12  0.022  0.000  0.000  0.022
   13  0.022  0.000  0.000  0.022
   14  0.022  0.000  0.000  0.022
   15  0.021  0.000  0.000  0.021
   16  0.022  0.000  0.000  0.022
   17  0.021  0.000  0.000  0.021
   18  0.021  0.000  0.000  0.021
   19  0.022  0.000  0.000  0.022
   20  0.028  0.000  0.001  0.029
   21  0.028  0.000  0.001  0.029
   22  0.022  0.000  0.000  0.022
   23  0.028  0.000  0.001  0.029
   24  0.022  0.000  0.000  0.022
   25  0.022  0.000  0.000  0.022
   26  0.022  0.000  0.000  0.022
   27  0.022  0.000  0.000  0.022
   28  0.006  0.001  0.000  0.006
   29  0.007  0.001  0.000  0.007
   30  0.007  0.001  0.000  0.007
   31  0.007  0.001  0.000  0.007
   32  0.007  0.001  0.000  0.007
   33  0.007  0.001  0.000  0.007
   34  0.007  0.001  0.000  0.007
   35  0.006  0.001  0.000  0.006
   36  0.021  0.001  0.000  0.022
   37  0.002  0.000  0.000  0.002
tot    0.528  0.012  0.009  0.549
 
band     2 # energy   -5.59647989 # occ.  2.00000000
 
ion      s      p      d    tot
    1  0.008  0.000  0.001  0.009
    2  0.010  0.000  0.001  0.011
    3  0.010  0.000  0.001  0.011
    4  0.010  0.000  0.001  0.011
    5  0.010  0.001  0.000  0.011
    6  0.010  0.000  0.001  0.011
    7  0.010  0.000  0.001  0.011
    8  0.010  0.000  0.001  0.011
    9  0.011  0.001  0.000  0.012
   10  0.011  0.001  0.013  0.025
   11  0.013  0.001  0.009  0.023
   12  0.011  0.001  0.013  0.025
   13  0.013  0.001  0.009  0.023
   14  0.013  0.001  0.009  0.023
   15  0.015  0.001  0.009  0.024
   16  0.011  0.001  0.013  0.025
   17  0.015  0.001  0.009  0.024
   18  0.015  0.001  0.009  0.024
   19  0.005  0.001  0.009  0.015
   20  0.013  0.002  0.013  0.029
   21  0.013  0.002  0.013  0.029
   22  0.004  0.001  0.008  0.014
   23  0.013  0.002  0.013  0.029
   24  0.004  0.001  0.008  0.014
   25  0.005  0.001  0.009  0.015
   26  0.005  0.001  0.009  0.015
   27  0.004  0.001  0.008  0.014
   28  0.006  0.000  0.001  0.007
   29  0.010  0.000  0.003  0.013
   30  0.010  0.000  0.003  0.013
   31  0.010  0.000  0.003  0.013
   32  0.010  0.000  0.003  0.013
   33  0.010  0.000  0.003  0.013
   34  0.010  0.000  0.003  0.013
   35  0.005  0.000  0.001  0.006
   36  0.049  0.000  0.001  0.050
   37  0.006  0.000  0.000  0.006
tot    0.392  0.029  0.213  0.634
 
band     3 # energy   -5.31491460 # occ.  2.00000000
 
ion      s      p      d    tot
    1  0.000  0.000  0.011  0.011
    2  0.002  0.000  0.005  0.008
    3  0.002  0.000  0.005  0.008
    4  0.002  0.000  0.005  0.008
    5  0.003  0.000  0.003  0.006
    6  0.002  0.000  0.005  0.008
    7  0.002  0.000  0.005  0.008
    8  0.002  0.000  0.005  0.008
    9  0.005  0.000  0.004  0.008
   10  0.003  0.000  0.019  0.023
   11  0.001  0.000  0.023  0.024
   12  0.003  0.000  0.019  0.023
   13  0.001  0.000  0.023  0.024
   14  0.001  0.000  0.023  0.024
   15  0.000  0.000  0.018  0.018
   16  0.003  0.000  0.019  0.023
   17  0.000  0.000  0.018  0.018
   18  0.000  0.000  0.018  0.018
   19  0.006  0.000  0.024  0.031
   20  0.000  0.001  0.059  0.060
   21  0.000  0.001  0.059  0.060
   22  0.009  0.000  0.019  0.028
   23  0.000  0.001  0.059  0.060
   24  0.009  0.000  0.019  0.028
   25  0.006  0.000  0.024  0.031
   26  0.006  0.000  0.024  0.031
   27  0.009  0.000  0.019  0.028
   28  0.000  0.000  0.013  0.013
   29  0.004  0.000  0.016  0.020
   30  0.004  0.000  0.016  0.020
   31  0.004  0.000  0.016  0.020
   32  0.004  0.000  0.016  0.020
   33  0.004  0.000  0.016  0.020
   34  0.004  0.000  0.016  0.020
   35  0.000  0.000  0.010  0.010
   36  0.045  0.000  0.000  0.045
   37  0.004  0.000  0.000  0.004
tot    0.151  0.007  0.655  0.813
 
band     4 # energy   -5.19335902 # occ.  2.00000000
 
ion      s      p      d    tot
    1  0.025  0.001  0.009  0.035
    2  0.011  0.000  0.020  0.031
    3  0.011  0.000  0.020  0.031
    4  0.011  0.000  0.020  0.031
    5  0.007  0.000  0.023  0.030
    6  0.011  0.000  0.020  0.031
    7  0.011  0.000  0.020  0.031
    8  0.011  0.000  0.020  0.031
    9  0.006  0.000  0.021  0.027
   10  0.001  0.000  0.036  0.038
   11  0.000  0.000  0.015  0.015
   12  0.001  0.000  0.036  0.038
   13  0.000  0.000  0.015  0.015
   14  0.000  0.000  0.015  0.015
   15  0.005  0.001  0.005  0.012
   16  0.001  0.000  0.036  0.038
   17  0.005  0.001  0.005  0.012
   18  0.005  0.001  0.005  0.012
   19  0.001  0.000  0.020  0.021
   20  0.002  0.000  0.043  0.046
   21  0.002  0.000  0.043  0.046
   22  0.010  0.000  0.001  0.011
   23  0.002  0.000  0.043  0.046
   24  0.010  0.000  0.001  0.011
   25  0.001  0.000  0.020  0.021
   26  0.001  0.000  0.020  0.021
   27  0.010  0.000  0.001  0.011
   28  0.003  0.000  0.000  0.004
   29  0.001  0.000  0.004  0.005
   30  0.001  0.000  0.004  0.005
   31  0.001  0.000  0.004  0.005
   32  0.001  0.000  0.004  0.005
   33  0.001  0.000  0.004  0.005
   34  0.001  0.000  0.004  0.005
   35  0.007  0.001  0.000  0.007
   36  0.009  0.001  0.007  0.017
   37  0.002  0.000  0.000  0.002
tot    0.191  0.013  0.567  0.771
 
band     5 # energy   -5.11693715 # occ.  2.00000000
 
ion      s      p      d    tot
    1  0.000  0.000  0.003  0.004
    2  0.000  0.000  0.002  0.003
    3  0.001  0.000  0.007  0.008
    4  0.000  0.000  0.003  0.003
    5  0.000  0.000  0.009  0.010
    6  0.001  0.001  0.005  0.007
    7  0.001  0.000  0.006  0.008
    8  0.001  0.001  0.005  0.006
    9  0.000  0.000  0.002  0.002
   10  0.005  0.001  0.018  0.024
   11  0.008  0.001  0.073  0.082
   12  0.001  0.000  0.073  0.075
   13  0.007  0.001  0.075  0.083
   14  0.031  0.001  0.013  0.044
   15  0.003  0.001  0.015  0.019
   16  0.001  0.000  0.071  0.073
   17  0.002  0.001  0.014  0.018
   18  0.010  0.000  0.039  0.050
   19  0.000  0.000  0.028  0.029
   20  0.009  0.001  0.034  0.044
   21  0.002  0.001  0.026  0.029
   22  0.003  0.000  0.026  0.030
   23  0.002  0.001  0.026  0.029
   24  0.015  0.001  0.009  0.025
   25  0.001  0.000  0.014  0.016
   26  0.000  0.000  0.029  0.030
   27  0.004  0.000  0.026  0.030
   28  0.000  0.000  0.001  0.001
   29  0.001  0.000  0.003  0.005
   30  0.000  0.000  0.002  0.003
   31  0.001  0.000  0.003  0.005
   32  0.000  0.000  0.002  0.003
   33  0.000  0.000  0.002  0.003
   34  0.000  0.000  0.002  0.003
   35  0.000  0.000  0.006  0.006
   36  0.000  0.000  0.002  0.003
   37  0.000  0.000  0.000  0.000
tot    0.115  0.016  0.677  0.808
 
band     6 # energy   -5.11692768 # occ.  2.00000000
 
ion      s      p      d    tot
    1  0.000  0.000  0.004  0.004
    2  0.001  0.001  0.007  0.009
    3  0.000  0.000  0.003  0.003
    4  0.001  0.001  0.007  0.009
    5  0.000  0.000  0.009  0.010
    6  0.000  0.000  0.004  0.005
    7  0.001  0.000  0.003  0.004
    8  0.000  0.000  0.004  0.005
    9  0.000  0.000  0.002  0.002
   10  0.000  0.000  0.090  0.090
   11  0.023  0.001  0.034  0.058
   12  0.004  0.001  0.035  0.040
   13  0.024  0.001  0.032  0.056
   14  0.000  0.001  0.094  0.095
   15  0.007  0.001  0.031  0.039
   16  0.004  0.001  0.037  0.042
   17  0.008  0.001  0.032  0.040
   18  0.000  0.002  0.006  0.008
   19  0.001  0.000  0.019  0.020
   20  0.000  0.001  0.023  0.024
   21  0.007  0.001  0.032  0.039
   22  0.011  0.001  0.015  0.026
   23  0.007  0.001  0.031  0.038
   24  0.000  0.000  0.032  0.032
   25  0.000  0.000  0.034  0.034
   26  0.001  0.000  0.019  0.020
   27  0.011  0.001  0.015  0.027
   28  0.000  0.000  0.001  0.001
   29  0.000  0.000  0.002  0.002
   30  0.001  0.000  0.003  0.004
   31  0.000  0.000  0.002  0.002
   32  0.001  0.000  0.003  0.004
   33  0.001  0.000  0.003  0.004
   34  0.001  0.000  0.003  0.004
   35  0.000  0.000  0.006  0.006
   36  0.000  0.000  0.002  0.003
   37  0.000  0.000  0.000  0.000
tot    0.116  0.016  0.676  0.808
 
band     7 # energy   -5.11382254 # occ.  2.00000000
 
ion      s      p      d    tot
    1  0.000  0.000  0.009  0.009
    2  0.001  0.000  0.004  0.005
    3  0.000  0.000  0.003  0.003
    4  0.001  0.000  0.004  0.005
    5  0.000  0.000  0.003  0.003
    6  0.001  0.000  0.003  0.004
    7  0.000  0.000  0.003  0.003
    8  0.001  0.000  0.003  0.004
    9  0.000  0.000  0.004  0.004
   10  0.018  0.001  0.021  0.040
   11  0.000  0.001  0.029  0.031
   12  0.005  0.001  0.022  0.028
   13  0.000  0.001  0.029  0.031
   14  0.001  0.000  0.028  0.029
   15  0.003  0.000  0.041  0.044
   16  0.004  0.001  0.022  0.028
   17  0.003  0.000  0.041  0.044
   18  0.010  0.001  0.008  0.019
   19  0.005  0.001  0.026  0.033
   20  0.022  0.001  0.008  0.030
   21  0.006  0.000  0.087  0.092
   22  0.000  0.001  0.039  0.040
   23  0.005  0.000  0.087  0.092
   24  0.000  0.000  0.028  0.029
   25  0.021  0.001  0.031  0.053
   26  0.005  0.001  0.026  0.033
   27  0.000  0.001  0.039  0.040
   28  0.000  0.000  0.005  0.005
   29  0.000  0.000  0.003  0.003
   30  0.001  0.000  0.005  0.006
   31  0.000  0.000  0.003  0.003
   32  0.000  0.000  0.003  0.003
   33  0.001  0.000  0.005  0.006
   34  0.000  0.000  0.003  0.003
   35  0.000  0.000  0.001  0.001
   36  0.000  0.001  0.004  0.004
   37  0.000  0.000  0.000  0.000
tot    0.114  0.016  0.677  0.807
 
band     8 # energy   -5.11381348 # occ.  2.00000000
 
ion      s      p      d    tot
    1  0.000  0.000  0.009  0.009
    2  0.000  0.000  0.003  0.003
    3  0.001  0.000  0.004  0.005
    4  0.000  0.000  0.003  0.003
    5  0.000  0.000  0.002  0.003
    6  0.000  0.000  0.003  0.004
    7  0.001  0.000  0.004  0.005
    8  0.000  0.000  0.003  0.004
    9  0.000  0.000  0.004  0.004
   10  0.000  0.001  0.023  0.024
   11  0.001  0.000  0.029  0.030
   12  0.013  0.001  0.021  0.036
   13  0.001  0.000  0.029  0.030
   14  0.000  0.001  0.030  0.031
   15  0.008  0.001  0.019  0.027
   16  0.013  0.001  0.021  0.036
   17  0.008  0.001  0.019  0.027
   18  0.000  0.000  0.052  0.052
   19  0.016  0.001  0.029  0.046
   20  0.000  0.000  0.113  0.113
   21  0.016  0.001  0.034  0.051
   22  0.000  0.000  0.032  0.033
   23  0.016  0.001  0.034  0.051
   24  0.000  0.001  0.042  0.043
   25  0.000  0.001  0.025  0.026
   26  0.016  0.001  0.029  0.046
   27  0.000  0.000  0.032  0.033
   28  0.000  0.000  0.005  0.005
   29  0.000  0.000  0.004  0.005
   30  0.000  0.000  0.002  0.002
   31  0.000  0.000  0.004  0.005
   32  0.001  0.000  0.004  0.005
   33  0.000  0.000  0.002  0.002
   34  0.001  0.000  0.004  0.005
   35  0.000  0.000  0.001  0.001
   36  0.000  0.001  0.004  0.004
   37  0.000  0.000  0.000  0.000
tot    0.113  0.016  0.677  0.807
 
band     9 # energy   -5.11037898 # occ.  2.00000000
 
ion      s      p      d    tot
    1  0.001  0.000  0.002  0.004
    2  0.002  0.000  0.011  0.013
    3  0.002  0.000  0.010  0.013
    4  0.002  0.000  0.011  0.013
    5  0.007  0.000  0.014  0.021
    6  0.002  0.000  0.010  0.013
    7  0.002  0.000  0.010  0.013
    8  0.002  0.000  0.010  0.013
    9  0.001  0.000  0.004  0.005
   10  0.000  0.001  0.002  0.003
   11  0.002  0.000  0.038  0.039
   12  0.000  0.001  0.002  0.003
   13  0.002  0.000  0.038  0.039
   14  0.002  0.000  0.038  0.040
   15  0.000  0.000  0.023  0.023
   16  0.000  0.001  0.002  0.003
   17  0.000  0.000  0.023  0.023
   18  0.000  0.000  0.022  0.022
   19  0.006  0.001  0.015  0.022
   20  0.002  0.000  0.088  0.091
   21  0.002  0.000  0.088  0.090
   22  0.005  0.000  0.027  0.032
   23  0.002  0.000  0.088  0.090
   24  0.005  0.000  0.027  0.032
   25  0.005  0.001  0.015  0.021
   26  0.006  0.001  0.015  0.022
   27  0.005  0.000  0.027  0.032
   28  0.000  0.000  0.002  0.003
   29  0.002  0.000  0.010  0.012
   30  0.002  0.000  0.010  0.012
   31  0.002  0.000  0.010  0.012
   32  0.002  0.000  0.010  0.012
   33  0.002  0.000  0.010  0.012
   34  0.002  0.000  0.010  0.012
   35  0.004  0.000  0.000  0.005
   36  0.005  0.000  0.010  0.016
   37  0.000  0.000  0.000  0.000
tot    0.087  0.009  0.729  0.825
 
band    10 # energy   -5.10878501 # occ.  2.00000000
 
ion      s      p      d    tot
    1  0.000  0.000  0.001  0.001
    2  0.000  0.000  0.006  0.006
    3  0.000  0.000  0.006  0.006
    4  0.000  0.000  0.006  0.006
    5  0.006  0.001  0.003  0.010
    6  0.000  0.000  0.006  0.006
    7  0.000  0.000  0.006  0.006
    8  0.000  0.000  0.006  0.006
    9  0.001  0.000  0.005  0.006
   10  0.008  0.001  0.004  0.013
   11  0.013  0.001  0.040  0.053
   12  0.008  0.001  0.004  0.013
   13  0.013  0.001  0.040  0.053
   14  0.013  0.001  0.040  0.053
   15  0.001  0.000  0.053  0.054
   16  0.008  0.001  0.004  0.013
   17  0.001  0.000  0.053  0.054
   18  0.001  0.000  0.053  0.054
   19  0.012  0.001  0.028  0.040
   20  0.005  0.001  0.014  0.021
   21  0.005  0.001  0.014  0.021
   22  0.001  0.000  0.053  0.053
   23  0.005  0.001  0.014  0.021
   24  0.001  0.000  0.053  0.053
   25  0.012  0.001  0.028  0.040
   26  0.012  0.001  0.028  0.040
   27  0.001  0.000  0.053  0.054
   28  0.004  0.001  0.005  0.009
   29  0.000  0.000  0.003  0.003
   30  0.000  0.000  0.003  0.003
   31  0.000  0.000  0.003  0.003
   32  0.000  0.000  0.003  0.003
   33  0.000  0.000  0.003  0.003
   34  0.000  0.000  0.003  0.003
   35  0.002  0.000  0.005  0.007
   36  0.000  0.000  0.000  0.000
   37  0.000  0.000  0.000  0.000
tot    0.133  0.017  0.648  0.799
 
band    11 # energy   -5.08068163 # occ.  2.00000000
 
ion      s      p      d    tot
    1  0.001  0.000  0.021  0.022
    2  0.001  0.000  0.008  0.009
    3  0.001  0.000  0.008  0.009
    4  0.001  0.000  0.008  0.009
    5  0.001  0.000  0.000  0.001
    6  0.001  0.000  0.008  0.009
    7  0.001  0.000  0.008  0.009
    8  0.001  0.000  0.008  0.009
    9  0.004  0.001  0.003  0.007
   10  0.002  0.000  0.096  0.098
   11  0.004  0.001  0.023  0.028
   12  0.002  0.000  0.096  0.098
   13  0.004  0.001  0.023  0.028
   14  0.004  0.001  0.023  0.027
   15  0.009  0.001  0.028  0.038
   16  0.002  0.000  0.096  0.098
   17  0.009  0.001  0.028  0.038
   18  0.009  0.001  0.028  0.038
   19  0.001  0.000  0.034  0.034
   20  0.000  0.001  0.010  0.011
   21  0.000  0.001  0.010  0.011
   22  0.000  0.000  0.022  0.022
   23  0.000  0.001  0.010  0.011
   24  0.000  0.000  0.022  0.022
   25  0.001  0.000  0.034  0.034
   26  0.001  0.000  0.034  0.034
   27  0.000  0.000  0.022  0.022
   28  0.004  0.000  0.009  0.012
   29  0.001  0.000  0.007  0.007
   30  0.001  0.000  0.007  0.007
   31  0.001  0.000  0.007  0.007
   32  0.001  0.000  0.007  0.007
   33  0.001  0.000  0.007  0.007
   34  0.001  0.000  0.007  0.007
   35  0.000  0.000  0.002  0.002
   36  0.001  0.000  0.000  0.002
   37  0.000  0.000  0.000  0.000
tot    0.068  0.009  0.760  0.837
 
band    12 # energy   -5.06904757 # occ.  2.00000000
 
ion      s      p      d    tot
    1  0.000  0.000  0.015  0.016
    2  0.003  0.000  0.006  0.009
    3  0.000  0.000  0.011  0.011
    4  0.003  0.000  0.006  0.009
    5  0.000  0.000  0.010  0.010
    6  0.003  0.001  0.008  0.012
    7  0.000  0.000  0.011  0.011
    8  0.003  0.001  0.007  0.011
    9  0.000  0.001  0.007  0.008
   10  0.000  0.000  0.051  0.052
   11  0.000  0.000  0.037  0.037
   12  0.009  0.000  0.034  0.043
   13  0.000  0.000  0.038  0.038
   14  0.000  0.000  0.026  0.026
   15  0.010  0.000  0.034  0.044
   16  0.008  0.000  0.036  0.044
   17  0.011  0.000  0.024  0.036
   18  0.000  0.000  0.100  0.100
   19  0.000  0.000  0.027  0.027
   20  0.000  0.000  0.053  0.053
   21  0.005  0.000  0.017  0.022
   22  0.003  0.000  0.023  0.026
   23  0.005  0.000  0.021  0.026
   24  0.000  0.000  0.027  0.027
   25  0.000  0.000  0.024  0.024
   26  0.000  0.000  0.027  0.028
   27  0.003  0.000  0.024  0.026
   28  0.000  0.000  0.011  0.011
   29  0.001  0.000  0.005  0.006
   30  0.003  0.000  0.004  0.007
   31  0.001  0.000  0.005  0.006
   32  0.001  0.000  0.005  0.006
   33  0.003  0.000  0.004  0.007
   34  0.001  0.000  0.005  0.006
   35  0.000  0.000  0.005  0.005
   36  0.000  0.001  0.002  0.002
   37  0.000  0.000  0.000  0.000
tot    0.075  0.009  0.750  0.834
 
band    13 # energy   -5.06904542 # occ.  2.00000000
 
ion      s      p      d    tot
    1  0.000  0.000  0.015  0.016
    2  0.001  0.001  0.011  0.012
    3  0.004  0.001  0.005  0.010
    4  0.001  0.001  0.010  0.012
    5  0.000  0.000  0.010  0.010
    6  0.001  0.000  0.009  0.010
    7  0.004  0.001  0.006  0.010
    8  0.001  0.000  0.009  0.010
    9  0.000  0.001  0.007  0.008
   10  0.011  0.000  0.030  0.041
   11  0.000  0.000  0.030  0.031
   12  0.002  0.000  0.047  0.049
   13  0.000  0.000  0.029  0.029
   14  0.000  0.000  0.041  0.042
   15  0.004  0.000  0.071  0.076
   16  0.003  0.000  0.045  0.048
   17  0.003  0.000  0.081  0.084
   18  0.014  0.000  0.006  0.020
   19  0.000  0.000  0.025  0.026
   20  0.006  0.000  0.008  0.015
   21  0.001  0.000  0.044  0.045
   22  0.001  0.000  0.026  0.027
   23  0.002  0.000  0.039  0.041
   24  0.004  0.000  0.022  0.026
   25  0.000  0.000  0.028  0.029
   26  0.000  0.000  0.025  0.025
   27  0.001  0.000  0.026  0.027
   28  0.000  0.000  0.011  0.011
   29  0.002  0.000  0.004  0.007
   30  0.000  0.000  0.005  0.005
   31  0.002  0.000  0.004  0.007
   32  0.002  0.000  0.004  0.006
   33  0.000  0.000  0.005  0.005
   34  0.002  0.000  0.004  0.007
   35  0.000  0.000  0.005  0.005
   36  0.000  0.001  0.002  0.002
   37  0.000  0.000  0.000  0.000
tot    0.075  0.009  0.750  0.834
 
band    14 # energy   -5.05988786 # occ.  2.00000000
 
ion      s      p      d    tot
    1  0.000  0.000  0.006  0.006
    2  0.000  0.000  0.008  0.008
    3  0.003  0.000  0.006  0.009
    4  0.000  0.000  0.008  0.008
    5  0.000  0.000  0.008  0.008
    6  0.002  0.000  0.008  0.010
    7  0.003  0.000  0.006  0.009
    8  0.001  0.000  0.008  0.010
    9  0.000  0.000  0.020  0.020
   10  0.000  0.000  0.019  0.019
   11  0.003  0.000  0.021  0.023
   12  0.002  0.000  0.024  0.026
   13  0.003  0.000  0.016  0.019
   14  0.000  0.000  0.045  0.045
   15  0.000  0.000  0.033  0.034
   16  0.002  0.000  0.023  0.025
   17  0.000  0.000  0.034  0.035
   18  0.000  0.000  0.028  0.028
   19  0.007  0.000  0.037  0.043
   20  0.000  0.000  0.010  0.011
   21  0.000  0.000  0.044  0.044
   22  0.012  0.000  0.033  0.045
   23  0.000  0.000  0.038  0.039
   24  0.000  0.000  0.072  0.073
   25  0.000  0.000  0.101  0.101
   26  0.008  0.000  0.024  0.032
   27  0.010  0.000  0.039  0.050
   28  0.000  0.000  0.005  0.005
   29  0.002  0.001  0.003  0.006
   30  0.000  0.000  0.009  0.009
   31  0.002  0.001  0.004  0.007
   32  0.001  0.000  0.004  0.005
   33  0.000  0.000  0.009  0.009
   34  0.001  0.000  0.004  0.005
   35  0.000  0.000  0.010  0.010
   36  0.000  0.000  0.002  0.002
   37  0.000  0.000  0.000  0.000
tot    0.064  0.008  0.769  0.841
 
band    15 # energy   -5.05988032 # occ.  2.00000000
 
ion      s      p      d    tot
    1  0.000  0.000  0.006  0.006
    2  0.003  0.000  0.006  0.010
    3  0.000  0.000  0.009  0.009
    4  0.003  0.000  0.007  0.010
    5  0.000  0.000  0.008  0.008
    6  0.001  0.000  0.007  0.008
    7  0.000  0.000  0.009  0.009
    8  0.002  0.000  0.006  0.009
    9  0.000  0.000  0.020  0.020
   10  0.003  0.000  0.024  0.027
   11  0.001  0.000  0.034  0.035
   12  0.000  0.000  0.020  0.021
   13  0.001  0.000  0.038  0.039
   14  0.004  0.000  0.009  0.013
   15  0.000  0.000  0.030  0.030
   16  0.001  0.000  0.021  0.022
   17  0.000  0.000  0.029  0.029
   18  0.000  0.000  0.036  0.036
   19  0.003  0.000  0.071  0.074
   20  0.000  0.000  0.050  0.051
   21  0.000  0.000  0.018  0.019
   22  0.003  0.000  0.064  0.067
   23  0.000  0.000  0.024  0.024
   24  0.015  0.000  0.024  0.039
   25  0.010  0.000  0.007  0.017
   26  0.002  0.000  0.083  0.085
   27  0.005  0.000  0.057  0.062
   28  0.000  0.000  0.005  0.005
   29  0.000  0.000  0.007  0.008
   30  0.002  0.000  0.002  0.005
   31  0.000  0.000  0.007  0.007
   32  0.001  0.001  0.007  0.009
   33  0.002  0.000  0.002  0.004
   34  0.001  0.001  0.008  0.009
   35  0.000  0.000  0.010  0.010
   36  0.000  0.000  0.002  0.002
   37  0.000  0.000  0.000  0.000
tot    0.064  0.008  0.769  0.841
 
band    16 # energy   -5.05932485 # occ.  2.00000000
 
ion      s      p      d    tot
    1  0.000  0.001  0.008  0.008
    2  0.002  0.000  0.013  0.015
    3  0.002  0.000  0.013  0.015
    4  0.002  0.000  0.013  0.015
    5  0.002  0.000  0.000  0.002
    6  0.002  0.000  0.013  0.015
    7  0.002  0.000  0.013  0.015
    8  0.002  0.000  0.013  0.015
    9  0.009  0.000  0.018  0.027
   10  0.005  0.000  0.009  0.014
   11  0.000  0.000  0.016  0.016
   12  0.005  0.000  0.008  0.014
   13  0.000  0.000  0.016  0.016
   14  0.000  0.000  0.016  0.016
   15  0.000  0.000  0.040  0.040
   16  0.005  0.000  0.008  0.014
   17  0.000  0.000  0.040  0.040
   18  0.000  0.000  0.039  0.040
   19  0.000  0.001  0.020  0.021
   20  0.005  0.000  0.019  0.024
   21  0.005  0.000  0.018  0.023
   22  0.000  0.000  0.050  0.050
   23  0.005  0.000  0.019  0.023
   24  0.000  0.000  0.050  0.050
   25  0.000  0.001  0.020  0.021
   26  0.000  0.001  0.020  0.022
   27  0.000  0.000  0.050  0.050
   28  0.010  0.000  0.001  0.011
   29  0.006  0.000  0.016  0.022
   30  0.006  0.000  0.015  0.021
   31  0.006  0.000  0.016  0.022
   32  0.006  0.000  0.015  0.021
   33  0.006  0.000  0.015  0.022
   34  0.006  0.000  0.015  0.021
   35  0.010  0.000  0.032  0.042
   36  0.001  0.001  0.004  0.006
   37  0.000  0.000  0.000  0.000
tot    0.114  0.008  0.691  0.812
 
band    17 # energy   -4.92078228 # occ.  2.00000000
 
ion      s      p      d    tot
    1  0.000  0.000  0.000  0.000
    2  0.000  0.000  0.006  0.006
    3  0.000  0.000  0.006  0.006
    4  0.000  0.000  0.006  0.006
    5  0.000  0.000  0.017  0.018
    6  0.000  0.000  0.006  0.006
    7  0.000  0.000  0.006  0.006
    8  0.000  0.000  0.006  0.006
    9  0.001  0.001  0.006  0.007
   10  0.000  0.000  0.009  0.009
   11  0.000  0.001  0.082  0.083
   12  0.000  0.000  0.009  0.009
   13  0.000  0.001  0.082  0.083
   14  0.000  0.001  0.082  0.083
   15  0.001  0.001  0.037  0.038
   16  0.000  0.000  0.009  0.009
   17  0.001  0.001  0.037  0.038
   18  0.001  0.001  0.037  0.038
   19  0.000  0.000  0.020  0.021
   20  0.002  0.000  0.066  0.068
   21  0.002  0.000  0.066  0.068
   22  0.003  0.000  0.014  0.017
   23  0.002  0.000  0.066  0.068
   24  0.003  0.000  0.014  0.017
   25  0.000  0.000  0.020  0.021
   26  0.000  0.000  0.020  0.021
   27  0.003  0.000  0.014  0.017
   28  0.008  0.001  0.001  0.009
   29  0.001  0.000  0.011  0.012
   30  0.001  0.000  0.011  0.012
   31  0.001  0.000  0.011  0.012
   32  0.001  0.000  0.011  0.012
   33  0.001  0.000  0.011  0.012
   34  0.001  0.000  0.011  0.012
   35  0.000  0.000  0.000  0.001
   36  0.001  0.000  0.006  0.008
   37  0.001  0.000  0.000  0.001
tot    0.034  0.014  0.812  0.860
 
band    18 # energy   -4.91077181 # occ.  2.00000000
 
ion      s      p      d    tot
    1  0.000  0.000  0.001  0.001
    2  0.001  0.001  0.008  0.010
    3  0.000  0.000  0.009  0.010
    4  0.001  0.001  0.008  0.011
    5  0.000  0.001  0.016  0.017
    6  0.002  0.001  0.005  0.008
    7  0.000  0.000  0.009  0.010
    8  0.002  0.001  0.005  0.008
    9  0.000  0.001  0.013  0.013
   10  0.000  0.001  0.027  0.029
   11  0.001  0.000  0.078  0.079
   12  0.000  0.000  0.018  0.019
   13  0.001  0.000  0.079  0.080
   14  0.002  0.000  0.042  0.045
   15  0.001  0.000  0.023  0.024
   16  0.000  0.000  0.018  0.019
   17  0.001  0.000  0.023  0.024
   18  0.003  0.001  0.038  0.041
   19  0.000  0.000  0.009  0.009
   20  0.003  0.000  0.056  0.058
   21  0.001  0.000  0.080  0.080
   22  0.000  0.000  0.038  0.038
   23  0.001  0.000  0.079  0.080
   24  0.000  0.001  0.019  0.020
   25  0.001  0.001  0.031  0.033
   26  0.000  0.000  0.009  0.009
   27  0.000  0.000  0.038  0.038
   28  0.000  0.000  0.005  0.005
   29  0.000  0.000  0.005  0.006
   30  0.000  0.000  0.007  0.007
   31  0.000  0.000  0.005  0.006
   32  0.001  0.001  0.005  0.007
   33  0.000  0.000  0.007  0.007
   34  0.001  0.001  0.005  0.007
   35  0.000  0.000  0.001  0.001
   36  0.000  0.002  0.005  0.007
   37  0.000  0.000  0.000  0.000
tot    0.024  0.015  0.827  0.866
 
band    19 # energy   -4.91073677 # occ.  2.00000000
 
ion      s      p      d    tot
    1  0.000  0.000  0.001  0.001
    2  0.001  0.000  0.007  0.008
    3  0.002  0.001  0.006  0.009
    4  0.001  0.000  0.007  0.008
    5  0.000  0.001  0.016  0.017
    6  0.000  0.000  0.010  0.011
    7  0.002  0.001  0.006  0.009
    8  0.000  0.000  0.010  0.011
    9  0.000  0.001  0.013  0.013
   10  0.000  0.000  0.015  0.015
   11  0.002  0.000  0.055  0.057
   12  0.000  0.001  0.024  0.025
   13  0.002  0.000  0.054  0.056
   14  0.000  0.000  0.091  0.091
   15  0.002  0.000  0.033  0.035
   16  0.000  0.001  0.024  0.025
   17  0.002  0.000  0.033  0.036
   18  0.000  0.000  0.018  0.018
   19  0.001  0.001  0.024  0.025
   20  0.000  0.000  0.087  0.088
   21  0.002  0.000  0.063  0.066
   22  0.000  0.001  0.025  0.026
   23  0.002  0.000  0.064  0.066
   24  0.000  0.000  0.044  0.044
   25  0.000  0.000  0.001  0.001
   26  0.001  0.001  0.024  0.025
   27  0.000  0.001  0.025  0.026
   28  0.000  0.000  0.005  0.005
   29  0.001  0.001  0.006  0.008
   30  0.001  0.000  0.004  0.006
   31  0.001  0.001  0.006  0.008
   32  0.000  0.000  0.006  0.006
   33  0.001  0.000  0.004  0.006
   34  0.000  0.000  0.006  0.006
   35  0.000  0.000  0.001  0.001
   36  0.000  0.002  0.005  0.007
   37  0.000  0.000  0.000  0.000
tot    0.024  0.015  0.827  0.866
 
band    20 # energy   -4.90266585 # occ.  2.00000000
 
ion      s      p      d    tot
    1  0.000  0.000  0.007  0.007
    2  0.000  0.001  0.013  0.013
    3  0.000  0.001  0.013  0.013
    4  0.000  0.001  0.013  0.013
    5  0.004  0.001  0.000  0.005
    6  0.000  0.001  0.013  0.013
    7  0.000  0.001  0.013  0.013
    8  0.000  0.001  0.013  0.013
    9  0.002  0.000  0.002  0.004
   10  0.002  0.001  0.049  0.052
   11  0.000  0.000  0.025  0.025
   12  0.002  0.001  0.049  0.052
   13  0.000  0.000  0.025  0.025
   14  0.000  0.000  0.024  0.025
   15  0.003  0.000  0.022  0.026
   16  0.002  0.001  0.049  0.052
   17  0.003  0.000  0.022  0.026
   18  0.003  0.000  0.022  0.026
   19  0.001  0.000  0.055  0.057
   20  0.001  0.000  0.010  0.011
   21  0.001  0.000  0.010  0.010
   22  0.000  0.001  0.041  0.043
   23  0.001  0.000  0.010  0.010
   24  0.000  0.001  0.041  0.043
   25  0.001  0.000  0.055  0.057
   26  0.001  0.000  0.055  0.057
   27  0.000  0.001  0.041  0.043
   28  0.002  0.000  0.021  0.023
   29  0.001  0.000  0.012  0.013
   30  0.001  0.000  0.012  0.013
   31  0.001  0.000  0.012  0.013
   32  0.001  0.000  0.011  0.013
   33  0.001  0.000  0.012  0.013
   34  0.001  0.000  0.011  0.013
   35  0.007  0.001  0.000  0.008
   36  0.002  0.001  0.000  0.003
   37  0.000  0.000  0.000  0.000
tot    0.047  0.018  0.779  0.844
 
band    21 # energy   -4.88899292 # occ.  2.00000000
 
ion      s      p      d    tot
    1  0.000  0.001  0.018  0.019
    2  0.001  0.001  0.008  0.010
    3  0.000  0.000  0.011  0.011
    4  0.001  0.001  0.008  0.010
    5  0.000  0.000  0.004  0.005
    6  0.001  0.000  0.005  0.006
    7  0.000  0.000  0.011  0.011
    8  0.001  0.000  0.005  0.006
    9  0.000  0.000  0.004  0.005
   10  0.000  0.000  0.072  0.072
   11  0.000  0.001  0.029  0.030
   12  0.001  0.000  0.059  0.060
   13  0.000  0.001  0.029  0.031
   14  0.000  0.000  0.000  0.000
   15  0.000  0.001  0.035  0.036
   16  0.001  0.000  0.059  0.060
   17  0.000  0.001  0.034  0.035
   18  0.000  0.000  0.073  0.073
   19  0.001  0.000  0.039  0.040
   20  0.000  0.000  0.008  0.008
   21  0.000  0.001  0.025  0.026
   22  0.002  0.000  0.038  0.041
   23  0.000  0.001  0.024  0.025
   24  0.000  0.000  0.029  0.029
   25  0.000  0.000  0.074  0.074
   26  0.001  0.000  0.038  0.040
   27  0.002  0.000  0.038  0.041
   28  0.000  0.000  0.010  0.010
   29  0.000  0.000  0.004  0.004
   30  0.000  0.000  0.007  0.008
   31  0.000  0.000  0.004  0.004
   32  0.001  0.001  0.004  0.006
   33  0.000  0.000  0.007  0.008
   34  0.001  0.001  0.004  0.006
   35  0.000  0.001  0.014  0.014
   36  0.000  0.000  0.000  0.000