PROCAR new format
# of k-points:   10         # of bands:  252         # of ions:   36

 k-point     1 :    0.00000000 0.00000000 0.00000000     weight = 0.01562500

band     1 # energy   -8.65536636 # occ.  2.00000000
 
ion      s      p      d    tot
    1  0.007  0.001  0.000  0.008
    2  0.007  0.001  0.000  0.008
    3  0.007  0.001  0.000  0.008
    4  0.007  0.001  0.000  0.008
    5  0.007  0.001  0.000  0.008
    6  0.007  0.001  0.000  0.008
    7  0.007  0.001  0.000  0.008
    8  0.007  0.001  0.000  0.008
    9  0.007  0.001  0.000  0.008
   10  0.026  0.000  0.000  0.026
   11  0.025  0.000  0.000  0.026
   12  0.026  0.000  0.000  0.026
   13  0.025  0.000  0.000  0.026
   14  0.025  0.000  0.000  0.026
   15  0.026  0.000  0.000  0.026
   16  0.026  0.000  0.000  0.026
   17  0.026  0.000  0.000  0.026
   18  0.026  0.000  0.000  0.026
   19  0.025  0.000  0.000  0.025
   20  0.023  0.000  0.000  0.023
   21  0.023  0.000  0.000  0.023
   22  0.024  0.000  0.000  0.025
   23  0.023  0.000  0.000  0.023
   24  0.024  0.000  0.000  0.025
   25  0.025  0.000  0.000  0.025
   26  0.025  0.000  0.000  0.025
   27  0.024  0.000  0.000  0.025
   28  0.007  0.001  0.000  0.007
   29  0.006  0.001  0.000  0.007
   30  0.006  0.001  0.000  0.007
   31  0.006  0.001  0.000  0.007
   32  0.006  0.001  0.000  0.007
   33  0.006  0.001  0.000  0.007
   34  0.006  0.001  0.000  0.007
   35  0.007  0.001  0.000  0.007
   36  0.006  0.001  0.000  0.007
tot    0.565  0.017  0.001  0.583
 
band     2 # energy   -7.34085528 # occ.  2.00000000
 
ion      s      p      d    tot
    1  0.018  0.001  0.001  0.019
    2  0.018  0.001  0.001  0.019
    3  0.018  0.001  0.001  0.019
    4  0.018  0.001  0.001  0.019
    5  0.018  0.001  0.001  0.019
    6  0.018  0.001  0.001  0.019
    7  0.018  0.001  0.001  0.019
    8  0.018  0.001  0.001  0.019
    9  0.018  0.001  0.001  0.019
   10  0.009  0.002  0.001  0.012
   11  0.009  0.002  0.000  0.012
   12  0.009  0.002  0.001  0.012
   13  0.009  0.002  0.000  0.012
   14  0.009  0.002  0.000  0.012
   15  0.009  0.002  0.001  0.012
   16  0.009  0.002  0.001  0.012
   17  0.009  0.002  0.001  0.012
   18  0.009  0.002  0.001  0.012
   19  0.013  0.002  0.001  0.015
   20  0.009  0.002  0.001  0.012
   21  0.009  0.002  0.001  0.012
   22  0.012  0.002  0.001  0.015
   23  0.009  0.002  0.001  0.012
   24  0.012  0.002  0.001  0.015
   25  0.013  0.002  0.001  0.015
   26  0.013  0.002  0.001  0.015
   27  0.012  0.002  0.001  0.015
   28  0.020  0.001  0.000  0.022
   29  0.018  0.001  0.000  0.019
   30  0.018  0.001  0.000  0.019
   31  0.018  0.001  0.000  0.019
   32  0.018  0.001  0.000  0.019
   33  0.018  0.001  0.000  0.019
   34  0.018  0.001  0.000  0.019
   35  0.020  0.001  0.000  0.022
   36  0.015  0.001  0.001  0.017
tot    0.509  0.055  0.020  0.584
 
band     3 # energy   -5.74034378 # occ.  2.00000000
 
ion      s      p      d    tot
    1  0.018  0.000  0.006  0.024
    2  0.015  0.000  0.006  0.021
    3  0.015  0.000  0.006  0.021
    4  0.015  0.000  0.006  0.021
    5  0.005  0.001  0.007  0.013
    6  0.015  0.000  0.006  0.021
    7  0.015  0.000  0.006  0.021
    8  0.015  0.000  0.006  0.021
    9  0.025  0.000  0.004  0.029
   10  0.003  0.003  0.003  0.009
   11  0.014  0.005  0.001  0.020
   12  0.003  0.003  0.003  0.009
   13  0.014  0.005  0.001  0.020
   14  0.014  0.005  0.001  0.020
   15  0.000  0.003  0.005  0.007
   16  0.003  0.003  0.003  0.009
   17  0.000  0.003  0.005  0.007
   18  0.000  0.003  0.005  0.007
   19  0.000  0.003  0.005  0.008
   20  0.017  0.005  0.002  0.023
   21  0.017  0.005  0.002  0.023
   22  0.001  0.004  0.003  0.008
   23  0.017  0.005  0.002  0.023
   24  0.001  0.004  0.003  0.008
   25  0.000  0.003  0.005  0.008
   26  0.000  0.003  0.005  0.008
   27  0.001  0.004  0.003  0.008
   28  0.022  0.000  0.005  0.027
   29  0.015  0.000  0.006  0.022
   30  0.015  0.000  0.006  0.022
   31  0.015  0.000  0.006  0.022
   32  0.015  0.000  0.006  0.022
   33  0.015  0.000  0.006  0.022
   34  0.015  0.000  0.006  0.022
   35  0.024  0.000  0.005  0.030
   36  0.003  0.001  0.015  0.020
tot    0.383  0.072  0.175  0.630
 
band     4 # energy   -5.68183310 # occ.  2.00000000
 
ion      s      p      d    tot
    1  0.000  0.003  0.004  0.008
    2  0.006  0.002  0.002  0.010
    3  0.009  0.002  0.002  0.013
    4  0.006  0.002  0.002  0.010
    5  0.000  0.000  0.002  0.002
    6  0.000  0.001  0.002  0.003
    7  0.008  0.002  0.002  0.013
    8  0.000  0.001  0.002  0.003
    9  0.000  0.002  0.005  0.007
   10  0.044  0.001  0.006  0.051
   11  0.000  0.007  0.005  0.012
   12  0.011  0.008  0.006  0.025
   13  0.000  0.007  0.005  0.012
   14  0.000  0.001  0.004  0.006
   15  0.011  0.001  0.013  0.026
   16  0.010  0.009  0.006  0.024
   17  0.012  0.001  0.013  0.027
   18  0.048  0.005  0.002  0.055
   19  0.015  0.004  0.011  0.031
   20  0.021  0.004  0.003  0.027
   21  0.005  0.003  0.010  0.018
   22  0.003  0.010  0.003  0.016
   23  0.005  0.003  0.010  0.018
   24  0.012  0.000  0.006  0.019
   25  0.063  0.003  0.005  0.071
   26  0.017  0.004  0.011  0.032
   27  0.003  0.010  0.002  0.016
   28  0.000  0.004  0.006  0.010
   29  0.005  0.002  0.002  0.009
   30  0.012  0.003  0.003  0.017
   31  0.005  0.002  0.002  0.009
   32  0.001  0.001  0.003  0.005
   33  0.012  0.003  0.003  0.017
   34  0.002  0.001  0.003  0.005
   35  0.000  0.002  0.003  0.005
   36  0.000  0.000  0.008  0.009
tot    0.347  0.115  0.180  0.642
 
band     5 # energy   -5.68172523 # occ.  2.00000000
 
ion      s      p      d    tot
    1  0.000  0.003  0.004  0.007
    2  0.004  0.001  0.002  0.007
    3  0.001  0.001  0.002  0.004
    4  0.004  0.001  0.002  0.008
    5  0.000  0.000  0.002  0.002
    6  0.010  0.002  0.002  0.014
    7  0.001  0.001  0.002  0.004
    8  0.009  0.002  0.002  0.014
    9  0.000  0.002  0.005  0.007
   10  0.000  0.011  0.006  0.017
   11  0.000  0.003  0.005  0.008
   12  0.031  0.004  0.006  0.041
   13  0.000  0.003  0.005  0.008
   14  0.000  0.009  0.005  0.014
   15  0.037  0.004  0.006  0.046
   16  0.033  0.004  0.006  0.042
   17  0.036  0.004  0.006  0.045
   18  0.000  0.000  0.017  0.017
   19  0.049  0.004  0.007  0.059
   20  0.000  0.002  0.013  0.015
   21  0.015  0.004  0.005  0.024
   22  0.009  0.004  0.005  0.018
   23  0.015  0.004  0.005  0.024
   24  0.000  0.014  0.001  0.015
   25  0.000  0.005  0.013  0.018
   26  0.047  0.004  0.007  0.058
   27  0.010  0.003  0.005  0.018
   28  0.000  0.004  0.006  0.010
   29  0.007  0.002  0.003  0.012
   30  0.000  0.001  0.002  0.004
   31  0.008  0.002  0.003  0.012
   32  0.011  0.002  0.003  0.016
   33  0.000  0.001  0.002  0.004
   34  0.010  0.002  0.003  0.015
   35  0.000  0.002  0.003  0.005
   36  0.000  0.000  0.008  0.009
tot    0.347  0.115  0.180  0.641
 
band     6 # energy   -5.66909075 # occ.  2.00000000
 
ion      s      p      d    tot
    1  0.020  0.003  0.001  0.024
    2  0.000  0.002  0.004  0.006
    3  0.000  0.002  0.004  0.006
    4  0.000  0.002  0.004  0.006
    5  0.000  0.000  0.000  0.001
    6  0.000  0.002  0.004  0.006
    7  0.000  0.002  0.004  0.006
    8  0.000  0.002  0.004  0.006
    9  0.011  0.002  0.000  0.013
   10  0.028  0.005  0.007  0.040
   11  0.003  0.001  0.011  0.015
   12  0.029  0.005  0.007  0.041
   13  0.003  0.001  0.011  0.015
   14  0.003  0.001  0.011  0.015
   15  0.015  0.009  0.003  0.026
   16  0.029  0.005  0.007  0.041
   17  0.015  0.009  0.003  0.026
   18  0.015  0.009  0.003  0.026
   19  0.020  0.009  0.002  0.031
   20  0.000  0.002  0.010  0.012
   21  0.000  0.002  0.010  0.012
   22  0.027  0.003  0.008  0.038
   23  0.000  0.002  0.010  0.012
   24  0.027  0.003  0.008  0.038
   25  0.021  0.009  0.002  0.032
   26  0.020  0.009  0.002  0.031
   27  0.027  0.003  0.008  0.038
   28  0.018  0.003  0.000  0.021
   29  0.000  0.002  0.004  0.006
   30  0.000  0.002  0.004  0.006
   31  0.000  0.002  0.004  0.006
   32  0.000  0.002  0.004  0.006
   33  0.000  0.002  0.004  0.006
   34  0.000  0.002  0.004  0.006
   35  0.015  0.003  0.001  0.019
   36  0.000  0.000  0.000  0.000
tot    0.347  0.116  0.176  0.639
 
band     7 # energy   -5.66240673 # occ.  2.00000000
 
ion      s      p      d    tot
    1  0.000  0.000  0.004  0.004
    2  0.006  0.002  0.003  0.011
    3  0.010  0.002  0.002  0.014
    4  0.006  0.002  0.003  0.010
    5  0.000  0.003  0.006  0.009
    6  0.000  0.001  0.002  0.003
    7  0.009  0.002  0.002  0.014
    8  0.000  0.001  0.002  0.003
    9  0.000  0.002  0.003  0.005
   10  0.000  0.002  0.014  0.016
   11  0.049  0.004  0.007  0.060
   12  0.014  0.004  0.006  0.024
   13  0.047  0.004  0.007  0.058
   14  0.000  0.005  0.013  0.018
   15  0.010  0.003  0.005  0.018
   16  0.015  0.004  0.005  0.024
   17  0.009  0.004  0.005  0.018
   18  0.000  0.014  0.002  0.015
   19  0.000  0.003  0.005  0.008
   20  0.000  0.011  0.005  0.017
   21  0.032  0.004  0.006  0.042
   22  0.037  0.004  0.006  0.047
   23  0.033  0.004  0.006  0.043
   24  0.000  0.000  0.017  0.017
   25  0.000  0.009  0.006  0.015
   26  0.000  0.004  0.005  0.008
   27  0.038  0.004  0.006  0.048
   28  0.000  0.000  0.002  0.002
   29  0.004  0.001  0.002  0.008
   30  0.009  0.002  0.003  0.014
   31  0.004  0.001  0.002  0.007
   32  0.001  0.001  0.002  0.004
   33  0.008  0.002  0.003  0.014
   34  0.001  0.001  0.002  0.004
   35  0.000  0.002  0.005  0.007
   36  0.000  0.004  0.008  0.013
tot    0.344  0.116  0.183  0.643
 
band     8 # energy   -5.66230674 # occ.  2.00000000
 
ion      s      p      d    tot
    1  0.000  0.000  0.004  0.004
    2  0.004  0.002  0.002  0.008
    3  0.001  0.001  0.002  0.004
    4  0.005  0.002  0.002  0.008
    5  0.000  0.003  0.006  0.009
    6  0.010  0.003  0.003  0.016
    7  0.001  0.001  0.002  0.005
    8  0.010  0.003  0.003  0.015
    9  0.000  0.002  0.003  0.005
   10  0.019  0.004  0.003  0.026
   11  0.015  0.004  0.012  0.031
   12  0.005  0.003  0.011  0.019
   13  0.017  0.004  0.011  0.033
   14  0.064  0.004  0.005  0.072
   15  0.003  0.011  0.003  0.017
   16  0.004  0.003  0.011  0.018
   17  0.004  0.010  0.003  0.017
   18  0.013  0.000  0.007  0.020
   19  0.000  0.007  0.005  0.013
   20  0.043  0.001  0.006  0.050
   21  0.012  0.009  0.006  0.026
   22  0.013  0.001  0.013  0.028
   23  0.010  0.009  0.006  0.025
   24  0.051  0.005  0.003  0.058
   25  0.000  0.002  0.004  0.006
   26  0.000  0.007  0.005  0.012
   27  0.012  0.001  0.014  0.026
   28  0.000  0.000  0.002  0.002
   29  0.005  0.002  0.003  0.009
   30  0.000  0.001  0.002  0.003
   31  0.005  0.002  0.003  0.010
   32  0.008  0.002  0.003  0.013
   33  0.001  0.001  0.002  0.003
   34  0.008  0.002  0.003  0.013
   35  0.000  0.002  0.005  0.007
   36  0.000  0.004  0.008  0.012
tot    0.344  0.116  0.183  0.643
 
band     9 # energy   -5.58139242 # occ.  2.00000000
 
ion      s      p      d    tot
    1  0.000  0.001  0.001  0.002
    2  0.002  0.002  0.006  0.010
    3  0.002  0.002  0.006  0.010
    4  0.002  0.002  0.006  0.010
    5  0.040  0.003  0.000  0.044
    6  0.002  0.002  0.006  0.010
    7  0.002  0.002  0.006  0.010
    8  0.002  0.002  0.006  0.010
    9  0.003  0.002  0.004  0.009
   10  0.005  0.005  0.008  0.018
   11  0.021  0.009  0.004  0.035
   12  0.005  0.005  0.008  0.018
   13  0.021  0.009  0.004  0.035
   14  0.021  0.009  0.004  0.035
   15  0.025  0.001  0.012  0.038
   16  0.005  0.005  0.008  0.018
   17  0.025  0.001  0.012  0.038
   18  0.025  0.001  0.012  0.038
   19  0.010  0.002  0.009  0.021
   20  0.018  0.005  0.005  0.028
   21  0.018  0.005  0.005  0.028
   22  0.006  0.006  0.005  0.017
   23  0.018  0.005  0.005  0.028
   24  0.006  0.006  0.005  0.017
   25  0.010  0.002  0.009  0.021
   26  0.010  0.002  0.009  0.021
   27  0.006  0.006  0.005  0.017
   28  0.000  0.001  0.003  0.004
   29  0.003  0.001  0.003  0.006
   30  0.003  0.001  0.003  0.006
   31  0.003  0.001  0.003  0.006
   32  0.003  0.001  0.003  0.006
   33  0.003  0.001  0.003  0.006
   34  0.003  0.001  0.003  0.006
   35  0.000  0.000  0.002  0.002
   36  0.020  0.002  0.000  0.022
tot    0.349  0.108  0.192  0.649
 
band    10 # energy   -4.93302896 # occ.  2.00000000
 
ion      s      p      d    tot
    1  0.000  0.004  0.011  0.015
    2  0.018  0.003  0.005  0.026
    3  0.000  0.002  0.005  0.007
    4  0.017  0.003  0.005  0.026
    5  0.000  0.000  0.011  0.011
    6  0.013  0.003  0.005  0.021
    7  0.000  0.002  0.005  0.007
    8  0.014  0.003  0.005  0.022
    9  0.000  0.005  0.008  0.013
   10  0.000  0.004  0.022  0.026
   11  0.002  0.002  0.010  0.014
   12  0.007  0.002  0.010  0.018
   13  0.003  0.002  0.010  0.014
   14  0.000  0.002  0.014  0.017
   15  0.017  0.004  0.010  0.031
   16  0.007  0.002  0.010  0.019
   17  0.018  0.004  0.010  0.032
   18  0.000  0.000  0.022  0.022
   19  0.012  0.004  0.010  0.026
   20  0.000  0.003  0.014  0.017
   21  0.000  0.001  0.011  0.012
   22  0.008  0.003  0.010  0.020
   23  0.000  0.001  0.011  0.013
   24  0.000  0.002  0.028  0.031
   25  0.000  0.000  0.017  0.017
   26  0.012  0.004  0.010  0.027
   27  0.008  0.003  0.010  0.021
   28  0.000  0.004  0.008  0.012
   29  0.020  0.003  0.007  0.029
   30  0.000  0.002  0.006  0.008
   31  0.019  0.003  0.007  0.029
   32  0.017  0.003  0.007  0.026
   33  0.000  0.002  0.006  0.008
   34  0.017  0.003  0.007  0.027
   35  0.000  0.005  0.010  0.015
   36  0.000  0.000  0.025  0.025
tot    0.231  0.093  0.381  0.705
 
band    11 # energy   -4.93301844 # occ.  2.00000000
 
ion      s      p      d    tot
    1  0.000  0.004  0.011  0.015
    2  0.003  0.002  0.005  0.010
    3  0.021  0.004  0.005  0.030
    4  0.004  0.002  0.005  0.011
    5  0.000  0.000  0.011  0.011
    6  0.008  0.002  0.005  0.015
    7  0.020  0.004  0.005  0.030
    8  0.007  0.002  0.005  0.014
    9  0.000  0.005  0.008  0.013
   10  0.009  0.001  0.006  0.016
   11  0.001  0.002  0.013  0.016
   12  0.002  0.003  0.018  0.024
   13  0.001  0.002  0.013  0.016
   14  0.003  0.002  0.009  0.013
   15  0.006  0.002  0.018  0.026
   16  0.002  0.003  0.018  0.023
   17  0.006  0.001  0.018  0.025
   18  0.024  0.005  0.006  0.034
   19  0.004  0.002  0.015  0.020
   20  0.001  0.001  0.010  0.011
   21  0.000  0.002  0.013  0.015
   22  0.003  0.002  0.022  0.027
   23  0.000  0.002  0.013  0.015
   24  0.011  0.003  0.004  0.017
   25  0.016  0.006  0.008  0.030
   26  0.004  0.001  0.015  0.020
   27  0.003  0.002  0.022  0.027
   28  0.000  0.004  0.008  0.012
   29  0.005  0.002  0.007  0.013
   30  0.024  0.003  0.007  0.034
   31  0.005  0.002  0.007  0.014
   32  0.007  0.002  0.006  0.016
   33  0.024  0.003  0.007  0.034
   34  0.007  0.002  0.006  0.016
   35  0.000  0.005  0.010  0.015
   36  0.000  0.000  0.025  0.025
tot    0.231  0.093  0.381  0.705
 
band    12 # energy   -4.91215580 # occ.  2.00000000
 
ion      s      p      d    tot
    1  0.011  0.000  0.008  0.019
    2  0.005  0.001  0.009  0.014
    3  0.005  0.001  0.009  0.014
    4  0.005  0.001  0.009  0.014
    5  0.001  0.001  0.009  0.011
    6  0.005  0.001  0.009  0.014
    7  0.005  0.001  0.009  0.014
    8  0.005  0.001  0.009  0.014
    9  0.005  0.000  0.008  0.013
   10  0.004  0.000  0.025  0.029
   11  0.010  0.000  0.022  0.033
   12  0.004  0.000  0.025  0.029
   13  0.010  0.000  0.022  0.033
   14  0.010  0.000  0.022  0.033
   15  0.005  0.000  0.022  0.027
   16  0.004  0.000  0.025  0.029
   17  0.005  0.000  0.022  0.027
   18  0.005  0.000  0.022  0.027
   19  0.003  0.000  0.022  0.025
   20  0.009  0.000  0.023  0.032
   21  0.009  0.000  0.023  0.032
   22  0.007  0.000  0.023  0.030
   23  0.009  0.000  0.023  0.032
   24  0.007  0.000  0.023  0.030
   25  0.003  0.000  0.022  0.025
   26  0.003  0.000  0.022  0.025
   27  0.007  0.000  0.023  0.030
   28  0.011  0.000  0.007  0.018
   29  0.004  0.001  0.008  0.013
   30  0.004  0.001  0.008  0.013
   31  0.004  0.001  0.008  0.013
   32  0.004  0.000  0.008  0.013
   33  0.004  0.001  0.008  0.013
   34  0.004  0.000  0.008  0.013
   35  0.004  0.000  0.008  0.013
   36  0.001  0.002  0.015  0.017
tot    0.199  0.013  0.569  0.781
 
band    13 # energy   -4.90535552 # occ.  2.00000000
 
ion      s      p      d    tot
    1  0.027  0.004  0.001  0.032
    2  0.000  0.003  0.010  0.013
    3  0.000  0.003  0.010  0.013
    4  0.000  0.003  0.010  0.013
    5  0.000  0.000  0.000  0.000
    6  0.000  0.003  0.010  0.013
    7  0.000  0.003  0.010  0.013
    8  0.000  0.003  0.010  0.013
    9  0.037  0.003  0.000  0.040
   10  0.011  0.003  0.010  0.025
   11  0.000  0.000  0.015  0.015
   12  0.011  0.003  0.010  0.025
   13  0.000  0.000  0.015  0.015
   14  0.000  0.000  0.015  0.015
   15  0.005  0.004  0.018  0.027
   16  0.011  0.003  0.010  0.025
   17  0.005  0.004  0.018  0.027
   18  0.005  0.004  0.018  0.027
   19  0.006  0.003  0.018  0.028
   20  0.001  0.000  0.014  0.015
   21  0.001  0.000  0.014  0.015
   22  0.009  0.004  0.010  0.023
   23  0.001  0.000  0.014  0.015
   24  0.009  0.004  0.010  0.023
   25  0.007  0.003  0.018  0.028
   26  0.006  0.003  0.018  0.028
   27  0.009  0.004  0.010  0.023
   28  0.030  0.004  0.001  0.034
   29  0.000  0.003  0.010  0.013
   30  0.000  0.003  0.010  0.013
   31  0.000  0.003  0.010  0.013
   32  0.000  0.003  0.010  0.013
   33  0.000  0.003  0.010  0.013
   34  0.000  0.003  0.010  0.013
   35  0.036  0.003  0.000  0.039
   36  0.000  0.000  0.001  0.001
tot    0.230  0.094  0.380  0.704
 
band    14 # energy   -4.87486891 # occ.  2.00000000
 
ion      s      p      d    tot
    1  0.000  0.002  0.010  0.012
    2  0.019  0.004  0.006  0.028
    3  0.000  0.002  0.005  0.007
    4  0.019  0.003  0.005  0.028
    5  0.000  0.006  0.009  0.015
    6  0.013  0.003  0.006  0.022
    7  0.001  0.002  0.005  0.008
    8  0.014  0.003  0.006  0.023
    9  0.000  0.001  0.014  0.014
   10  0.013  0.005  0.010  0.028
   11  0.005  0.002  0.023  0.030
   12  0.003  0.001  0.015  0.019
   13  0.004  0.002  0.024  0.030
   14  0.017  0.004  0.005  0.027
   15  0.000  0.002  0.017  0.020
   16  0.003  0.001  0.015  0.020
   17  0.000  0.003  0.018  0.021
   18  0.000  0.000  0.009  0.009
   19  0.001  0.003  0.017  0.021
   20  0.023  0.005  0.005  0.032
   21  0.005  0.002  0.021  0.029
   22  0.002  0.001  0.015  0.019
   23  0.006  0.002  0.021  0.029
   24  0.010  0.003  0.009  0.022
   25  0.002  0.000  0.008  0.010
   26  0.001  0.003  0.017  0.021
   27  0.003  0.002  0.014  0.019
   28  0.000  0.002  0.012  0.014
   29  0.015  0.003  0.006  0.025
   30  0.000  0.001  0.005  0.006
   31  0.015  0.003  0.006  0.024
   32  0.012  0.003  0.006  0.021
   33  0.000  0.001  0.005  0.006
   34  0.013  0.003  0.006  0.022
   35  0.000  0.001  0.010  0.011
   36  0.000  0.008  0.014  0.021
tot    0.221  0.094  0.397  0.712
 
band    15 # energy   -4.87483116 # occ.  2.00000000
 
ion      s      p      d    tot
    1  0.000  0.002  0.010  0.012
    2  0.003  0.002  0.006  0.010
    3  0.021  0.004  0.006  0.031
    4  0.003  0.002  0.006  0.011
    5  0.000  0.006  0.009  0.015
    6  0.009  0.002  0.005  0.017
    7  0.021  0.004  0.006  0.031
    8  0.008  0.002  0.005  0.016
    9  0.000  0.001  0.014  0.014
   10  0.000  0.000  0.016  0.017
   11  0.013  0.004  0.011  0.028
   12  0.010  0.004  0.011  0.025
   13  0.013  0.004  0.011  0.028
   14  0.000  0.002  0.030  0.031
   15  0.000  0.001  0.012  0.013
   16  0.010  0.004  0.012  0.025
   17  0.000  0.001  0.011  0.012
   18  0.000  0.003  0.021  0.024
   19  0.002  0.001  0.011  0.014
   20  0.000  0.001  0.027  0.028
   21  0.017  0.004  0.010  0.031
   22  0.008  0.003  0.011  0.021
   23  0.017  0.004  0.010  0.031
   24  0.000  0.001  0.016  0.017
   25  0.000  0.004  0.020  0.025
   26  0.002  0.001  0.011  0.014
   27  0.008  0.003  0.011  0.021
   28  0.000  0.002  0.012  0.014
   29  0.003  0.002  0.005  0.010
   30  0.019  0.004  0.007  0.029
   31  0.004  0.002  0.005  0.011
   32  0.006  0.002  0.005  0.014
   33  0.019  0.004  0.007  0.029
   34  0.006  0.002  0.005  0.013
   35  0.000  0.001  0.010  0.011
   36  0.000  0.008  0.014  0.021
tot    0.221  0.094  0.397  0.712
 
band    16 # energy   -4.73665239 # occ.  2.00000000
 
ion      s      p      d    tot
    1  0.015  0.002  0.000  0.017
    2  0.000  0.003  0.012  0.015
    3  0.000  0.003  0.012  0.015
    4  0.000  0.003  0.012  0.015
    5  0.045  0.004  0.000  0.049
    6  0.000  0.003  0.012  0.015
    7  0.000  0.003  0.012  0.015
    8  0.000  0.003  0.012  0.015
    9  0.005  0.001  0.001  0.006
   10  0.001  0.001  0.028  0.030
   11  0.004  0.004  0.022  0.030
   12  0.001  0.001  0.028  0.030
   13  0.004  0.004  0.022  0.030
   14  0.004  0.004  0.022  0.030
   15  0.003  0.001  0.009  0.013
   16  0.001  0.001  0.028  0.030
   17  0.003  0.001  0.009  0.013
   18  0.003  0.001  0.009  0.013
   19  0.011  0.001  0.023  0.034
   20  0.012  0.004  0.006  0.022
   21  0.012  0.004  0.006  0.022
   22  0.002  0.002  0.018  0.022
   23  0.012  0.004  0.006  0.022
   24  0.002  0.002  0.018  0.022
   25  0.011  0.001  0.023  0.034
   26  0.011  0.001  0.023  0.034
   27  0.002  0.002  0.018  0.022
   28  0.003  0.002  0.005  0.010
   29  0.001  0.002  0.008  0.011
   30  0.001  0.002  0.008  0.011
   31  0.001  0.002  0.008  0.011
   32  0.001  0.002  0.008  0.011
   33  0.001  0.002  0.008  0.011
   34  0.001  0.002  0.008  0.011
   35  0.003  0.001  0.002  0.006
   36  0.037  0.005  0.000  0.042
tot    0.213  0.083  0.444  0.740
 
band    17 # energy   -4.26039971 # occ.  2.00000000
 
ion      s      p      d    tot
    1  0.000  0.001  0.032  0.032
    2  0.015  0.001  0.009  0.025
    3  0.007  0.001  0.008  0.016
    4  0.015  0.001  0.009  0.025
    5  0.000  0.001  0.015  0.016
    6  0.002  0.001  0.009  0.011
    7  0.007  0.001  0.008  0.016
    8  0.002  0.001  0.009  0.011
    9  0.000  0.003  0.003  0.006
   10  0.000  0.000  0.062  0.062
   11  0.000  0.003  0.018  0.021
   12  0.000  0.000  0.019  0.019
   13  0.000  0.003  0.018  0.021
   14  0.000  0.000  0.011  0.011
   15  0.001  0.005  0.016  0.022
   16  0.000  0.000  0.019  0.019
   17  0.001  0.005  0.017  0.022
   18  0.000  0.000  0.026  0.026
   19  0.002  0.004  0.016  0.022
   20  0.000  0.000  0.053  0.053
   21  0.000  0.000  0.020  0.020
   22  0.002  0.003  0.016  0.020
   23  0.000  0.000  0.020  0.020
   24  0.000  0.000  0.029  0.029
   25  0.000  0.000  0.012  0.012
   26  0.002  0.004  0.016  0.022
   27  0.002  0.003  0.016  0.020
   28  0.000  0.001  0.007  0.008
   29  0.011  0.001  0.015  0.026
   30  0.000  0.001  0.012  0.013
   31  0.011  0.001  0.015  0.026
   32  0.012  0.000  0.014  0.026
   33  0.000  0.001  0.012  0.013
   34  0.012  0.000  0.014  0.026
   35  0.000  0.002  0.009  0.011
   36  0.000  0.000  0.054  0.054
tot    0.100  0.048  0.657  0.805
 
band    18 # energy   -4.26029296 # occ.  2.00000000
 
ion      s      p      d    tot
    1  0.000  0.001  0.032  0.032
    2  0.001  0.001  0.008  0.010
    3  0.009  0.001  0.009  0.019
    4  0.001  0.001  0.008  0.010
    5  0.000  0.001  0.016  0.016
    6  0.014  0.001  0.009  0.024
    7  0.009  0.001  0.009  0.019
    8  0.014  0.001  0.009  0.024
    9  0.000  0.003  0.003  0.006
   10  0.000  0.000  0.004  0.005
   11  0.000  0.001  0.013  0.014
   12  0.000  0.000  0.048  0.048
   13  0.000  0.001  0.013  0.014
   14  0.000  0.004  0.020  0.024
   15  0.000  0.002  0.023  0.025
   16  0.000  0.000  0.048  0.048
   17  0.000  0.002  0.023  0.025
   18  0.001  0.006  0.013  0.020
   19  0.001  0.001  0.013  0.015
   20  0.000  0.000  0.009  0.009
   21  0.000  0.000  0.042  0.042
   22  0.001  0.001  0.025  0.026
   23  0.000  0.000  0.042  0.042
   24  0.002  0.004  0.012  0.017
   25  0.003  0.005  0.017  0.025
   26  0.001  0.001  0.013  0.015
   27  0.001  0.001  0.025  0.026
   28  0.000  0.001  0.007  0.008
   29  0.004  0.001  0.012  0.017
   30  0.015  0.000  0.015  0.030
   31  0.004  0.001  0.012  0.017
   32  0.003  0.001  0.013  0.018
   33  0.015  0.000  0.015  0.030
   34  0.003  0.001  0.013  0.018
   35  0.000  0.002  0.009  0.011
   36  0.000  0.000  0.054  0.054
tot    0.100  0.048  0.657  0.805
 
band    19 # energy   -4.20586447 # occ.  2.00000000
 
ion      s      p      d    tot
    1  0.003  0.000  0.001  0.004
    2  0.000  0.001  0.019  0.020
    3  0.000  0.001  0.019  0.020
    4  0.000  0.001  0.019  0.020
    5  0.014  0.000  0.000  0.015
    6  0.000  0.001  0.019  0.020
    7  0.000  0.001  0.019  0.020
    8  0.000  0.001  0.019  0.020
    9  0.029  0.001  0.002  0.032
   10  0.001  0.001  0.011  0.013
   11  0.000  0.001  0.019  0.020
   12  0.001  0.001  0.011  0.013
   13  0.000  0.001  0.019  0.020
   14  0.000  0.001  0.019  0.020
   15  0.001  0.004  0.041  0.046
   16  0.001  0.001  0.011  0.013
   17  0.001  0.004  0.041  0.046
   18  0.001  0.004  0.041  0.046
   19  0.000  0.001  0.029  0.030
   20  0.000  0.001  0.006  0.006
   21  0.000  0.001  0.006  0.006
   22  0.001  0.004  0.035  0.039
   23  0.000  0.001  0.006  0.006
   24  0.001  0.004  0.035  0.039
   25  0.000  0.001  0.029  0.030
   26  0.000  0.001  0.029  0.030
   27  0.001  0.004  0.035  0.039
   28  0.022  0.001  0.000  0.023
   29  0.000  0.001  0.018  0.019
   30  0.000  0.001  0.018  0.019
   31  0.000  0.001  0.018  0.019
   32  0.000  0.001  0.018  0.019
   33  0.000  0.001  0.018  0.019
   34  0.000  0.001  0.018  0.019
   35  0.024  0.001  0.002  0.027
   36  0.000  0.000  0.001  0.001
tot    0.099  0.053  0.646  0.799
 
band    20 # energy   -4.18895880 # occ.  2.00000000
 
ion      s      p      d    tot
    1  0.000  0.002  0.002  0.004
    2  0.014  0.001  0.011  0.026
    3  0.008  0.001  0.010  0.018
    4  0.014  0.001  0.011  0.026
    5  0.000  0.002  0.022  0.023
    6  0.001  0.001  0.010  0.012
    7  0.008  0.001  0.010  0.018
    8  0.001  0.001  0.010  0.012
    9  0.000  0.000  0.034  0.034
   10  0.001  0.007  0.021  0.029
   11  0.000  0.001  0.039  0.040
   12  0.000  0.002  0.013  0.015
   13  0.000  0.001  0.040  0.040
   14  0.001  0.002  0.006  0.009
   15  0.000  0.000  0.033  0.033
   16  0.000  0.002  0.013  0.015
   17  0.000  0.000  0.033  0.033
   18  0.000  0.001  0.012  0.013
   19  0.000  0.000  0.048  0.049
   20  0.001  0.007  0.018  0.026
   21  0.000  0.002  0.014  0.016
   22  0.000  0.001  0.023  0.023
   23  0.000  0.002  0.014  0.016
   24  0.000  0.003  0.017  0.020
   25  0.000  0.001  0.003  0.004
   26  0.000  0.000  0.048  0.049
   27  0.000  0.001  0.023  0.023
   28  0.000  0.001  0.032  0.034
   29  0.012  0.001  0.011  0.024
   30  0.000  0.001  0.009  0.010
   31  0.012  0.001  0.011  0.023
   32  0.011  0.001  0.010  0.022
   33  0.000  0.001  0.009  0.010
   34  0.011  0.001  0.010  0.022
   35  0.000  0.000  0.027  0.027
   36  0.000  0.003  0.001  0.004
tot    0.096  0.052  0.655  0.803
 
band    21 # energy   -4.18885031 # occ.  2.00000000
 
ion      s      p      d    tot
    1  0.000  0.002  0.002  0.004
    2  0.001  0.001  0.010  0.011
    3  0.007  0.001  0.011  0.019
    4  0.001  0.001  0.010  0.011
    5  0.000  0.002  0.022  0.023
    6  0.014  0.001  0.010  0.025
    7  0.007  0.001  0.011  0.019
    8  0.014  0.001  0.010  0.025
    9  0.000  0.000  0.034  0.034
   10  0.000  0.000  0.010  0.010
   11  0.001  0.002  0.017  0.019
   12  0.001  0.005  0.018  0.025
   13  0.001  0.002  0.017  0.019
   14  0.000  0.000  0.051  0.051
   15  0.000  0.001  0.019  0.020
   16  0.001  0.005  0.018  0.024
   17  0.000  0.001  0.019  0.020
   18  0.000  0.000  0.040  0.040
   19  0.000  0.001  0.018  0.019
   20  0.000  0.000  0.013  0.013
   21  0.001  0.005  0.017  0.023
   22  0.000  0.002  0.019  0.021
   23  0.001  0.005  0.017  0.023
   24  0.000  0.000  0.025  0.025
   25  0.000  0.000  0.063  0.063
   26  0.000  0.001  0.018  0.019
   27  0.000  0.002  0.019  0.021
   28  0.000  0.001  0.032  0.034
   29  0.003  0.001  0.009  0.014
   30  0.015  0.001  0.011  0.027
   31  0.004  0.001  0.009  0.014
   32  0.004  0.001  0.010  0.015
   33  0.015  0.001  0.011  0.027
   34  0.004  0.001  0.010  0.015
   35  0.000  0.000  0.027  0.027
   36  0.000  0.003  0.001  0.004
tot    0.096  0.052  0.655  0.803
 
band    22 # energy   -4.08860227 # occ.  2.00000000
 
ion      s      p      d    tot
    1  0.027  0.001  0.003  0.030
    2  0.000  0.001  0.020  0.022
    3  0.000  0.001  0.020  0.022
    4  0.000  0.001  0.020  0.022
    5  0.009  0.000  0.006  0.015
    6  0.000  0.001  0.020  0.022
    7  0.000  0.001  0.020  0.022
    8  0.000  0.001  0.020  0.022
    9  0.005  0.000  0.000  0.005
   10  0.001  0.002  0.031  0.033
   11  0.001  0.001  0.029  0.032
   12  0.001  0.002  0.031  0.033
   13  0.001  0.001  0.029  0.032
   14  0.001  0.001  0.029  0.032
   15  0.000  0.000  0.016  0.016
   16  0.001  0.002  0.031  0.033