 vasp.6.2.0 18Jan21 (build Jun 12 2021 23:27:24) complex                        
  
 executed on             LinuxIFC date 2022.05.28  00:41:49
 running on   28 total cores
 distrk:  each k-point on   28 cores,    1 groups
 distr:  one band on NCORE=   1 cores,   28 groups


--------------------------------------------------------------------------------------------------------


 INCAR:
   ISMEAR = -5
   SIGMA = 0.1
   ISPIN = 1
   EDIFF = 1.d-5
   EDIFFG = -0.01
   NSW = 0
   NELM = 150
   ENCUT = 500
   ISIF = 2
   IBRION = 2
   LREAL = Auto
   ALGO = Fast
   ICHARG = 11
   LORBIT = 10
   LCHARG = .F.
   LWAVE = .F.

 POTCAR:    PAW_PBE Au 04Oct2007                  
 POTCAR:    PAW_PBE Cr 06Sep2000                  
 POTCAR:    PAW_PBE H 15Jun2001                   
 POTCAR:    PAW_PBE O 08Apr2002                   
 -----------------------------------------------------------------------------
|                                                                             |
|           W    W    AA    RRRRR   N    N  II  N    N   GGGG   !!!           |
|           W    W   A  A   R    R  NN   N  II  NN   N  G    G  !!!           |
|           W    W  A    A  R    R  N N  N  II  N N  N  G       !!!           |
|           W WW W  AAAAAA  RRRRR   N  N N  II  N  N N  G  GGG   !            |
|           WW  WW  A    A  R   R   N   NN  II  N   NN  G    G                |
|           W    W  A    A  R    R  N    N  II  N    N   GGGG   !!!           |
|                                                                             |
|     For optimal performance we recommend to set                             |
|       NCORE = 2 up to number-of-cores-per-socket                            |
|     NCORE specifies how many cores store one orbital (NPAR=cpu/NCORE).      |
|     This setting can greatly improve the performance of VASP for DFT.       |
|     The default, NCORE=1 might be grossly inefficient on modern             |
|     multi-core architectures or massively parallel machines. Do your        |
|     own testing! More info at https://www.vasp.at/wiki/index.php/NCORE      |
|     Unfortunately you need to use the default for GW and RPA                |
|     calculations (for HF NCORE is supported but not extensively tested      |
|     yet).                                                                   |
|                                                                             |
 -----------------------------------------------------------------------------

 POTCAR:    PAW_PBE Au 04Oct2007                  
   VRHFIN =Au: s1d10                                                                                
   LEXCH  = PE                                                                                      
   EATOM  =   926.0867 eV,   68.0654 Ry                                                             
                                                                                                    
   TITEL  = PAW_PBE Au 04Oct2007                                                                    
   LULTRA =        F    use ultrasoft PP ?                                                          
   IUNSCR =        1    unscreen: 0-lin 1-nonlin 2-no                                               
   RPACOR =    2.330    partial core radius                                                         
   POMASS =  196.966; ZVAL   =   11.000    mass and valenz                                          
   RCORE  =    2.500    outmost cutoff radius                                                       
   RWIGS  =    2.840; RWIGS  =    1.503    wigner-seitz radius (au A)                               
   ENMAX  =  229.943; ENMIN  =  172.457 eV                                                          
   ICORE  =        3    local potential                                                             
   LCOR   =        T    correct aug charges                                                         
   LPAW   =        T    paw PP                                                                      
   EAUG   =  356.670                                                                                
   DEXC   =    0.000                                                                                
   RMAX   =    2.562    core radius for proj-oper                                                   
   RAUG   =    1.300    factor for augmentation sphere                                              
   RDEP   =    2.598    radius for radial grids                                                     
   RDEPT  =    2.193    core radius for aug-charge                                                  
                                                                                                    
   Atomic configuration                                                                             
   16 entries                                                                                       
     n  l   j            E        occ.                                                              
     1  0  0.50    -80748.5001   2.0000                                                             
     2  0  0.50    -14244.7466   2.0000                                                             
     2  1  1.50    -12310.9591   6.0000                                                             
     3  0  0.50     -3362.1768   2.0000                                                             
     3  1  1.50     -2801.5463   6.0000                                                             
     3  2  2.50     -2203.8206  10.0000                                                             
     4  0  0.50      -729.8168   2.0000                                                             
     4  1  1.50      -546.0527   6.0000                                                             
     4  2  2.50      -325.7302  10.0000                                                             
     4  3  3.50       -81.1472  14.0000                                                             
     5  0  0.50      -108.3201   2.0000                                                             
     5  1  1.50       -59.7479   6.0000                                                             
     5  2  2.50        -6.8783  10.0000                                                             
     6  0  0.50        -5.7602   1.0000                                                             
     6  1  1.50        -6.8029   0.0000                                                             
     5  3  2.50        -1.3606   0.0000                                                             
   Description                                                                                      
     l       E           TYP  RCUT    TYP  RCUT                                                     
     2     -6.8782861     23  2.500                                                                 
     2     -8.2388687     23  2.500                                                                 
     0     -5.7601759     23  2.500                                                                 
     0     -0.8493231     23  2.500                                                                 
     1     -2.7211652     23  2.500                                                                 
     1     27.2116520     23  2.500                                                                 
     3     -1.3605826     23  2.500                                                                 
  local pseudopotential read in
  partial core-charges read in
  partial kinetic energy density read in
  atomic valenz-charges read in
  non local Contribution for L=           2  read in
    real space projection operators read in
  non local Contribution for L=           2  read in
    real space projection operators read in
  non local Contribution for L=           0  read in
    real space projection operators read in
  non local Contribution for L=           0  read in
    real space projection operators read in
  non local Contribution for L=           1  read in
    real space projection operators read in
  non local Contribution for L=           1  read in
    real space projection operators read in
    PAW grid and wavefunctions read in
 
   number of l-projection  operators is LMAX  =           6
   number of lm-projection operators is LMMAX =          18
 
 POTCAR:    PAW_PBE Cr 06Sep2000                  
   VRHFIN =Cr : d5 s1                                                                               
   LEXCH  = PE                                                                                      
   EATOM  =   276.8859 eV,   20.3505 Ry                                                             
                                                                                                    
   TITEL  = PAW_PBE Cr 06Sep2000                                                                    
   LULTRA =        F    use ultrasoft PP ?                                                          
   IUNSCR =        1    unscreen: 0-lin 1-nonlin 2-no                                               
   RPACOR =    2.080    partial core radius                                                         
   POMASS =   51.996; ZVAL   =    6.000    mass and valenz                                          
   RCORE  =    2.500    outmost cutoff radius                                                       
   RWIGS  =    2.500; RWIGS  =    1.323    wigner-seitz radius (au A)                               
   ENMAX  =  227.080; ENMIN  =  170.310 eV                                                          
   RCLOC  =    1.721    cutoff for local pot                                                        
   LCOR   =        T    correct aug charges                                                         
   LPAW   =        T    paw PP                                                                      
   EAUG   =  402.108                                                                                
   DEXC   =    0.000                                                                                
   RMAX   =    2.552    core radius for proj-oper                                                   
   RAUG   =    1.300    factor for augmentation sphere                                              
   RDEP   =    2.609    radius for radial grids                                                     
   RDEPT  =    2.065    core radius for aug-charge                                                  
                                                                                                    
   Atomic configuration                                                                             
    9 entries                                                                                       
     n  l   j            E        occ.                                                              
     1  0  0.50     -5880.4963   2.0000                                                             
     2  0  0.50      -667.0865   2.0000                                                             
     2  1  1.50      -560.6250   6.0000                                                             
     3  0  0.50       -73.9860   2.0000                                                             
     3  1  1.50       -45.4378   6.0000                                                             
     3  2  2.50        -2.9137   5.0000                                                             
     4  0  0.50        -4.0071   1.0000                                                             
     4  1  0.50        -1.2789   0.0000                                                             
     4  3  2.50        -1.3606   0.0000                                                             
   Description                                                                                      
     l       E           TYP  RCUT    TYP  RCUT                                                     
     2     -2.9136677     23  2.500                                                                 
     2     -4.2742503     23  2.500                                                                 
     0     -4.0071322     23  2.500                                                                 
     0      9.4498801     23  2.500                                                                 
     1     -5.4423304     23  2.500                                                                 
     1     27.2116520     23  2.500                                                                 
  local pseudopotential read in
  partial core-charges read in
  partial kinetic energy density read in
  atomic valenz-charges read in
  non local Contribution for L=           2  read in
    real space projection operators read in
  non local Contribution for L=           2  read in
    real space projection operators read in
  non local Contribution for L=           0  read in
    real space projection operators read in
  non local Contribution for L=           0  read in
    real space projection operators read in
  non local Contribution for L=           1  read in
    real space projection operators read in
  non local Contribution for L=           1  read in
    real space projection operators read in
    PAW grid and wavefunctions read in
 
   number of l-projection  operators is LMAX  =           6
   number of lm-projection operators is LMMAX =          18
 
 POTCAR:    PAW_PBE H 15Jun2001                   
   VRHFIN =H: ultrasoft test                                                                        
   LEXCH  = PE                                                                                      
   EATOM  =    12.4884 eV,    0.9179 Ry                                                             
                                                                                                    
   TITEL  = PAW_PBE H 15Jun2001                                                                     
   LULTRA =        F    use ultrasoft PP ?                                                          
   IUNSCR =        0    unscreen: 0-lin 1-nonlin 2-no                                               
   RPACOR =    0.000    partial core radius                                                         
   POMASS =    1.000; ZVAL   =    1.000    mass and valenz                                          
   RCORE  =    1.100    outmost cutoff radius                                                       
   RWIGS  =    0.700; RWIGS  =    0.370    wigner-seitz radius (au A)                               
   ENMAX  =  250.000; ENMIN  =  200.000 eV                                                          
   RCLOC  =    0.701    cutoff for local pot                                                        
   LCOR   =        T    correct aug charges                                                         
   LPAW   =        T    paw PP                                                                      
   EAUG   =  400.000                                                                                
   RMAX   =    1.123    core radius for proj-oper                                                   
   RAUG   =    1.200    factor for augmentation sphere                                              
   RDEP   =    1.112    radius for radial grids                                                     
   RDEPT  =    0.926    core radius for aug-charge                                                  
                                                                                                    
   Atomic configuration                                                                             
    2 entries                                                                                       
     n  l   j            E        occ.                                                              
     1  0  0.50        -6.4927   1.0000                                                             
     2  1  0.50        -3.4015   0.0000                                                             
   Description                                                                                      
     l       E           TYP  RCUT    TYP  RCUT                                                     
     0     -6.4927494     23  1.100                                                                 
     0      6.8029130     23  1.100                                                                 
     1     -4.0817478     23  1.100                                                                 
  local pseudopotential read in
  atomic valenz-charges read in
  non local Contribution for L=           0  read in
    real space projection operators read in
  non local Contribution for L=           0  read in
    real space projection operators read in
  non local Contribution for L=           1  read in
    real space projection operators read in
    PAW grid and wavefunctions read in
 
   number of l-projection  operators is LMAX  =           3
   number of lm-projection operators is LMMAX =           5
 
 POTCAR:    PAW_PBE O 08Apr2002                   
   VRHFIN =O: s2p4                                                                                  
   LEXCH  = PE                                                                                      
   EATOM  =   432.3788 eV,   31.7789 Ry                                                             
                                                                                                    
   TITEL  = PAW_PBE O 08Apr2002                                                                     
   LULTRA =        F    use ultrasoft PP ?                                                          
   IUNSCR =        1    unscreen: 0-lin 1-nonlin 2-no                                               
   RPACOR =    1.200    partial core radius                                                         
   POMASS =   16.000; ZVAL   =    6.000    mass and valenz                                          
   RCORE  =    1.520    outmost cutoff radius                                                       
   RWIGS  =    1.550; RWIGS  =    0.820    wigner-seitz radius (au A)                               
   ENMAX  =  400.000; ENMIN  =  300.000 eV                                                          
   ICORE  =        2    local potential                                                             
   LCOR   =        T    correct aug charges                                                         
   LPAW   =        T    paw PP                                                                      
   EAUG   =  605.392                                                                                
   DEXC   =    0.000                                                                                
   RMAX   =    1.553    core radius for proj-oper                                                   
   RAUG   =    1.300    factor for augmentation sphere                                              
   RDEP   =    1.550    radius for radial grids                                                     
   RDEPT  =    1.329    core radius for aug-charge                                                  
                                                                                                    
   Atomic configuration                                                                             
    4 entries                                                                                       
     n  l   j            E        occ.                                                              
     1  0  0.50      -514.6923   2.0000                                                             
     2  0  0.50       -23.9615   2.0000                                                             
     2  1  0.50        -9.0305   4.0000                                                             
     3  2  1.50        -9.5241   0.0000                                                             
   Description                                                                                      
     l       E           TYP  RCUT    TYP  RCUT                                                     
     0    -23.9615318     23  1.200                                                                 
     0     -9.5240782     23  1.200                                                                 
     1     -9.0304911     23  1.520                                                                 
     1      8.1634956     23  1.520                                                                 
     2     -9.5240782      7  1.500                                                                 
  local pseudopotential read in
  partial core-charges read in
  partial kinetic energy density read in
  kinetic energy density of atom read in
  atomic valenz-charges read in
  non local Contribution for L=           0  read in
    real space projection operators read in
  non local Contribution for L=           0  read in
    real space projection operators read in
  non local Contribution for L=           1  read in
    real space projection operators read in
  non local Contribution for L=           1  read in
    real space projection operators read in
    PAW grid and wavefunctions read in
 
   number of l-projection  operators is LMAX  =           4
   number of lm-projection operators is LMMAX =           8
 
 Optimization of the real space projectors (new method)

 maximal supplied QI-value         = 15.12
 optimisation between [QCUT,QGAM] = [ 11.34, 22.83] = [ 36.00,145.93] Ry 
 Optimized for a Real-space Cutoff    1.39 Angstroem

   l    n(q)    QCUT    max X(q) W(low)/X(q) W(high)/X(q)  e(spline) 
   2      9    11.338    60.898    0.39E-03    0.42E-03    0.21E-06
   2      9    11.338    58.894    0.40E-03    0.42E-03    0.22E-06
   0      9    11.338   109.617    0.13E-03    0.20E-04    0.13E-06
   0      9    11.338    75.026    0.13E-03    0.20E-04    0.13E-06
   1      9    11.338    16.344    0.33E-04    0.24E-03    0.18E-06
   1      9    11.338    10.160    0.26E-04    0.19E-03    0.15E-06
 Optimization of the real space projectors (new method)

 maximal supplied QI-value         = 15.12
 optimisation between [QCUT,QGAM] = [ 11.34, 22.83] = [ 36.00,145.93] Ry 
 Optimized for a Real-space Cutoff    1.43 Angstroem

   l    n(q)    QCUT    max X(q) W(low)/X(q) W(high)/X(q)  e(spline) 
   2      9    11.338    94.395    0.18E-03    0.10E-02    0.64E-06
   2      9    11.338    88.078    0.18E-03    0.10E-02    0.65E-06
   0     10    11.338    50.173    0.13E-03    0.16E-03    0.96E-07
   0     10    11.338    24.906    0.12E-03    0.14E-03    0.88E-07
   1      9    11.338    12.133    0.13E-03    0.15E-03    0.24E-06
   1      9    11.338     7.290    0.10E-03    0.10E-03    0.18E-06
 Optimization of the real space projectors (new method)

 maximal supplied QI-value         = 34.20
 optimisation between [QCUT,QGAM] = [ 11.29, 22.57] = [ 35.68,142.71] Ry 
 Optimized for a Real-space Cutoff    1.16 Angstroem

   l    n(q)    QCUT    max X(q) W(low)/X(q) W(high)/X(q)  e(spline) 
   0      8    11.287    19.460    0.40E-03    0.73E-03    0.16E-06
   0      8    11.287    12.209    0.38E-03    0.70E-03    0.15E-06
   1      7    11.287     4.655    0.22E-03    0.25E-04    0.22E-06
 Optimization of the real space projectors (new method)

 maximal supplied QI-value         = 24.76
 optimisation between [QCUT,QGAM] = [ 11.39, 22.77] = [ 36.31,145.25] Ry 
 Optimized for a Real-space Cutoff    1.00 Angstroem

   l    n(q)    QCUT    max X(q) W(low)/X(q) W(high)/X(q)  e(spline) 
   0      7    11.387    20.381    0.39E-03    0.13E-02    0.15E-06
   0      7    11.387    15.268    0.42E-03    0.14E-02    0.17E-06
   1      6    11.387     5.964    0.41E-03    0.11E-02    0.17E-06
   1      6    11.387     5.382    0.39E-03    0.87E-03    0.15E-06
  PAW_PBE Au 04Oct2007                  :
 energy of atom  1       EATOM= -926.0867
 kinetic energy error for atom=    0.0042 (will be added to EATOM!!)
  PAW_PBE Cr 06Sep2000                  :
 energy of atom  2       EATOM= -276.8859
 kinetic energy error for atom=    0.0012 (will be added to EATOM!!)
  PAW_PBE H 15Jun2001                   :
 energy of atom  3       EATOM=  -12.4884
 kinetic energy error for atom=    0.0020 (will be added to EATOM!!)
  PAW_PBE O 08Apr2002                   :
 energy of atom  4       EATOM= -432.3788
 kinetic energy error for atom=    0.0224 (will be added to EATOM!!)
 
 
 POSCAR: Au-Cr-H2O
  positions in direct lattice
  velocities in cartesian coordinates
 exchange correlation table for  LEXCH =        8
   RHO(1)=    0.500       N(1)  =     2000
   RHO(2)=  100.500       N(2)  =     4000

 VTST: version 3.2, (02/03/18)

 CHAIN: initializing optimizer
 
 OPT: Using VASP Conjugate-Gradient optimizer
 CHAIN: Read ICHAIN            0
 
 POSCAR: Au-Cr-H2O
  positions in direct lattice
  velocities in cartesian coordinates
 


--------------------------------------------------------------------------------------------------------


 ion  position               nearest neighbor table
   1  0.000  0.000  0.213-  16 2.94  12 2.94   6 2.94   8 2.94   7 2.94   3 2.94  10 2.94   4 2.94
                             2 2.94
   2  0.333  0.000  0.213-   9 2.94  11 2.94  17 2.94  10 2.94   8 2.94   4 2.94   5 2.94   1 2.94
                             3 2.94
   3  0.667  0.000  0.213-   7 2.94  18 2.94  12 2.94   1 2.94  11 2.94   5 2.94   6 2.94   9 2.94
                             2 2.94
   4  0.000  0.333  0.213-  10 2.94   6 2.94   5 2.94  13 2.94   2 2.94  15 2.94   9 2.94   1 2.94
                             7 2.94
   5  0.333  0.333  0.213-  13 2.94   7 2.94  11 2.94   4 2.94   2 2.94  14 2.94   3 2.94   8 2.94
                             6 2.94
   6  0.667  0.333  0.213-  15 2.94  14 2.94   1 2.94  12 2.94   4 2.94   9 2.94   8 2.94   3 2.94
                             5 2.94
   7  0.000  0.667  0.213-  18 2.94   3 2.94  16 2.94   5 2.94   1 2.94  13 2.94   8 2.94   4 2.94
                             9 2.94
   8  0.333  0.667  0.213-   9 2.94  17 2.94   1 2.94   2 2.94  14 2.94  16 2.94   6 2.94   7 2.94
                             5 2.94
   9  0.667  0.667  0.213-   2 2.94   8 2.94  17 2.94   6 2.94  15 2.94   4 2.94   3 2.94  18 2.94
                             7 2.94
  10  0.111  0.111  0.310-  20 2.92  26 2.94  19 2.94  11 2.94  17 2.94   2 2.94   4 2.94   1 2.94
                            12 2.94  16 2.94  13 2.94  15 2.94
  11  0.444  0.111  0.310-  20 2.91  21 2.91  27 2.93  13 2.94   2 2.94  10 2.94  17 2.94   5 2.94
                             3 2.94  18 2.94  14 2.94  12 2.94
  12  0.778  0.111  0.310-  21 2.92  25 2.94  19 2.94  16 2.94  18 2.94   1 2.94  14 2.94  15 2.94
                             3 2.94   6 2.94  10 2.94  11 2.94
  13  0.111  0.444  0.310-  23 2.91  20 2.91  22 2.93   5 2.94  18 2.94  11 2.94   7 2.94   4 2.94
                            16 2.94  10 2.94  14 2.94  15 2.94
  14  0.444  0.444  0.310-  21 2.91  23 2.91  24 2.93  15 2.94   6 2.94  12 2.94   8 2.94  17 2.94
                             5 2.94  16 2.94  13 2.94  11 2.94
  15  0.778  0.444  0.310-  24 2.92  22 2.92  19 2.94  14 2.94   6 2.94  17 2.94  12 2.94   9 2.94
                             4 2.94  10 2.94  13 2.94  18 2.94
  16  0.111  0.778  0.310-  23 2.92  25 2.94  26 2.94  18 2.94  12 2.94   7 2.94   1 2.94   8 2.94
                            13 2.94  10 2.94  14 2.94  17 2.94
  17  0.444  0.778  0.310-  27 2.92  24 2.92  26 2.94   9 2.94  15 2.94   2 2.94  10 2.94  11 2.94
                             8 2.94  14 2.94  16 2.94  18 2.94
  18  0.778  0.778  0.310-  22 2.92  27 2.92  25 2.94  16 2.94   7 2.94  13 2.94  12 2.94   3 2.94
                            11 2.94   9 2.94  15 2.94  17 2.94
  19  0.889  0.222  0.407-  10 2.94  12 2.94  15 2.94  26 2.94  25 2.94  24 2.94  22 2.94  28 2.95
                            21 2.95  20 2.95  32 3.00  31 3.00
  20  0.223  0.223  0.406-  36 2.71  11 2.91  13 2.91  23 2.91  21 2.91  29 2.92  31 2.92  10 2.92
                            26 2.95  19 2.95  27 2.96  22 2.96
  21  0.553  0.223  0.406-  36 2.71  14 2.91  11 2.91  20 2.91  23 2.91  30 2.92  32 2.92  12 2.92
                            25 2.95  19 2.95  27 2.96  24 2.96
  22  0.886  0.557  0.406-  24 2.90  27 2.90  18 2.92  15 2.92  13 2.93  25 2.94  19 2.94  23 2.96
                            20 2.96  35 2.96  33 2.96  31 2.96
  23  0.223  0.553  0.406-  36 2.71  13 2.91  14 2.91  20 2.91  21 2.91  33 2.92  34 2.92  16 2.92
                            25 2.95  26 2.95  22 2.96  24 2.96
  24  0.557  0.557  0.406-  27 2.90  22 2.90  15 2.92  17 2.92  14 2.93  26 2.94  19 2.94  21 2.96
                            23 2.96  35 2.96  32 2.96  34 2.96
  25  0.889  0.889  0.407-  16 2.94  12 2.94  18 2.94  19 2.94  26 2.94  22 2.94  27 2.94  28 2.95
                            23 2.95  21 2.95  33 3.00  30 3.00
  26  0.222  0.889  0.407-  10 2.94  16 2.94  17 2.94  19 2.94  25 2.94  27 2.94  24 2.94  28 2.95
                            20 2.95  23 2.95  29 3.00  34 3.00
  27  0.557  0.886  0.406-  24 2.90  22 2.90  17 2.92  18 2.92  11 2.93  26 2.94  25 2.94  20 2.96
                            21 2.96  35 2.96  29 2.96  30 2.96
  28  0.000  0.000  0.505-  25 2.95  19 2.95  26 2.95  34 2.99  32 2.99  33 2.99  30 2.99  31 2.99
                            29 2.99
  29  0.334  0.011  0.504-  30 2.84  31 2.84  36 2.86  20 2.92  27 2.96  35 2.99  28 2.99  26 3.00
                            34 3.13
  30  0.655  0.011  0.504-  29 2.84  32 2.84  36 2.86  21 2.92  27 2.96  35 2.99  28 2.99  25 3.00
                            33 3.13
  31  0.011  0.334  0.504-  33 2.84  29 2.84  36 2.86  20 2.92  22 2.96  35 2.99  28 2.99  19 3.00
                            32 3.13
  32  0.655  0.334  0.504-  34 2.84  30 2.84  36 2.86  21 2.92  24 2.96  35 2.99  28 2.99  19 3.00
                            31 3.13
  33  0.011  0.655  0.504-  31 2.84  34 2.84  36 2.86  23 2.92  22 2.96  35 2.99  28 2.99  25 3.00
                            30 3.13
  34  0.334  0.655  0.504-  32 2.84  33 2.84  36 2.86  23 2.92  24 2.96  35 2.99  28 2.99  26 3.00
                            29 3.13
  35  0.667  0.667  0.505-  24 2.96  27 2.96  22 2.96  29 2.99  34 2.99  32 2.99  31 2.99  30 2.99
                            33 2.99
  36  0.333  0.333  0.492-  39 2.13  20 2.71  23 2.71  21 2.71  33 2.86  31 2.86  29 2.86  30 2.86
                            34 2.86  32 2.86
  37  0.279  0.264  0.587-  39 0.98
  38  0.458  0.262  0.587-  39 0.98
  39  0.333  0.334  0.578-  37 0.98  38 0.98  36 2.13
 
  LATTYP: Found a hexagonal cell.
 ALAT       =     8.8135128021
 C/A-ratio  =     2.8075332270
  
  Lattice vectors:
  
 A1 = (  -4.4067569092,  -7.6327256898,   0.0000000000)
 A2 = (   8.8135128021,   0.0000000000,   0.0000000000)
 A3 = (   0.0000000000,   0.0000000000,  24.7442300386)


Analysis of symmetry for initial positions (statically):
=====================================================================
 Subroutine PRICEL returns:
 Original cell was already a primitive cell.
 

 Routine SETGRP: Setting up the symmetry group for a 
 hexagonal supercell.


 Subroutine GETGRP returns: Found  1 space group operations
 (whereof  1 operations were pure point group operations)
 out of a pool of 24 trial point group operations.


The static configuration has the point symmetry C_1 .


Analysis of symmetry for dynamics (positions and initial velocities):
=====================================================================
 Subroutine PRICEL returns:
 Original cell was already a primitive cell.
 

 Routine SETGRP: Setting up the symmetry group for a 
 hexagonal supercell.


 Subroutine GETGRP returns: Found  1 space group operations
 (whereof  1 operations were pure point group operations)
 out of a pool of 24 trial point group operations.


The dynamic configuration has the point symmetry C_1 .


Analysis of constrained symmetry for selective dynamics:
=====================================================================
 Subroutine PRICEL returns:
 Original cell was already a primitive cell.
 

 Routine SETGRP: Setting up the symmetry group for a 
 hexagonal supercell.


 Subroutine GETGRP returns: Found  1 space group operations
 (whereof  1 operations were pure point group operations)
 out of a pool of 24 trial point group operations.


The constrained configuration has the point symmetry C_1 .


 Subroutine INISYM returns: Found  1 space group operations
 (whereof  1 operations are pure point group operations),
 and found     1 'primitive' translations


----------------------------------------------------------------------------------------

                                     Primitive cell                                     

  volume of cell :    1664.5722

  direct lattice vectors                    reciprocal lattice vectors
     8.813512802  0.000000000  0.000000000     0.113462137 -0.065507406  0.000000000
     4.406756909  7.632725690  0.000000000     0.000000000  0.131014796  0.000000000
     0.000000000  0.000000000 24.744230039     0.000000000  0.000000000  0.040413462

  length of vectors
     8.813512802  8.813512802 24.744230039     0.131014796  0.131014796  0.040413462

  position of ions in fractional coordinates (direct lattice)
     0.000000000  0.000000000  0.213398434
     0.333333343  0.000000000  0.213398434
     0.666666687  0.000000000  0.213398434
     1.000000000  0.333333343  0.213398434
     0.333333313  0.333333343  0.213398434
     0.666666687  0.333333343  0.213398434
     1.000000000  0.666666687  0.213398434
     0.333333343  0.666666687  0.213398434
     0.666666627  0.666666687  0.213398434
     0.111111119  0.111111112  0.310339584
     0.444444418  0.111111112  0.310339584
     0.777777791  0.111111112  0.310339584
     0.111111127  0.444444448  0.310339584
     0.444444478  0.444444448  0.310339584
     0.777777731  0.444444448  0.310339584
     0.111111090  0.777777791  0.310339584
     0.444444448  0.777777791  0.310339584
     0.777777851  0.777777791  0.310339584
     0.888912079  0.222175858  0.407166204
     0.223298761  0.223298746  0.406103069
     0.553402538  0.223298746  0.406103069
     0.886292395  0.556853833  0.406473025
     0.223298716  0.553402538  0.406103069
     0.556853833  0.556853833  0.406473025
     0.888912079  0.888912079  0.407166204
     0.222175888  0.888912079  0.407166204
     0.556853773  0.886292395  0.406473025
     0.000000000  0.000000000  0.504682407
     0.333652727  0.010952029  0.504421619
     0.655395274  0.010952029  0.504421619
     0.010952029  0.333652727  0.504421619
     0.655395274  0.333652727  0.504421619
     0.010952029  0.655395274  0.504421619
     0.333652727  0.655395274  0.504421619
     0.666666627  0.666666687  0.504998732
     0.333333313  0.333333343  0.492080944
     0.278761068  0.263759583  0.587431886
     0.457897555  0.262457925  0.587450841
     0.333278027  0.333982777  0.578193079

  ion indices of the primitive-cell ions
   primitive index   ion index
                 1           1
                 2           2
                 3           3
                 4           4
                 5           5
                 6           6
                 7           7
                 8           8
                 9           9
                10          10
                11          11
                12          12
                13          13
                14          14
                15          15
                16          16
                17          17
                18          18
                19          19
                20          20
                21          21
                22          22
                23          23
                24          24
                25          25
                26          26
                27          27
                28          28
                29          29
                30          30
                31          31
                32          32
                33          33
                34          34
                35          35
                36          36
                37          37
                38          38
                39          39

----------------------------------------------------------------------------------------

 
 
 KPOINTS: Automatic mesh                          

Automatic generation of k-mesh.
 Grid dimensions read from file:
 generate k-points for:    8    8    1

 Generating k-lattice:

  Cartesian coordinates                     Fractional coordinates (reciprocal lattice)
     0.014182767 -0.008188426  0.000000000     0.125000000 -0.000000000  0.000000000
     0.000000000  0.016376850  0.000000000     0.000000000  0.125000000  0.000000000
     0.000000000  0.000000000  0.040413462     0.000000000  0.000000000  1.000000000

  Length of vectors
     0.016376850  0.016376850  0.040413462

  Shift w.r.t. Gamma in fractional coordinates (k-lattice)
     0.000000000  0.000000000  0.000000000

 TETIRR: Found    192 inequivalent tetrahedra from      384
 
 Subroutine IBZKPT returns following result:
 ===========================================
 
 Found     34 irreducible k-points:
 
 Following reciprocal coordinates:
            Coordinates               Weight
  0.000000  0.000000  0.000000      1.000000
  0.125000 -0.000000  0.000000      2.000000
  0.125000  0.125000  0.000000      2.000000
  0.000000  0.125000  0.000000      2.000000
  0.250000 -0.000000  0.000000      2.000000
  0.250000  0.250000  0.000000      2.000000
  0.000000  0.250000  0.000000      2.000000
  0.375000  0.000000  0.000000      2.000000
  0.375000  0.375000  0.000000      2.000000
  0.000000  0.375000  0.000000      2.000000
  0.500000 -0.000000  0.000000      1.000000
  0.500000  0.500000  0.000000      1.000000
  0.000000  0.500000  0.000000      1.000000
  0.250000  0.125000  0.000000      2.000000
  0.125000  0.250000  0.000000      2.000000
 -0.125000  0.125000  0.000000      2.000000
  0.375000  0.125000  0.000000      2.000000
  0.250000  0.375000  0.000000      2.000000
 -0.125000  0.250000  0.000000      2.000000
  0.250000 -0.125000  0.000000      2.000000
 -0.125000 -0.375000  0.000000      2.000000
 -0.375000 -0.250000  0.000000      2.000000
  0.500000  0.125000  0.000000      2.000000
  0.375000  0.500000  0.000000      2.000000
 -0.125000  0.375000  0.000000      2.000000
  0.375000 -0.125000  0.000000      2.000000
 -0.125000  0.500000  0.000000      2.000000
  0.500000 -0.375000  0.000000      2.000000
  0.500000  0.250000  0.000000      2.000000
  0.250000  0.500000  0.000000      2.000000
 -0.250000  0.250000  0.000000      2.000000
 -0.375000  0.250000  0.000000      2.000000
  0.375000 -0.375000  0.000000      2.000000
 -0.250000  0.375000  0.000000      2.000000
 
 Following cartesian coordinates:
            Coordinates               Weight
  0.000000  0.000000  0.000000      1.000000
  0.014183 -0.008188  0.000000      2.000000
  0.014183  0.008188  0.000000      2.000000
  0.000000  0.016377  0.000000      2.000000
  0.028366 -0.016377  0.000000      2.000000
  0.028366  0.016377  0.000000      2.000000
  0.000000  0.032754  0.000000      2.000000
  0.042548 -0.024565  0.000000      2.000000
  0.042548  0.024565  0.000000      2.000000
  0.000000  0.049131  0.000000      2.000000
  0.056731 -0.032754  0.000000      1.000000
  0.056731  0.032754  0.000000      1.000000
  0.000000  0.065507  0.000000      1.000000
  0.028366 -0.000000  0.000000      2.000000
  0.014183  0.024565  0.000000      2.000000
 -0.014183  0.024565  0.000000      2.000000
  0.042548 -0.008188  0.000000      2.000000
  0.028366  0.032754  0.000000      2.000000
 -0.014183  0.040942  0.000000      2.000000
  0.028366 -0.032754  0.000000      2.000000
 -0.014183 -0.040942  0.000000      2.000000
 -0.042548 -0.008188  0.000000      2.000000
  0.056731 -0.016377  0.000000      2.000000
  0.042548  0.040942  0.000000      2.000000
 -0.014183  0.057319  0.000000      2.000000
  0.042548 -0.040942  0.000000      2.000000
 -0.014183  0.073696  0.000000      2.000000
  0.056731 -0.081884  0.000000      2.000000
  0.056731 -0.000000  0.000000      2.000000
  0.028366  0.049131  0.000000      2.000000
 -0.028366  0.049131  0.000000      2.000000
 -0.042548  0.057319  0.000000      2.000000
  0.042548 -0.073696  0.000000      2.000000
 -0.028366  0.065507  0.000000      2.000000
 


--------------------------------------------------------------------------------------------------------




 Dimension of arrays:
   k-points           NKPTS =     34   k-points in BZ     NKDIM =     34   number of bands    NBANDS=    252
   number of dos      NEDOS =    301   number of ions     NIONS =     39
   non local maximal  LDIM  =      6   non local SUM 2l+1 LMDIM =     18
   total plane-waves  NPLWV = 322560
   max r-space proj   IRMAX =   2430   max aug-charges    IRDMAX=  12048
   dimension x,y,z NGX =    48 NGY =   48 NGZ =  140
   dimension x,y,z NGXF=    96 NGYF=   96 NGZF=  280
   support grid    NGXF=    96 NGYF=   96 NGZF=  280
   ions per type =              35   1   2   1
   NGX,Y,Z   is equivalent  to a cutoff of   9.05,  9.05,  9.41 a.u.
   NGXF,Y,Z  is equivalent  to a cutoff of  18.11, 18.11, 18.81 a.u.

 SYSTEM =  unknown system                          
 POSCAR =  Au-Cr-H2O                               

 Startparameter for this run:
   NWRITE =      2    write-flag & timer
   PREC   = normal    normal or accurate (medium, high low for compatibility)
   ISTART =      0    job   : 0-new  1-cont  2-samecut
   ICHARG =     11    charge: 1-file 2-atom 10-const
   ISPIN  =      1    spin polarized calculation?
   LNONCOLLINEAR =      F non collinear calculations
   LSORBIT =      F    spin-orbit coupling
   INIWAV =      1    electr: 0-lowe 1-rand  2-diag
   LASPH  =      F    aspherical Exc in radial PAW
   METAGGA=      F    non-selfconsistent MetaGGA calc.

 Electronic Relaxation 1
   ENCUT  =  500.0 eV  36.75 Ry    6.06 a.u.  16.07 16.07 45.11*2*pi/ulx,y,z
   ENINI  =  500.0     initial cutoff
   ENAUG  =  605.4 eV  augmentation charge cutoff
   NELM   =    150;   NELMIN=  2; NELMDL= -5     # of ELM steps 
   EDIFF  = 0.1E-04   stopping-criterion for ELM
   LREAL  =      T    real-space projection
   NLSPLINE    = F    spline interpolate recip. space projectors
   LCOMPAT=      F    compatible to vasp.4.4
   GGA_COMPAT  = T    GGA compatible to vasp.4.4-vasp.4.6
   LMAXPAW     = -100 max onsite density
   LMAXMIX     =    2 max onsite mixed and CHGCAR
   VOSKOWN=      0    Vosko Wilk Nusair interpolation
   ROPT   =   -0.00050  -0.00050  -0.00050  -0.00050
 Ionic relaxation
   EDIFFG = -.1E-01   stopping-criterion for IOM
   NSW    =      0    number of steps for IOM
   NBLOCK =      1;   KBLOCK =      1    inner block; outer block 
   IBRION =     -1    ionic relax: 0-MD 1-quasi-New 2-CG
   NFREE  =      1    steps in history (QN), initial steepest desc. (CG)
   ISIF   =      2    stress and relaxation
   IWAVPR =     10    prediction:  0-non 1-charg 2-wave 3-comb
   ISYM   =      2    0-nonsym 1-usesym 2-fastsym
   LCORR  =      T    Harris-Foulkes like correction to forces

   POTIM  = 0.5000    time-step for ionic-motion
   TEIN   =    0.0    initial temperature
   TEBEG  =    0.0;   TEEND  =   0.0 temperature during run
   SMASS  =  -3.00    Nose mass-parameter (am)
   estimated Nose-frequenzy (Omega)   =  0.10E-29 period in steps = 0.13E+47 mass=  -0.178E-26a.u.
   SCALEE = 1.0000    scale energy and forces
   NPACO  =    256;   APACO  = 16.0  distance and # of slots for P.C.
   PSTRESS=    0.0 pullay stress

  Mass of Ions in am
   POMASS = 196.97 52.00  1.00 16.00
  Ionic Valenz
   ZVAL   =  11.00  6.00  1.00  6.00
  Atomic Wigner-Seitz radii
   RWIGS  =  -1.00 -1.00 -1.00 -1.00
  virtual crystal weights 
   VCA    =   1.00  1.00  1.00  1.00
   NELECT =     399.0000    total number of electrons
   NUPDOWN=      -1.0000    fix difference up-down

 DOS related values:
   EMIN   =  10.00;   EMAX   =-10.00  energy-range for DOS
   EFERMI =   0.00
   ISMEAR =    -5;   SIGMA  =   0.10  broadening in eV -4-tet -1-fermi 0-gaus

 Electronic relaxation 2 (details)
   IALGO  =     68    algorithm
   LDIAG  =      T    sub-space diagonalisation (order eigenvalues)
   LSUBROT=      F    optimize rotation matrix (better conditioning)
   TURBO    =      0    0=normal 1=particle mesh
   IRESTART =      0    0=no restart 2=restart with 2 vectors
   NREBOOT  =      0    no. of reboots
   NMIN     =      0    reboot dimension
   EREF     =   0.00    reference energy to select bands
   IMIX   =      4    mixing-type and parameters
     AMIX     =   0.40;   BMIX     =  1.00
     AMIX_MAG =   1.60;   BMIX_MAG =  1.00
     AMIN     =   0.10
     WC   =   100.;   INIMIX=   1;  MIXPRE=   1;  MAXMIX= -45

 Intra band minimization:
   WEIMIN = 0.0000     energy-eigenvalue tresh-hold
   EBREAK =  0.99E-08  absolut break condition
   DEPER  =   0.30     relativ break condition  

   TIME   =   0.40     timestep for ELM

  volume/ion in A,a.u.               =      42.68       288.03
  Fermi-wavevector in a.u.,A,eV,Ry     =   1.016947  1.921751 14.070885  1.034181
  Thomas-Fermi vector in A             =   2.150320
 
 Write flags
   LWAVE        =      F    write WAVECAR
   LDOWNSAMPLE  =      F    k-point downsampling of WAVECAR
   LCHARG       =      F    write CHGCAR
   LVTOT        =      F    write LOCPOT, total local potential
   LVHAR        =      F    write LOCPOT, Hartree potential only
   LELF         =      F    write electronic localiz. function (ELF)
   LORBIT       =     10    0 simple, 1 ext, 2 COOP (PROOUT), +10 PAW based schemes


 Dipole corrections
   LMONO  =      F    monopole corrections only (constant potential shift)
   LDIPOL =      F    correct potential (dipole corrections)
   IDIPOL =      0    1-x, 2-y, 3-z, 4-all directions 
   EPSILON=  1.0000000 bulk dielectric constant

 Exchange correlation treatment:
   GGA     =    --    GGA type
   LEXCH   =     8    internal setting for exchange type
   VOSKOWN=      0    Vosko Wilk Nusair interpolation
   LHFCALC =     F    Hartree Fock is set to
   LHFONE  =     F    Hartree Fock one center treatment
   AEXX    =    0.0000 exact exchange contribution

 Linear response parameters
   LEPSILON=     F    determine dielectric tensor
   LRPA    =     F    only Hartree local field effects (RPA)
   LNABLA  =     F    use nabla operator in PAW spheres
   LVEL    =     F    velocity operator in full k-point grid
   LINTERFAST=   F  fast interpolation
   KINTER  =     0    interpolate to denser k-point grid
   CSHIFT  =0.1000    complex shift for real part using Kramers Kronig
   OMEGAMAX=  -1.0    maximum frequency
   DEG_THRESHOLD= 0.2000000E-02 threshold for treating states as degnerate
   RTIME   =   -0.100 relaxation time in fs
  (WPLASMAI=    0.000 imaginary part of plasma frequency in eV, 0.658/RTIME)
   DFIELD  = 0.0000000 0.0000000 0.0000000 field for delta impulse in time
 
 Orbital magnetization related:
   ORBITALMAG=     F  switch on orbital magnetization
   LCHIMAG   =     F  perturbation theory with respect to B field
   DQ        =  0.001000  dq finite difference perturbation B field
   LLRAUG    =     F  two centre corrections for induced B field



--------------------------------------------------------------------------------------------------------


 Static calculation
 charge density and potential remain constant during run
 non-spin polarized calculation
 RMM-DIIS sequential band-by-band and
  variant of blocked Davidson during initial phase
 perform sub-space diagonalisation
    before iterative eigenvector-optimisation
 no mixing
 using additional bands           52
 real space projection scheme for non local part
 use partial core corrections
 calculate Harris-corrections to forces 
   (improved forces if not selfconsistent)
 use gradient corrections 
 WARNING: stress and forces are not correct
  (second derivative of E(xc) not defined)
 use of overlap-Matrix (Vanderbilt PP)
 Fermi weights with tetrahedron method with Bloechl corrections


--------------------------------------------------------------------------------------------------------


  energy-cutoff  :      500.00
  volume of cell :     1664.57
      direct lattice vectors                 reciprocal lattice vectors
     8.813512802  0.000000000  0.000000000     0.113462137 -0.065507406  0.000000000
     4.406756909  7.632725690  0.000000000     0.000000000  0.131014796  0.000000000
     0.000000000  0.000000000 24.744230039     0.000000000  0.000000000  0.040413462

  length of vectors
     8.813512802  8.813512802 24.744230039     0.131014796  0.131014796  0.040413462


 
 k-points in units of 2pi/SCALE and weight: Automatic mesh                          
   0.00000000  0.00000000  0.00000000       0.016
   0.01418277 -0.00818843  0.00000000       0.031
   0.01418277  0.00818842  0.00000000       0.031
   0.00000000  0.01637685  0.00000000       0.031
   0.02836553 -0.01637685  0.00000000       0.031
   0.02836553  0.01637685  0.00000000       0.031
   0.00000000  0.03275370  0.00000000       0.031
   0.04254830 -0.02456528  0.00000000       0.031
   0.04254830  0.02456527  0.00000000       0.031
   0.00000000  0.04913055  0.00000000       0.031
   0.05673107 -0.03275370  0.00000000       0.016
   0.05673107  0.03275370  0.00000000       0.016
   0.00000000  0.06550740  0.00000000       0.016
   0.02836553 -0.00000000  0.00000000       0.031
   0.01418277  0.02456527  0.00000000       0.031
  -0.01418277  0.02456528  0.00000000       0.031
   0.04254830 -0.00818843  0.00000000       0.031
   0.02836553  0.03275370  0.00000000       0.031
  -0.01418277  0.04094212  0.00000000       0.031
   0.02836553 -0.03275370  0.00000000       0.031
  -0.01418277 -0.04094212  0.00000000       0.031
  -0.04254830 -0.00818842  0.00000000       0.031
   0.05673107 -0.01637685  0.00000000       0.031
   0.04254830  0.04094212  0.00000000       0.031
  -0.01418277  0.05731897  0.00000000       0.031
   0.04254830 -0.04094213  0.00000000       0.031
  -0.01418277  0.07369582  0.00000000       0.031
   0.05673107 -0.08188425  0.00000000       0.031
   0.05673107 -0.00000000  0.00000000       0.031
   0.02836553  0.04913055  0.00000000       0.031
  -0.02836553  0.04913055  0.00000000       0.031
  -0.04254830  0.05731898  0.00000000       0.031
   0.04254830 -0.07369583  0.00000000       0.031
  -0.02836553  0.06550740  0.00000000       0.031
 
 k-points in reciprocal lattice and weights: Automatic mesh                          
   0.00000000  0.00000000  0.00000000       0.016
   0.12500000 -0.00000000  0.00000000       0.031
   0.12500000  0.12500000  0.00000000       0.031
   0.00000000  0.12500000  0.00000000       0.031
   0.25000000 -0.00000000  0.00000000       0.031
   0.25000000  0.25000000  0.00000000       0.031
   0.00000000  0.25000000  0.00000000       0.031
   0.37500000  0.00000000  0.00000000       0.031
   0.37500000  0.37500000  0.00000000       0.031
   0.00000000  0.37500000  0.00000000       0.031
   0.50000000 -0.00000000  0.00000000       0.016
   0.50000000  0.50000000  0.00000000       0.016
   0.00000000  0.50000000  0.00000000       0.016
   0.25000000  0.12500000  0.00000000       0.031
   0.12500000  0.25000000  0.00000000       0.031
  -0.12500000  0.12500000  0.00000000       0.031
   0.37500000  0.12500000  0.00000000       0.031
   0.25000000  0.37500000  0.00000000       0.031
  -0.12500000  0.25000000  0.00000000       0.031
   0.25000000 -0.12500000  0.00000000       0.031
  -0.12500000 -0.37500000  0.00000000       0.031
  -0.37500000 -0.25000000  0.00000000       0.031
   0.50000000  0.12500000  0.00000000       0.031
   0.37500000  0.50000000  0.00000000       0.031
  -0.12500000  0.37500000  0.00000000       0.031
   0.37500000 -0.12500000  0.00000000       0.031
  -0.12500000  0.50000000  0.00000000       0.031
   0.50000000 -0.37500000  0.00000000       0.031
   0.50000000  0.25000000  0.00000000       0.031
   0.25000000  0.50000000  0.00000000       0.031
  -0.25000000  0.25000000  0.00000000       0.031
  -0.37500000  0.25000000  0.00000000       0.031
   0.37500000 -0.37500000  0.00000000       0.031
  -0.25000000  0.37500000  0.00000000       0.031
 
 position of ions in fractional coordinates (direct lattice) 
   0.00000000  0.00000000  0.21339843
   0.33333334  0.00000000  0.21339843
   0.66666669  0.00000000  0.21339843
   0.00000000  0.33333334  0.21339843
   0.33333331  0.33333334  0.21339843
   0.66666669  0.33333334  0.21339843
   0.00000000  0.66666669  0.21339843
   0.33333334  0.66666669  0.21339843
   0.66666663  0.66666669  0.21339843
   0.11111112  0.11111111  0.31033958
   0.44444442  0.11111111  0.31033958
   0.77777779  0.11111111  0.31033958
   0.11111113  0.44444445  0.31033958
   0.44444448  0.44444445  0.31033958
   0.77777773  0.44444445  0.31033958
   0.11111109  0.77777779  0.31033958
   0.44444445  0.77777779  0.31033958
   0.77777785  0.77777779  0.31033958
   0.88891208  0.22217586  0.40716620
   0.22329876  0.22329875  0.40610307
   0.55340254  0.22329875  0.40610307
   0.88629239  0.55685383  0.40647302
   0.22329872  0.55340254  0.40610307
   0.55685383  0.55685383  0.40647302
   0.88891208  0.88891208  0.40716620
   0.22217589  0.88891208  0.40716620
   0.55685377  0.88629239  0.40647302
   0.00000000  0.00000000  0.50468241
   0.33365273  0.01095203  0.50442162
   0.65539527  0.01095203  0.50442162
   0.01095203  0.33365273  0.50442162
   0.65539527  0.33365273  0.50442162
   0.01095203  0.65539527  0.50442162
   0.33365273  0.65539527  0.50442162
   0.66666663  0.66666669  0.50499873
   0.33333331  0.33333334  0.49208094
   0.27876107  0.26375958  0.58743189
   0.45789755  0.26245792  0.58745084
   0.33327803  0.33398278  0.57819308
 
 position of ions in cartesian coordinates  (Angst):
   0.00000000  0.00000000  5.28037993
   2.93783769  0.00000000  5.28037993
   5.87567538  0.00000000  5.28037993
   1.46891901  2.54424197  5.28037993
   4.40675643  2.54424197  5.28037993
   7.34459439  2.54424197  5.28037993
   2.93783803  5.08848395  5.28037993
   5.87567571  5.08848395  5.28037993
   8.81351288  5.08848395  5.28037993
   1.46891893  0.84808064  7.67911405
   4.40675623  0.84808064  7.67911405
   7.34459418  0.84808064  7.67911405
   2.93783798  3.39232256  7.67911405
   5.87567574  3.39232256  7.67911405
   8.81351263  3.39232256  7.67911405
   4.40675667  5.93656453  7.67911405
   7.34459449  5.93656453  7.67911405
  10.28243270  5.93656453  7.67911405
   8.81351299  1.69580738 10.07501421
   2.95206978  1.70437808 10.04870776
   5.86144364  1.70437808 10.04870776
  10.26526884  4.25031255 10.05786203
   4.40675655  4.22396977 10.04870776
   7.36175786  4.25031255 10.05786203
  11.75165743  6.78482206 10.07501421
   5.87536948  6.78482206 10.07501421
   8.81351299  6.76482673 10.05786203
   0.00000000  0.00000000 12.48797758
   2.98891551  0.08359383 12.48152458
   5.82459757  0.08359383 12.48152458
   1.56685231  2.54667974 12.48152458
   7.24666110  2.54667974 12.48152458
   2.98469350  5.00245235 12.48152458
   5.82882023  5.00245235 12.48152458
   8.81351288  5.08848395 12.49580478
   4.40675643  2.54424197 12.17616408
   3.61918861  2.01320455 14.53554973
   5.19227424  2.00326934 14.53601875
   4.40913107  2.54919892 14.30694256
 


--------------------------------------------------------------------------------------------------------


 k-point   1 :   0.0000 0.0000 0.0000  plane waves:   42157
 k-point   2 :   0.1250-0.0000 0.0000  plane waves:   42204
 k-point   3 :   0.1250 0.1250 0.0000  plane waves:   42204
 k-point   4 :   0.0000 0.1250 0.0000  plane waves:   42204
 k-point   5 :   0.2500-0.0000 0.0000  plane waves:   42256
 k-point   6 :   0.2500 0.2500 0.0000  plane waves:   42256
 k-point   7 :   0.0000 0.2500 0.0000  plane waves:   42256
 k-point   8 :   0.3750 0.0000 0.0000  plane waves:   42248
 k-point   9 :   0.3750 0.3750 0.0000  plane waves:   42248
 k-point  10 :   0.0000 0.3750 0.0000  plane waves:   42248
 k-point  11 :   0.5000-0.0000 0.0000  plane waves:   42276
 k-point  12 :   0.5000 0.5000 0.0000  plane waves:   42276
 k-point  13 :   0.0000 0.5000 0.0000  plane waves:   42276
 k-point  14 :   0.2500 0.1250 0.0000  plane waves:   42212
 k-point  15 :   0.1250 0.2500 0.0000  plane waves:   42212
 k-point  16 :  -0.1250 0.1250 0.0000  plane waves:   42212
 k-point  17 :   0.3750 0.1250 0.0000  plane waves:   42250
 k-point  18 :   0.2500 0.3750 0.0000  plane waves:   42250
 k-point  19 :  -0.1250 0.2500 0.0000  plane waves:   42250
 k-point  20 :   0.2500-0.1250 0.0000  plane waves:   42250
 k-point  21 :  -0.1250-0.3750 0.0000  plane waves:   42250
 k-point  22 :  -0.3750-0.2500 0.0000  plane waves:   42250
 k-point  23 :   0.5000 0.1250 0.0000  plane waves:   42294
 k-point  24 :   0.3750 0.5000 0.0000  plane waves:   42294
 k-point  25 :  -0.1250 0.3750 0.0000  plane waves:   42294
 k-point  26 :   0.3750-0.1250 0.0000  plane waves:   42294
 k-point  27 :  -0.1250 0.5000 0.0000  plane waves:   42294
 k-point  28 :   0.5000-0.3750 0.0000  plane waves:   42294
 k-point  29 :   0.5000 0.2500 0.0000  plane waves:   42246
 k-point  30 :   0.2500 0.5000 0.0000  plane waves:   42246
 k-point  31 :  -0.2500 0.2500 0.0000  plane waves:   42246
 k-point  32 :  -0.3750 0.2500 0.0000  plane waves:   42274
 k-point  33 :   0.3750-0.3750 0.0000  plane waves:   42274
 k-point  34 :  -0.2500 0.3750 0.0000  plane waves:   42274

 maximum and minimum number of plane-waves per node :     42294    42157

 maximum number of plane-waves:     42294
 maximum index in each direction: 
   IXMAX=   16   IYMAX=   16   IZMAX=   45
   IXMIN=  -16   IYMIN=  -16   IZMIN=  -45


 serial   3D FFT for wavefunctions
 parallel 3D FFT for charge:
    minimum data exchange during FFTs selected (reduces bandwidth)


 total amount of memory used by VASP MPI-rank0   280375. kBytes
=======================================================================

   base      :      30000. kBytes
   nonlr-proj:      13808. kBytes
   fftplans  :       4808. kBytes
   grid      :      20723. kBytes
   one-center:        606. kBytes
   wavefun   :     210430. kBytes
 
     INWAV:  cpu time    0.0000: real time    0.0001
 initial charge density was supplied:
 number of electron     399.0000075 magnetization 
 keeping initial charge density in first step


--------------------------------------------------------------------------------------------------------


 Maximum index for non-local projection operator         2278
 Maximum index for augmentation-charges          846 (set IRDMAX)


--------------------------------------------------------------------------------------------------------


 First call to EWALD:  gamma=   0.150
 Maximum number of real-space cells 4x 4x 2
 Maximum number of reciprocal cells 2x 2x 5

    FEWALD:  cpu time    0.0013: real time    0.0013


--------------------------------------- Iteration      1(   1)  ---------------------------------------


    POTLOK:  cpu time    0.0455: real time    0.0458
    SETDIJ:  cpu time    0.0044: real time    0.0044
     EDDAV:  cpu time   25.4765: real time   25.4786
 BZINTS: Fermi energy:   11.026310;  399.000000 electrons
         Band energy: 0.142480E+04;  BLOECHL correction:   -0.019325
       DOS:  cpu time    0.0537: real time    0.0538
    --------------------------------------------
      LOOP:  cpu time   25.5801: real time   25.5826

 eigenvalue-minimisations  : 17136
 total energy-change (2. order) : 0.2701665E+04  (-0.1757606E+05)
 number of electron     399.0000075 magnetization 
 augmentation part      399.0000075 magnetization 

 Free energy of the ion-electron system (eV)
  ---------------------------------------------------
  alpha Z        PSCENC =       911.60397674
  Ewald energy   TEWEN  =    133371.18533236
  -Hartree energ DENC   =   -167430.45161742
  -exchange      EXHF   =         0.00000000
  -V(xc)+E(xc)   XCENC  =       531.79660887
  PAW double counting   =     36057.09038817   -35311.45845164
  entropy T*S    EENTRO =         0.00000000
  eigenvalues    EBANDS =      1424.79890128
  atomic energy  EATOM  =     33147.10019079
  Solvation  Ediel_sol  =         0.00000000
  ---------------------------------------------------
  free energy    TOTEN  =      2701.66532915 eV

  energy without entropy =     2701.66532915  energy(sigma->0) =     2701.66532915


--------------------------------------------------------------------------------------------------------




--------------------------------------- Iteration      1(   2)  ---------------------------------------


     EDDAV:  cpu time   27.6445: real time   27.6454
 BZINTS: Fermi energy:    1.261818;  399.000000 electrons
         Band energy:-0.124062E+04;  BLOECHL correction:   -0.085680
       DOS:  cpu time    0.0487: real time    0.0487
    --------------------------------------------
      LOOP:  cpu time   27.6932: real time   27.6941

 eigenvalue-minimisations  : 18844
 total energy-change (2. order) :-0.2665417E+04  (-0.2442128E+04)
 number of electron     399.0000075 magnetization 
 augmentation part      399.0000075 magnetization 

 Free energy of the ion-electron system (eV)
  ---------------------------------------------------
  alpha Z        PSCENC =       911.60397674
  Ewald energy   TEWEN  =    133371.18533236
  -Hartree energ DENC   =   -167430.45161742
  -exchange      EXHF   =         0.00000000
  -V(xc)+E(xc)   XCENC  =       531.79660887
  PAW double counting   =     36057.09038817   -35311.45845164
  entropy T*S    EENTRO =         0.00000000
  eigenvalues    EBANDS =     -1240.61840190
  atomic energy  EATOM  =     33147.10019079
  Solvation  Ediel_sol  =         0.00000000
  ---------------------------------------------------
  free energy    TOTEN  =        36.24802597 eV

  energy without entropy =       36.24802597  energy(sigma->0) =       36.24802597


--------------------------------------------------------------------------------------------------------




--------------------------------------- Iteration      1(   3)  ---------------------------------------


     EDDAV:  cpu time   29.1083: real time   29.1089
 BZINTS: Fermi energy:    0.352235;  399.000000 electrons
         Band energy:-0.140157E+04;  BLOECHL correction:   -0.028029
       DOS:  cpu time    0.0529: real time    0.0529
    --------------------------------------------
      LOOP:  cpu time   29.1612: real time   29.1618

 eigenvalue-minimisations  : 20104
 total energy-change (2. order) :-0.1609477E+03  (-0.1547120E+03)
 number of electron     399.0000075 magnetization 
 augmentation part      399.0000075 magnetization 

 Free energy of the ion-electron system (eV)
  ---------------------------------------------------
  alpha Z        PSCENC =       911.60397674
  Ewald energy   TEWEN  =    133371.18533236
  -Hartree energ DENC   =   -167430.45161742
  -exchange      EXHF   =         0.00000000
  -V(xc)+E(xc)   XCENC  =       531.79660887
  PAW double counting   =     36057.09038817   -35311.45845164
  entropy T*S    EENTRO =         0.00000000
  eigenvalues    EBANDS =     -1401.56609637
  atomic energy  EATOM  =     33147.10019079
  Solvation  Ediel_sol  =         0.00000000
  ---------------------------------------------------
  free energy    TOTEN  =      -124.69966851 eV

  energy without entropy =     -124.69966851  energy(sigma->0) =     -124.69966851


--------------------------------------------------------------------------------------------------------




--------------------------------------- Iteration      1(   4)  ---------------------------------------


     EDDAV:  cpu time   27.8102: real time   27.8109
 BZINTS: Fermi energy:    0.333591;  399.000000 electrons
         Band energy:-0.140550E+04;  BLOECHL correction:   -0.027429
       DOS:  cpu time    0.0532: real time    0.0532
    --------------------------------------------
      LOOP:  cpu time   27.8633: real time   27.8641

 eigenvalue-minimisations  : 18984
 total energy-change (2. order) :-0.3934982E+01  (-0.3924532E+01)
 number of electron     399.0000075 magnetization 
 augmentation part      399.0000075 magnetization 

 Free energy of the ion-electron system (eV)
  ---------------------------------------------------
  alpha Z        PSCENC =       911.60397674
  Ewald energy   TEWEN  =    133371.18533236
  -Hartree energ DENC   =   -167430.45161742
  -exchange      EXHF   =         0.00000000
  -V(xc)+E(xc)   XCENC  =       531.79660887
  PAW double counting   =     36057.09038817   -35311.45845164
  entropy T*S    EENTRO =         0.00000000
  eigenvalues    EBANDS =     -1405.50107815
  atomic energy  EATOM  =     33147.10019079
  Solvation  Ediel_sol  =         0.00000000
  ---------------------------------------------------
  free energy    TOTEN  =      -128.63465028 eV

  energy without entropy =     -128.63465028  energy(sigma->0) =     -128.63465028


--------------------------------------------------------------------------------------------------------




--------------------------------------- Iteration      1(   5)  ---------------------------------------


     EDDAV:  cpu time   30.6509: real time   30.6551
 BZINTS: Fermi energy:    0.333145;  399.000000 electrons
         Band energy:-0.140564E+04;  BLOECHL correction:   -0.027421
       DOS:  cpu time    0.0500: real time    0.0499
    --------------------------------------------
      LOOP:  cpu time   30.7008: real time   30.7050

 eigenvalue-minimisations  : 21448
 total energy-change (2. order) :-0.1383242E+00  (-0.1382870E+00)
 number of electron     399.0000075 magnetization 
 augmentation part      399.0000075 magnetization 

 Free energy of the ion-electron system (eV)
  ---------------------------------------------------
  alpha Z        PSCENC =       911.60397674
  Ewald energy   TEWEN  =    133371.18533236
  -Hartree energ DENC   =   -167430.45161742
  -exchange      EXHF   =         0.00000000
  -V(xc)+E(xc)   XCENC  =       531.79660887
  PAW double counting   =     36057.09038817   -35311.45845164
  entropy T*S    EENTRO =         0.00000000
  eigenvalues    EBANDS =     -1405.63940235
  atomic energy  EATOM  =     33147.10019079
  Solvation  Ediel_sol  =         0.00000000
  ---------------------------------------------------
  free energy    TOTEN  =      -128.77297448 eV

  energy without entropy =     -128.77297448  energy(sigma->0) =     -128.77297448


--------------------------------------------------------------------------------------------------------




--------------------------------------- Iteration      1(   6)  ---------------------------------------


    EDDIAG:  cpu time    4.9557: real time    4.9561
  RMM-DIIS:  cpu time   15.2802: real time   15.2806
    ORTHCH:  cpu time    0.9201: real time    0.9201
 BZINTS: Fermi energy:    0.333143;  399.000000 electrons
         Band energy:-0.140564E+04;  BLOECHL correction:   -0.027420
       DOS:  cpu time    0.0507: real time    0.0507
    --------------------------------------------
      LOOP:  cpu time   21.2067: real time   21.2075

 eigenvalue-minimisations  : 17641
 total energy-change (2. order) :-0.3562465E-02  (-0.3562653E-02)
 number of electron     399.0000075 magnetization 
 augmentation part      399.0000075 magnetization 

 Free energy of the ion-electron system (eV)
  ---------------------------------------------------
  alpha Z        PSCENC =       911.60397674
  Ewald energy   TEWEN  =    133371.18533236
  -Hartree energ DENC   =   -167430.45161742
  -exchange      EXHF   =         0.00000000
  -V(xc)+E(xc)   XCENC  =       531.79660887
  PAW double counting   =     36057.09038817   -35311.45845164
  entropy T*S    EENTRO =         0.00000000
  eigenvalues    EBANDS =     -1405.64296482
  atomic energy  EATOM  =     33147.10019079
  Solvation  Ediel_sol  =         0.00000000
  ---------------------------------------------------
  free energy    TOTEN  =      -128.77653695 eV

  energy without entropy =     -128.77653695  energy(sigma->0) =     -128.77653695


--------------------------------------------------------------------------------------------------------




--------------------------------------- Iteration      1(   7)  ---------------------------------------


    EDDIAG:  cpu time    4.9698: real time    4.9702
  RMM-DIIS:  cpu time   21.4159: real time   21.4164
    ORTHCH:  cpu time    0.9365: real time    0.9365
 BZINTS: Fermi energy:    0.333143;  399.000000 electrons
         Band energy:-0.140564E+04;  BLOECHL correction:   -0.027420
       DOS:  cpu time    0.0528: real time    0.0528
    --------------------------------------------
      LOOP:  cpu time   27.3750: real time   27.3760

 eigenvalue-minimisations  : 25086
 total energy-change (2. order) :-0.1905694E-02  (-0.1843370E-02)
 number of electron     399.0000075 magnetization 
 augmentation part      399.0000075 magnetization 

 Free energy of the ion-electron system (eV)
  ---------------------------------------------------
  alpha Z        PSCENC =       911.60397674
  Ewald energy   TEWEN  =    133371.18533236
  -Hartree energ DENC   =   -167430.45161742
  -exchange      EXHF   =         0.00000000
  -V(xc)+E(xc)   XCENC  =       531.79660887
  PAW double counting   =     36057.09038817   -35311.45845164
  entropy T*S    EENTRO =         0.00000000
  eigenvalues    EBANDS =     -1405.64487051
  atomic energy  EATOM  =     33147.10019079
  Solvation  Ediel_sol  =         0.00000000
  ---------------------------------------------------
  free energy    TOTEN  =      -128.77844264 eV

  energy without entropy =     -128.77844264  energy(sigma->0) =     -128.77844264


--------------------------------------------------------------------------------------------------------




--------------------------------------- Iteration      1(   8)  ---------------------------------------


    EDDIAG:  cpu time    4.9621: real time    4.9624
  RMM-DIIS:  cpu time   19.0223: real time   19.0227
    ORTHCH:  cpu time    0.9313: real time    0.9314
 BZINTS: Fermi energy:    0.333143;  399.000000 electrons
         Band energy:-0.140565E+04;  BLOECHL correction:   -0.027420
       DOS:  cpu time    0.0531: real time    0.0531
    --------------------------------------------
      LOOP:  cpu time   24.9688: real time   24.9696

 eigenvalue-minimisations  : 22256
 total energy-change (2. order) :-0.1802831E-03  (-0.1807803E-03)
 number of electron     399.0000075 magnetization 
 augmentation part      399.0000075 magnetization 

 Free energy of the ion-electron system (eV)
  ---------------------------------------------------
  alpha Z        PSCENC =       911.60397674
  Ewald energy   TEWEN  =    133371.18533236
  -Hartree energ DENC   =   -167430.45161742
  -exchange      EXHF   =         0.00000000
  -V(xc)+E(xc)   XCENC  =       531.79660887
  PAW double counting   =     36057.09038817   -35311.45845164
  entropy T*S    EENTRO =         0.00000000
  eigenvalues    EBANDS =     -1405.64505079
  atomic energy  EATOM  =     33147.10019079
  Solvation  Ediel_sol  =         0.00000000
  ---------------------------------------------------
  free energy    TOTEN  =      -128.77862293 eV

  energy without entropy =     -128.77862293  energy(sigma->0) =     -128.77862293


--------------------------------------------------------------------------------------------------------




--------------------------------------- Iteration      1(   9)  ---------------------------------------


    EDDIAG:  cpu time    4.9704: real time    4.9706
  RMM-DIIS:  cpu time   19.3298: real time   19.3303
    ORTHCH:  cpu time    0.9097: real time    0.9097
 BZINTS: Fermi energy:    0.333143;  399.000000 electrons
         Band energy:-0.140565E+04;  BLOECHL correction:   -0.027420
       DOS:  cpu time    0.0506: real time    0.0506
    --------------------------------------------
      LOOP:  cpu time   25.2606: real time   25.2612

 eigenvalue-minimisations  : 21147
 total energy-change (2. order) :-0.3361417E-04  (-0.3357015E-04)
 number of electron     399.0000075 magnetization 
 augmentation part      399.0000075 magnetization 

 Free energy of the ion-electron system (eV)
  ---------------------------------------------------
  alpha Z        PSCENC =       911.60397674
  Ewald energy   TEWEN  =    133371.18533236
  -Hartree energ DENC   =   -167430.45161742
  -exchange      EXHF   =         0.00000000
  -V(xc)+E(xc)   XCENC  =       531.79660887
  PAW double counting   =     36057.09038817   -35311.45845164
  entropy T*S    EENTRO =         0.00000000
  eigenvalues    EBANDS =     -1405.64508441
  atomic energy  EATOM  =     33147.10019079
  Solvation  Ediel_sol  =         0.00000000
  ---------------------------------------------------
  free energy    TOTEN  =      -128.77865654 eV

  energy without entropy =     -128.77865654  energy(sigma->0) =     -128.77865654


--------------------------------------------------------------------------------------------------------




--------------------------------------- Iteration      1(  10)  ---------------------------------------


    EDDIAG:  cpu time    4.9571: real time    4.9573
  RMM-DIIS:  cpu time   12.3629: real time   12.3631
    ORTHCH:  cpu time    0.9080: real time    0.9081
 BZINTS: Fermi energy:    0.333143;  399.000000 electrons
         Band energy:-0.140565E+04;  BLOECHL correction:   -0.027420
       DOS:  cpu time    0.0518: real time    0.0518
    --------------------------------------------
      LOOP:  cpu time   18.2797: real time   18.2802

 eigenvalue-minimisations  : 12078
 total energy-change (2. order) :-0.2619548E-05  (-0.2657041E-05)
 number of electron     399.0000075 magnetization 
 augmentation part      399.0000075 magnetization 

 Free energy of the ion-electron system (eV)
  ---------------------------------------------------
  alpha Z        PSCENC =       911.60397674
  Ewald energy   TEWEN  =    133371.18533236
  -Hartree energ DENC   =   -167430.45161742
  -exchange      EXHF   =         0.00000000
  -V(xc)+E(xc)   XCENC  =       531.79660887
  PAW double counting   =     36057.09038817   -35311.45845164
  entropy T*S    EENTRO =         0.00000000
  eigenvalues    EBANDS =     -1405.64508703
  atomic energy  EATOM  =     33147.10019079
  Solvation  Ediel_sol  =         0.00000000
  ---------------------------------------------------
  free energy    TOTEN  =      -128.77865916 eV

  energy without entropy =     -128.77865916  energy(sigma->0) =     -128.77865916


--------------------------------------------------------------------------------------------------------




 average (electrostatic) potential at core
  the test charge radii are     1.2098  1.1394  0.5201  0.7215
  (the norm of the test charge is              1.0000)
       1 -72.7112       2 -72.6907       3 -72.6907       4 -72.6899       5 -72.6917
       6 -72.6896       7 -72.6915       8 -72.6913       9 -72.6962      10 -73.0410
      11 -72.9968      12 -73.0409      13 -72.9991      14 -72.9989      15 -73.0286
      16 -73.0443      17 -73.0325      18 -73.0325      19 -72.9801      20 -73.1846
      21 -73.1844      22 -73.0058      23 -73.1918      24 -73.0058      25 -72.9815
      26 -72.9814      27 -73.0084      28 -72.6655      29 -72.7953      30 -72.7959
      31 -72.7795      32 -72.7789      33 -72.7351      34 -72.7347      35 -72.6458
      36 -48.8540      37 -40.9027      38 -40.9014      39 -77.5069
 
 
 
 E-fermi :   0.3331     XC(G=0):  -5.5549     alpha+bet : -5.1847

 Fermi energy:         0.3331429018

 k-point     1 :       0.0000    0.0000    0.0000
  band No.  band energies     occupation 
      1     -22.0516      2.00000
      2      -9.8230      2.00000
      3      -8.4951      2.00000
      4      -7.3266      2.00000
      5      -6.6448      2.00000
      6      -6.3640      2.00000
      7      -6.3458      2.00000
      8      -6.3448      2.00000
      9      -6.3355      2.00000
     10      -6.3203      2.00000
     11      -6.2982      2.00000
     12      -6.2971      2.00000
     13      -6.2190      2.00000
     14      -5.8683      2.00000
     15      -5.8595      2.00000
     16      -5.8592      2.00000
     17      -5.8206      2.00000
     18      -5.8083      2.00000
     19      -5.8062      2.00000
     20      -5.4855      2.00000
     21      -5.4821      2.00000
     22      -5.4654      2.00000
     23      -5.4562      2.00000
     24      -5.4205      2.00000
     25      -5.4198      2.00000
     26      -5.3342      2.00000
     27      -5.2919      2.00000
     28      -5.2917      2.00000
     29      -5.2726      2.00000
     30      -5.2643      2.00000
     31      -5.2642      2.00000
     32      -5.1371      2.00000
     33      -5.1322      2.00000
     34      -5.1304      2.00000
     35      -5.1221      2.00000
     36      -5.1105      2.00000
     37      -5.1098      2.00000
     38      -5.1038      2.00000
     39      -5.0948      2.00000
     40      -5.0711      2.00000
     41      -5.0471      2.00000
     42      -4.9773      2.00000
     43      -4.9772      2.00000
     44      -4.7562      2.00000
     45      -4.6164      2.00000
     46      -4.6154      2.00000
     47      -4.5927      2.00000
     48      -4.5798      2.00000
     49      -4.5798      2.00000
     50      -4.5539      2.00000
     51      -4.5530      2.00000
     52      -4.5210      2.00000
     53      -4.5115      2.00000
     54      -4.4926      2.00000
     55      -4.4482      2.00000
     56      -4.4381      2.00000
     57      -4.3990      2.00000
     58      -4.3940      2.00000
     59      -4.0384      2.00000
     60      -4.0298      2.00000
     61      -4.0214      2.00000
     62      -4.0208      2.00000
     63      -4.0089      2.00000
     64      -4.0062      2.00000
     65      -3.9997      2.00000
[...]
  0.000   0.000   0.000   0.000   0.000   0.000   0.000   0.000   0.000   0.000   1.000   0.000   0.000   0.000   0.000   0.000
  0.000   0.000   0.000   0.000   0.000   0.000   0.000   0.000   0.000   0.000   0.000   0.000   0.000   0.000   0.000   0.000
  0.000   0.000   0.000   0.000   0.000   0.000   0.000   0.000   0.000   0.000   0.000   0.000   0.000   0.000   0.000   0.000
  0.000   0.000   0.000   0.000   0.000   0.000   0.000   0.000   0.000   0.000   0.000   0.000   0.000   0.000   0.000   0.000
  0.000   0.000   0.000   0.000   0.000   0.000   0.000   0.000   0.000   0.000   0.000   0.000   0.000   0.000   0.000   0.000
  0.000   0.000   0.000   0.000   0.000   0.000   0.000   0.000   0.000   0.000   0.000   0.000   0.000   0.000   0.000   0.000
  0.000   0.000   0.000   0.000   0.000   0.000   0.000   0.000   0.000   0.000   0.000   0.000   0.000   0.000   0.000   0.000
  0.000   0.000   0.000   0.000   0.000   0.000   0.000   0.000   0.000   0.000   0.000   0.000   0.000   0.000   0.000   0.000


------------------------ aborting loop because EDIFF is reached ----------------------------------------





 total charge

# of ion       s       p       d       tot
------------------------------------------
    1        0.548   0.238   8.767   9.552
    2        0.544   0.241   8.764   9.549
    3        0.544   0.241   8.764   9.549
    4        0.544   0.241   8.765   9.549
    5        0.545   0.241   8.761   9.546
    6        0.544   0.241   8.764   9.549
    7        0.543   0.241   8.765   9.549
    8        0.543   0.241   8.765   9.549
    9        0.543   0.239   8.767   9.549
   10        0.526   0.308   8.767   9.601
   11        0.523   0.308   8.780   9.610
   12        0.526   0.308   8.767   9.601
   13        0.522   0.308   8.780   9.610
   14        0.522   0.308   8.780   9.610
   15        0.517   0.309   8.775   9.600
   16        0.526   0.308   8.767   9.601
   17        0.517   0.309   8.775   9.601
   18        0.517   0.309   8.775   9.601
   19        0.519   0.298   8.774   9.591
   20        0.560   0.337   8.740   9.638
   21        0.560   0.337   8.740   9.638
   22        0.509   0.309   8.776   9.594
   23        0.560   0.337   8.740   9.637
   24        0.509   0.309   8.776   9.594
   25        0.517   0.298   8.775   9.590
   26        0.517   0.298   8.775   9.590
   27        0.511   0.309   8.775   9.595
   28        0.540   0.226   8.755   9.521
   29        0.576   0.250   8.741   9.567
   30        0.576   0.250   8.741   9.567
   31        0.576   0.248   8.741   9.565
   32        0.576   0.248   8.741   9.565
   33        0.570   0.241   8.746   9.557
   34        0.570   0.241   8.746   9.557
   35        0.535   0.225   8.760   9.520
   36        0.352   0.390   4.193   4.935
   37        0.600   0.117   0.000   0.717
   38        0.600   0.117   0.000   0.717
   39        1.568   3.613   0.000   5.182
--------------------------------------------------
tot         21.993  13.939 310.884 346.816
 
    CHARGE:  cpu time    1.1555: real time    1.1557
    FORLOC:  cpu time    0.0111: real time    0.0111
    FORNL :  cpu time    5.2011: real time    5.2013
    STRESS:  cpu time   15.6017: real time   15.6022
    FORCOR:  cpu time    0.0439: real time    0.0440
    FORHAR:  cpu time    0.0179: real time    0.0180
    OFIELD:  cpu time    0.0002: real time    0.0002

  FORCE on cell =-STRESS in cart. coord.  units (eV):
  Direction    XX          YY          ZZ          XY          YZ          ZX
  --------------------------------------------------------------------------------------
  Alpha Z   911.60398   911.60398   911.60398
  Ewald  155928.28150155862.60697************    -0.40516   -14.32892    -0.17084
  Hartree164334.08922164321.61951************    -0.07813     1.72191    -0.09187
  E(xc)   -1788.94836 -1789.10337 -1796.62750    -0.00116    -0.00394    -0.00024
  Local  ************************332556.39500     0.37657     5.98517     0.23059
  n-local   -88.49219   -89.24327   -60.50273    -0.01568    -0.03524    -0.00067
  augment  2398.07620  2398.85655  2417.91762     0.00372     0.24611     0.00054
  Kinetic  5526.94488  5544.97689  5607.01649     0.11395     6.31096     0.02107
  Fock        0.00000     0.00000     0.00000     0.00000     0.00000     0.00000
  -------------------------------------------------------------------------------------
  Total     -21.27291   -21.40053     1.91022    -0.00590    -0.10394    -0.01143
  in kB     -20.47551   -20.59835     1.83861    -0.00567    -0.10004    -0.01100
  external pressure =      -13.08 kB  Pullay stress =        0.00 kB


 VOLUME and BASIS-vectors are now :
 -----------------------------------------------------------------------------
  energy-cutoff  :      500.00
  volume of cell :     1664.57
      direct lattice vectors                 reciprocal lattice vectors
     8.813512802  0.000000000  0.000000000     0.113462137 -0.065507406  0.000000000
     4.406756909  7.632725690  0.000000000     0.000000000  0.131014796  0.000000000
     0.000000000  0.000000000 24.744230039     0.000000000  0.000000000  0.040413462

  length of vectors
     8.813512802  8.813512802 24.744230039     0.131014796  0.131014796  0.040413462


 FORCES acting on ions
    electron-ion (+dipol)            ewald-force                    non-local-force                 convergence-correction
 -----------------------------------------------------------------------------------------------
   0.166E-02 0.925E-02 0.268E+04   0.220E-03 -.105E-01 -.268E+04   -.117E-03 0.116E-01 -.733E+00   -.179E-02 -.775E-02 -.416E-01
   0.386E+00 0.596E-01 0.268E+04   -.556E+00 -.174E+00 -.268E+04   0.730E-01 0.121E+00 -.196E+00   0.846E-01 -.849E-02 -.860E-01
   -.387E+00 0.498E-01 0.268E+04   0.555E+00 -.174E+00 -.268E+04   -.730E-01 0.121E+00 -.196E+00   -.828E-01 0.160E-02 -.825E-01
   0.272E+00 0.325E+00 0.268E+04   -.419E+00 -.382E+00 -.268E+04   0.119E+00 -.153E-01 -.188E+00   0.225E-01 0.621E-01 -.781E-01
   -.136E-01 -.406E-01 0.268E+04   -.169E-03 0.174E-01 -.268E+04   0.130E-03 0.382E-03 0.265E-01   0.138E-01 0.189E-01 -.133E+00
   -.263E+00 0.320E+00 0.268E+04   0.419E+00 -.382E+00 -.268E+04   -.119E+00 -.151E-01 -.188E+00   -.316E-01 0.663E-01 -.734E-01
   -.202E+00 -.377E+00 0.268E+04   0.136E+00 0.556E+00 -.268E+04   0.740E-01 -.107E+00 -.244E+00   -.112E-01 -.596E-01 -.114E+00
   0.193E+00 -.370E+00 0.268E+04   -.136E+00 0.556E+00 -.268E+04   -.739E-01 -.107E+00 -.244E+00   0.199E-01 -.661E-01 -.113E+00
   0.131E-01 0.147E-01 0.268E+04   0.256E-03 -.659E-02 -.268E+04   -.606E-04 -.544E-02 -.420E+00   -.135E-01 -.145E-02 -.476E-01
   0.410E+01 0.237E+01 0.906E+03   -.359E+01 -.207E+01 -.905E+03   -.340E+00 -.206E+00 -.722E+00   -.128E+00 -.735E-01 -.613E-01
   -.983E-02 0.385E+01 0.912E+03   -.155E-02 -.371E+01 -.912E+03   0.157E-03 0.123E-01 -.211E+00   0.114E-01 -.203E+00 -.572E-01
   -.409E+01 0.236E+01 0.906E+03   0.360E+01 -.207E+01 -.905E+03   0.340E+00 -.206E+00 -.722E+00   0.121E+00 -.686E-01 -.658E-01
   0.331E+01 -.203E+01 0.912E+03   -.321E+01 0.196E+01 -.912E+03   0.352E-01 -.963E-02 -.248E+00   -.165E+00 0.103E+00 -.710E-01
   -.333E+01 -.203E+01 0.912E+03   0.321E+01 0.196E+01 -.912E+03   -.354E-01 -.964E-02 -.248E+00   0.183E+00 0.990E-01 -.792E-01
   0.753E-02 0.402E+01 0.910E+03   0.184E-02 -.423E+01 -.909E+03   -.289E-03 0.232E-01 -.573E+00   -.918E-02 0.129E+00 0.873E-01
   -.180E-03 -.464E+01 0.906E+03   0.127E-03 0.404E+01 -.905E+03   0.202E-03 0.416E+00 -.756E+00   -.891E-04 0.150E+00 -.714E-01
   0.358E+01 -.196E+01 0.910E+03   -.375E+01 0.206E+01 -.909E+03   0.114E-01 -.896E-02 -.601E+00   0.114E+00 -.676E-01 0.671E-01
   -.358E+01 -.196E+01 0.910E+03   0.375E+01 0.206E+01 -.909E+03   -.115E-01 -.850E-02 -.600E+00   -.114E+00 -.589E-01 0.710E-01
   -.138E-01 0.452E+00 -.899E+03   0.120E-01 -.739E+00 0.898E+03   -.791E-03 0.606E-01 0.481E+00   0.242E-02 0.197E+00 0.617E+00
   0.104E+02 0.538E+01 -.868E+03   -.907E+01 -.461E+01 0.869E+03   -.113E+01 -.617E+00 -.111E+01   -.222E+00 -.151E+00 0.647E+00
   -.104E+02 0.538E+01 -.868E+03   0.906E+01 -.461E+01 0.869E+03   0.113E+01 -.616E+00 -.111E+01   0.210E+00 -.152E+00 0.643E+00
   -.270E+01 0.130E+01 -.883E+03   0.258E+01 -.123E+01 0.882E+03   0.381E+00 -.199E+00 0.538E+00   -.238E+00 0.117E+00 0.623E+00
   0.162E-01 -.122E+02 -.870E+03   -.953E-02 0.106E+02 0.870E+03   0.168E-03 0.135E+01 -.106E+01   -.715E-02 0.278E+00 0.643E+00
   0.269E+01 0.129E+01 -.883E+03   -.257E+01 -.122E+01 0.882E+03   -.381E+00 -.200E+00 0.539E+00   0.241E+00 0.118E+00 0.622E+00
   -.879E+00 0.353E+00 -.899E+03   0.111E+01 -.179E+00 0.898E+03   -.406E-01 -.681E-01 0.581E+00   -.164E+00 -.900E-01 0.623E+00
   0.872E+00 0.339E+00 -.899E+03   -.111E+01 -.168E+00 0.898E+03   0.413E-01 -.686E-01 0.583E+00   0.166E+00 -.875E-01 0.626E+00
   0.575E-02 -.226E+01 -.882E+03   -.455E-02 0.209E+01 0.881E+03   -.156E-03 0.435E+00 0.486E+00   -.102E-02 -.238E+00 0.607E+00
   -.334E-01 0.212E+01 -.263E+04   0.318E-01 -.219E+01 0.263E+04   -.185E-03 0.486E-01 0.351E+00   0.178E-02 0.201E-03 0.364E+00
   0.304E+02 0.483E+02 -.260E+04   -.297E+02 -.469E+02 0.260E+04   -.930E+00 -.150E+01 -.433E+00   0.756E-01 -.610E-01 0.209E+00
   -.304E+02 0.484E+02 -.260E+04   0.296E+02 -.470E+02 0.260E+04   0.931E+00 -.151E+01 -.438E+00   -.774E-01 -.583E-01 0.209E+00
   0.536E+02 -.110E+01 -.260E+04   -.519E+02 0.108E+01 0.260E+04   -.182E+01 -.739E-01 -.388E+00   -.481E-01 0.116E+00 0.265E+00
   -.537E+02 -.113E+01 -.260E+04   0.520E+02 0.110E+01 0.260E+04   0.182E+01 -.734E-01 -.381E+00   0.488E-01 0.120E+00 0.267E+00
   0.212E+02 -.441E+02 -.261E+04   -.205E+02 0.428E+02 0.261E+04   -.710E+00 0.142E+01 0.885E-01   -.474E-01 -.640E-01 0.277E+00
   -.212E+02 -.442E+02 -.261E+04   0.205E+02 0.429E+02 0.261E+04   0.708E+00 0.141E+01 0.935E-01   0.530E-01 -.630E-01 0.278E+00
   -.337E-02 0.127E+01 -.264E+04   0.129E-01 -.122E+01 0.264E+04   0.533E-03 -.513E-02 0.520E+00   -.104E-01 -.393E-01 0.194E+00
   0.102E+00 -.470E+01 -.125E+04   -.999E-01 0.476E+01 0.125E+04   0.293E-03 -.919E-01 0.686E+00   0.141E-02 0.134E-01 0.294E+00
   0.671E+02 0.419E+02 -.294E+03   -.738E+02 -.462E+02 0.296E+03   0.674E+01 0.428E+01 -.186E+01   -.280E-01 -.153E-01 0.583E-02
   -.665E+02 0.428E+02 -.294E+03   0.732E+02 -.471E+02 0.296E+03   -.669E+01 0.436E+01 -.186E+01   0.278E-01 -.155E-01 0.587E-02
   -.301E+00 -.557E+02 -.165E+04   0.584E+00 0.979E+02 0.165E+04   -.286E+00 -.423E+02 0.714E+01   -.240E-04 0.450E-01 0.167E+00
 -----------------------------------------------------------------------------------------------
   0.231E+00 0.339E+02 -.298E+01   -.333E-15 -.142E-12 0.114E-11   -.231E+00 -.339E+02 -.363E+01   -.149E-02 -.149E-01 0.724E+01
 
 
 POSITION                                       TOTAL-FORCE (eV/Angst)
 -----------------------------------------------------------------------------------
      0.00000      0.00000      5.28038         0.000031      0.002294     -0.109614
      2.93784      0.00000      5.28038        -0.011997     -0.001839     -0.015312
      5.87568      0.00000      5.28038         0.012130     -0.001818     -0.015396
      1.46892      2.54424      5.28038        -0.005933     -0.011025     -0.014375
      4.40676      2.54424      5.28038         0.000253     -0.004248     -0.040724
      7.34459      2.54424      5.28038         0.006083     -0.011083     -0.014277
      2.93784      5.08848      5.28038        -0.002601      0.012062     -0.011236
      5.87568      5.08848      5.28038         0.002704      0.012113     -0.011224
      8.81351      5.08848      5.28038        -0.000110      0.000884     -0.037430
      1.46892      0.84808      7.67911         0.037360      0.020438      0.084997
      4.40676      0.84808      7.67911         0.000235     -0.044718     -0.016325
      7.34459      0.84808      7.67911        -0.037293      0.020446      0.085067
      2.93784      3.39232      7.67911        -0.031775      0.024129     -0.016409
      5.87568      3.39232      7.67911         0.032378      0.024270     -0.016550
      8.81351      3.39232      7.67911        -0.000036     -0.055750      0.037168
      4.40676      5.93656      7.67911         0.000122     -0.038685      0.072772
      7.34459      5.93656      7.67911        -0.048082      0.026357      0.039073
     10.28243      5.93656      7.67911         0.048204      0.026524      0.039078
      8.81351      1.69581     10.07501        -0.000046     -0.030076     -0.018039
      2.95207      1.70438     10.04871        -0.014584      0.002618     -0.054293
      5.86144      1.70438     10.04871         0.013775      0.002701     -0.055007
     10.26527      4.25031     10.05786         0.023565     -0.016149      0.005413
      4.40676      4.22397     10.04871        -0.000281      0.034886     -0.003430
      7.36176      4.25031     10.05786        -0.023449     -0.016325      0.005726
     11.75166      6.78482     10.07501         0.027715      0.015558     -0.015553
      5.87537      6.78482     10.07501        -0.027551      0.015583     -0.015531
      8.81351      6.76483     10.05786         0.000087      0.028041     -0.005545
      0.00000      0.00000     12.48798         0.000090     -0.015581     -0.139826
      2.98892      0.08359     12.48152        -0.078223     -0.147165     -0.010910
      5.82460      0.08359     12.48152         0.078627     -0.148016     -0.010920
      1.56685      2.54668     12.48152        -0.135925      0.018700     -0.015052
      7.24666      2.54668     12.48152         0.137999      0.018839     -0.016755
      2.98469      5.00245     12.48152        -0.108551      0.122436     -0.060606
      5.82882      5.00245     12.48152         0.109152      0.123496     -0.061357
      8.81351      5.08848     12.49580        -0.000273      0.000301     -0.055373
      4.40676      2.54424     12.17616         0.003649     -0.019908      0.516619
      3.61919      2.01320     14.53555         0.006477      0.005885     -0.004161
      5.19227      2.00327     14.53602        -0.011941      0.010083     -0.009385
      4.40913      2.54920     14.30694        -0.001987     -0.006257     -0.015299
 -----------------------------------------------------------------------------------
    total drift:                               -0.002461      0.011579      0.621981


--------------------------------------------------------------------------------------------------------



  FREE ENERGIE OF THE ION-ELECTRON SYSTEM (eV)
  ---------------------------------------------------
  free  energy   TOTEN  =      -128.77865916 eV

  energy  without entropy=     -128.77865916  energy(sigma->0) =     -128.77865916
 


--------------------------------------------------------------------------------------------------------


    POTLOK:  cpu time    0.0521: real time    0.0521


--------------------------------------------------------------------------------------------------------


 stress matrix after NEB project (eV)
    -21.27291     -0.00590     -0.01143
     -0.00590    -21.40053     -0.10394
     -0.01143     -0.10394      1.91022
  FORCES: max atom, RMS     0.018230    0.004247
  FORCE total and by dimension    0.026522    0.015299
  Stress total and by dimension   30.235578   21.400532
     LOOP+:  cpu time  280.2752: real time  280.2937
 -----------------------------------------------------------------------------
|                                                                             |
|           W    W    AA    RRRRR   N    N  II  N    N   GGGG   !!!           |
|           W    W   A  A   R    R  NN   N  II  NN   N  G    G  !!!           |
|           W    W  A    A  R    R  N N  N  II  N N  N  G       !!!           |
|           W WW W  AAAAAA  RRRRR   N  N N  II  N  N N  G  GGG   !            |
|           WW  WW  A    A  R   R   N   NN  II  N   NN  G    G                |
|           W    W  A    A  R    R  N    N  II  N    N   GGGG   !!!           |
|                                                                             |
|     Tetrahedron method does not include variations of the Fermi             |
|     occupations, so forces and stress will be inaccurate. We suggest        |
|     using a different smearing scheme ISMEAR = 1 or 2 for metals in         |
|     relaxations.                                                            |
|                                                                             |
 -----------------------------------------------------------------------------

    4ORBIT:  cpu time    0.0000: real time    0.0000



 total charge

# of ion       s       p       d       tot
------------------------------------------
    1        0.548   0.238   8.767   9.552
    2        0.544   0.241   8.764   9.549
    3        0.544   0.241   8.764   9.549
    4        0.544   0.241   8.765   9.549
    5        0.545   0.241   8.761   9.546
    6        0.544   0.241   8.764   9.549
    7        0.543   0.241   8.765   9.549
    8        0.543   0.241   8.765   9.549
    9        0.543   0.239   8.767   9.549
   10        0.526   0.308   8.767   9.601
   11        0.523   0.308   8.780   9.610
   12        0.526   0.308   8.767   9.601
   13        0.522   0.308   8.780   9.610
   14        0.522   0.308   8.780   9.610
   15        0.517   0.309   8.775   9.600
   16        0.526   0.308   8.767   9.601
   17        0.517   0.309   8.775   9.601
   18        0.517   0.309   8.775   9.601
   19        0.519   0.298   8.774   9.591
   20        0.560   0.337   8.740   9.638
   21        0.560   0.337   8.740   9.638
   22        0.509   0.309   8.776   9.594
   23        0.560   0.337   8.740   9.637
   24        0.509   0.309   8.776   9.594
   25        0.517   0.298   8.775   9.590
   26        0.517   0.298   8.775   9.590
   27        0.511   0.309   8.775   9.595
   28        0.540   0.226   8.755   9.521
   29        0.576   0.250   8.741   9.567
   30        0.576   0.250   8.741   9.567
   31        0.576   0.248   8.741   9.565
   32        0.576   0.248   8.741   9.565
   33        0.570   0.241   8.746   9.557
   34        0.570   0.241   8.746   9.557
   35        0.535   0.225   8.760   9.520
   36        0.352   0.390   4.193   4.935
   37        0.600   0.117   0.000   0.717
   38        0.600   0.117   0.000   0.717
   39        1.568   3.613   0.000   5.182
--------------------------------------------------
tot         21.993  13.939 310.884 346.816
 
 BZINTS: Fermi energy:    0.333143;  399.000000 electrons
         Band energy:-0.140565E+04;  BLOECHL correction:   -0.027420

 total amount of memory used by VASP MPI-rank0   280375. kBytes
=======================================================================

   base      :      30000. kBytes
   nonlr-proj:      13808. kBytes
   fftplans  :       4808. kBytes
   grid      :      20723. kBytes
   one-center:        606. kBytes
   wavefun   :     210430. kBytes
 
  
  
 General timing and accounting informations for this job:
 ========================================================
  
                  Total CPU time used (sec):      301.151
                            User time (sec):      291.007
                          System time (sec):       10.143
                         Elapsed time (sec):      301.681
  
                   Maximum memory used (kb):      580976.
                   Average memory used (kb):          N/A
  
                          Minor page faults:       186944
                          Major page faults:            0
                 Voluntary context switches:         7475
