PROCAR new format
# of k-points:   10         # of bands:  252         # of ions:   37

 k-point     1 :    0.00000000 0.00000000 0.00000000     weight = 0.01562500

band     1 # energy  -54.98550392 # occ.  2.00000000
 
ion      s      p      d    tot
    1  0.000  0.000  0.000  0.000
    2  0.000  0.000  0.000  0.000
    3  0.000  0.000  0.000  0.000
    4  0.000  0.000  0.000  0.000
    5  0.000  0.000  0.000  0.000
    6  0.000  0.000  0.000  0.000
    7  0.000  0.000  0.000  0.000
    8  0.000  0.000  0.000  0.000
    9  0.000  0.000  0.000  0.000
   10  0.000  0.000  0.000  0.000
   11  0.000  0.000  0.000  0.000
   12  0.000  0.000  0.000  0.000
   13  0.000  0.000  0.000  0.000
   14  0.000  0.000  0.000  0.000
   15  0.000  0.000  0.000  0.000
   16  0.000  0.000  0.000  0.000
   17  0.000  0.000  0.000  0.000
   18  0.000  0.000  0.000  0.000
   19  0.000  0.000  0.000  0.000
   20  0.000  0.000  0.000  0.000
   21  0.000  0.000  0.000  0.000
   22  0.000  0.000  0.000  0.000
   23  0.000  0.000  0.000  0.000
   24  0.000  0.000  0.000  0.000
   25  0.000  0.000  0.000  0.000
   26  0.000  0.000  0.000  0.000
   27  0.000  0.000  0.000  0.000
   28  0.000  0.000  0.000  0.000
   29  0.000  0.000  0.000  0.000
   30  0.000  0.000  0.000  0.000
   31  0.000  0.000  0.000  0.000
   32  0.000  0.000  0.000  0.000
   33  0.000  0.000  0.000  0.000
   34  0.000  0.000  0.000  0.000
   35  0.000  0.000  0.000  0.000
   36  0.992  0.000  0.000  0.992
   37  0.000  0.000  0.000  0.000
tot    0.993  0.000  0.000  0.993
 
band     2 # energy  -31.10587505 # occ.  2.00000000
 
ion      s      p      d    tot
    1  0.000  0.000  0.000  0.000
    2  0.000  0.000  0.000  0.000
    3  0.000  0.000  0.000  0.000
    4  0.000  0.000  0.000  0.000
    5  0.000  0.000  0.000  0.000
    6  0.000  0.000  0.000  0.000
    7  0.000  0.000  0.000  0.000
    8  0.000  0.000  0.000  0.000
    9  0.000  0.000  0.000  0.000
   10  0.000  0.000  0.000  0.000
   11  0.000  0.000  0.000  0.000
   12  0.000  0.000  0.000  0.000
   13  0.000  0.000  0.000  0.000
   14  0.000  0.000  0.000  0.000
   15  0.000  0.000  0.000  0.000
   16  0.000  0.000  0.000  0.000
   17  0.000  0.000  0.000  0.000
   18  0.000  0.000  0.000  0.000
   19  0.000  0.000  0.000  0.000
   20  0.000  0.000  0.000  0.000
   21  0.000  0.000  0.000  0.000
   22  0.000  0.000  0.000  0.000
   23  0.000  0.000  0.000  0.000
   24  0.000  0.000  0.000  0.000
   25  0.000  0.000  0.000  0.000
   26  0.000  0.000  0.000  0.000
   27  0.000  0.000  0.000  0.000
   28  0.000  0.000  0.000  0.000
   29  0.000  0.000  0.000  0.000
   30  0.000  0.000  0.000  0.000
   31  0.000  0.000  0.000  0.000
   32  0.000  0.000  0.000  0.000
   33  0.000  0.000  0.000  0.000
   34  0.000  0.000  0.000  0.000
   35  0.000  0.000  0.000  0.000
   36  0.000  0.973  0.000  0.973
   37  0.000  0.000  0.000  0.000
tot    0.000  0.973  0.001  0.974
 
band     3 # energy  -31.10587313 # occ.  2.00000000
 
ion      s      p      d    tot
    1  0.000  0.000  0.000  0.000
    2  0.000  0.000  0.000  0.000
    3  0.000  0.000  0.000  0.000
    4  0.000  0.000  0.000  0.000
    5  0.000  0.000  0.000  0.000
    6  0.000  0.000  0.000  0.000
    7  0.000  0.000  0.000  0.000
    8  0.000  0.000  0.000  0.000
    9  0.000  0.000  0.000  0.000
   10  0.000  0.000  0.000  0.000
   11  0.000  0.000  0.000  0.000
   12  0.000  0.000  0.000  0.000
   13  0.000  0.000  0.000  0.000
   14  0.000  0.000  0.000  0.000
   15  0.000  0.000  0.000  0.000
   16  0.000  0.000  0.000  0.000
   17  0.000  0.000  0.000  0.000
   18  0.000  0.000  0.000  0.000
   19  0.000  0.000  0.000  0.000
   20  0.000  0.000  0.000  0.000
   21  0.000  0.000  0.000  0.000
   22  0.000  0.000  0.000  0.000
   23  0.000  0.000  0.000  0.000
   24  0.000  0.000  0.000  0.000
   25  0.000  0.000  0.000  0.000
   26  0.000  0.000  0.000  0.000
   27  0.000  0.000  0.000  0.000
   28  0.000  0.000  0.000  0.000
   29  0.000  0.000  0.000  0.000
   30  0.000  0.000  0.000  0.000
   31  0.000  0.000  0.000  0.000
   32  0.000  0.000  0.000  0.000
   33  0.000  0.000  0.000  0.000
   34  0.000  0.000  0.000  0.000
   35  0.000  0.000  0.000  0.000
   36  0.000  0.973  0.000  0.973
   37  0.000  0.000  0.000  0.000
tot    0.000  0.973  0.001  0.974
 
band     4 # energy  -30.81776354 # occ.  2.00000000
 
ion      s      p      d    tot
    1  0.000  0.000  0.000  0.000
    2  0.000  0.000  0.000  0.000
    3  0.000  0.000  0.000  0.000
    4  0.000  0.000  0.000  0.000
    5  0.000  0.000  0.000  0.000
    6  0.000  0.000  0.000  0.000
    7  0.000  0.000  0.000  0.000
    8  0.000  0.000  0.000  0.000
    9  0.000  0.000  0.000  0.000
   10  0.000  0.000  0.000  0.000
   11  0.000  0.000  0.000  0.000
   12  0.000  0.000  0.000  0.000
   13  0.000  0.000  0.000  0.000
   14  0.000  0.000  0.000  0.000
   15  0.000  0.000  0.000  0.000
   16  0.000  0.000  0.000  0.000
   17  0.000  0.000  0.000  0.000
   18  0.000  0.000  0.000  0.000
   19  0.000  0.000  0.000  0.000
   20  0.000  0.000  0.000  0.001
   21  0.000  0.000  0.000  0.001
   22  0.000  0.000  0.000  0.000
   23  0.000  0.000  0.000  0.001
   24  0.000  0.000  0.000  0.000
   25  0.000  0.000  0.000  0.000
   26  0.000  0.000  0.000  0.000
   27  0.000  0.000  0.000  0.000
   28  0.000  0.000  0.000  0.000
   29  0.000  0.000  0.000  0.000
   30  0.000  0.000  0.000  0.000
   31  0.000  0.000  0.000  0.000
   32  0.000  0.000  0.000  0.000
   33  0.000  0.000  0.000  0.000
   34  0.000  0.000  0.000  0.000
   35  0.000  0.000  0.000  0.000
   36  0.000  0.970  0.000  0.970
   37  0.002  0.000  0.000  0.002
tot    0.002  0.971  0.001  0.974
 
band     5 # energy   -8.10931888 # occ.  2.00000000
 
ion      s      p      d    tot
    1  0.007  0.001  0.000  0.007
    2  0.007  0.001  0.000  0.007
    3  0.007  0.001  0.000  0.007
    4  0.007  0.001  0.000  0.007
    5  0.007  0.001  0.000  0.007
    6  0.007  0.001  0.000  0.007
    7  0.007  0.001  0.000  0.007
    8  0.007  0.001  0.000  0.007
    9  0.006  0.001  0.000  0.007
   10  0.027  0.000  0.000  0.027
   11  0.027  0.000  0.000  0.028
   12  0.027  0.000  0.000  0.027
   13  0.027  0.000  0.000  0.028
   14  0.027  0.000  0.000  0.028
   15  0.026  0.000  0.000  0.026
   16  0.027  0.000  0.000  0.027
   17  0.026  0.000  0.000  0.026
   18  0.026  0.000  0.000  0.026
   19  0.023  0.000  0.000  0.023
   20  0.027  0.000  0.000  0.027
   21  0.027  0.000  0.000  0.027
   22  0.024  0.000  0.000  0.024
   23  0.027  0.000  0.000  0.027
   24  0.024  0.000  0.000  0.024
   25  0.023  0.000  0.000  0.023
   26  0.023  0.000  0.000  0.023
   27  0.024  0.000  0.000  0.024
   28  0.005  0.000  0.000  0.005
   29  0.005  0.000  0.000  0.005
   30  0.005  0.000  0.000  0.005
   31  0.005  0.000  0.000  0.005
   32  0.005  0.000  0.000  0.005
   33  0.005  0.000  0.000  0.005
   34  0.005  0.000  0.000  0.005
   35  0.005  0.000  0.000  0.005
   36  0.003  0.000  0.000  0.003
   37  0.000  0.000  0.000  0.000
tot    0.562  0.011  0.004  0.576
 
band     6 # energy   -6.93780376 # occ.  2.00000000
 
ion      s      p      d    tot
    1  0.017  0.000  0.001  0.018
    2  0.016  0.000  0.001  0.018
    3  0.016  0.000  0.001  0.018
    4  0.016  0.000  0.001  0.018
    5  0.016  0.000  0.001  0.018
    6  0.016  0.000  0.001  0.018
    7  0.016  0.000  0.001  0.018
    8  0.016  0.000  0.001  0.018
    9  0.016  0.000  0.001  0.018
   10  0.011  0.001  0.003  0.015
   11  0.010  0.001  0.003  0.014
   12  0.011  0.001  0.003  0.015
   13  0.010  0.001  0.003  0.014
   14  0.010  0.001  0.003  0.014
   15  0.010  0.001  0.002  0.014
   16  0.011  0.001  0.003  0.015
   17  0.010  0.001  0.002  0.014
   18  0.010  0.001  0.002  0.014
   19  0.013  0.001  0.003  0.018
   20  0.015  0.001  0.004  0.020
   21  0.015  0.001  0.004  0.020
   22  0.014  0.001  0.003  0.018
   23  0.015  0.001  0.004  0.020
   24  0.014  0.001  0.003  0.018
   25  0.013  0.001  0.003  0.018
   26  0.013  0.001  0.003  0.018
   27  0.014  0.001  0.003  0.018
   28  0.015  0.000  0.001  0.016
   29  0.015  0.000  0.001  0.016
   30  0.015  0.000  0.001  0.016
   31  0.015  0.000  0.001  0.016
   32  0.015  0.000  0.001  0.016
   33  0.015  0.000  0.001  0.016
   34  0.015  0.000  0.001  0.016
   35  0.015  0.000  0.001  0.016
   36  0.006  0.000  0.000  0.007
   37  0.001  0.000  0.000  0.001
tot    0.489  0.031  0.070  0.589
 
band     7 # energy   -6.00566313 # occ.  2.00000000
 
ion      s      p      d    tot
    1  0.001  0.001  0.012  0.014
    2  0.009  0.000  0.009  0.018
    3  0.009  0.000  0.009  0.018
    4  0.009  0.000  0.009  0.018
    5  0.006  0.000  0.006  0.012
    6  0.009  0.000  0.009  0.018
    7  0.009  0.000  0.009  0.018
    8  0.009  0.000  0.009  0.018
    9  0.028  0.001  0.004  0.033
   10  0.012  0.001  0.013  0.026
   11  0.009  0.002  0.009  0.020
   12  0.012  0.001  0.013  0.026
   13  0.009  0.002  0.009  0.020
   14  0.008  0.002  0.009  0.019
   15  0.005  0.001  0.010  0.016
   16  0.012  0.001  0.013  0.026
   17  0.005  0.001  0.010  0.016
   18  0.005  0.001  0.010  0.016
   19  0.001  0.001  0.013  0.015
   20  0.019  0.002  0.015  0.035
   21  0.019  0.002  0.015  0.035
   22  0.005  0.001  0.004  0.011
   23  0.019  0.002  0.015  0.035
   24  0.005  0.001  0.004  0.011
   25  0.001  0.001  0.013  0.015
   26  0.001  0.001  0.013  0.015
   27  0.005  0.001  0.004  0.011
   28  0.011  0.000  0.003  0.014
   29  0.009  0.000  0.008  0.017
   30  0.009  0.000  0.008  0.017
   31  0.009  0.000  0.008  0.017
   32  0.009  0.000  0.008  0.017
   33  0.009  0.000  0.008  0.017
   34  0.009  0.000  0.008  0.017
   35  0.023  0.000  0.004  0.027
   36  0.000  0.001  0.006  0.007
   37  0.000  0.000  0.000  0.000
tot    0.327  0.029  0.330  0.685
 
band     8 # energy   -5.99223347 # occ.  2.00000000
 
ion      s      p      d    tot
    1  0.000  0.001  0.008  0.009
    2  0.004  0.001  0.003  0.007
    3  0.000  0.000  0.003  0.004
    4  0.004  0.001  0.003  0.007
    5  0.000  0.001  0.006  0.007
    6  0.006  0.001  0.003  0.011
    7  0.000  0.000  0.003  0.004
    8  0.006  0.001  0.003  0.010
    9  0.000  0.000  0.001  0.001
   10  0.040  0.002  0.005  0.048
   11  0.012  0.003  0.020  0.034
   12  0.010  0.001  0.028  0.039
   13  0.012  0.003  0.019  0.035
   14  0.048  0.001  0.012  0.061
   15  0.000  0.002  0.007  0.010
   16  0.010  0.001  0.028  0.039
   17  0.000  0.002  0.007  0.010
   18  0.000  0.000  0.011  0.012
   19  0.003  0.003  0.006  0.012
   20  0.065  0.001  0.011  0.077
   21  0.017  0.002  0.032  0.050
   22  0.003  0.001  0.019  0.023
   23  0.016  0.002  0.032  0.050
   24  0.013  0.002  0.006  0.020
   25  0.013  0.000  0.013  0.026
   26  0.003  0.003  0.006  0.013
   27  0.003  0.001  0.019  0.023
   28  0.000  0.000  0.001  0.002
   29  0.006  0.001  0.004  0.011
   30  0.002  0.001  0.003  0.005
   31  0.006  0.001  0.004  0.011
   32  0.001  0.000  0.002  0.004
   33  0.002  0.001  0.003  0.005
   34  0.001  0.000  0.002  0.004
   35  0.000  0.000  0.004  0.004
   36  0.000  0.001  0.005  0.006
   37  0.000  0.000  0.000  0.000
tot    0.305  0.042  0.343  0.690
 
band     9 # energy   -5.99220974 # occ.  2.00000000
 
ion      s      p      d    tot
    1  0.000  0.001  0.008  0.009
    2  0.003  0.001  0.003  0.007
    3  0.006  0.001  0.003  0.010
    4  0.003  0.001  0.003  0.007
    5  0.000  0.001  0.006  0.007
    6  0.001  0.000  0.003  0.003
    7  0.006  0.001  0.003  0.010
    8  0.001  0.000  0.003  0.004
    9  0.000  0.000  0.001  0.001
   10  0.000  0.000  0.036  0.036
   11  0.036  0.001  0.015  0.052
   12  0.030  0.002  0.013  0.045
   13  0.035  0.002  0.015  0.052
   14  0.000  0.004  0.022  0.026
   15  0.000  0.001  0.010  0.011
   16  0.030  0.002  0.012  0.045
   17  0.000  0.001  0.010  0.011
   18  0.000  0.003  0.006  0.009
   19  0.010  0.001  0.011  0.022
   20  0.000  0.002  0.039  0.041
   21  0.048  0.002  0.018  0.068
   22  0.009  0.001  0.010  0.021
   23  0.049  0.002  0.018  0.068
   24  0.000  0.001  0.024  0.024
   25  0.000  0.004  0.004  0.008
   26  0.010  0.001  0.011  0.022
   27  0.010  0.001  0.010  0.021
   28  0.000  0.000  0.001  0.002
   29  0.000  0.000  0.002  0.002
   30  0.004  0.001  0.003  0.008
   31  0.000  0.000  0.002  0.002
   32  0.005  0.001  0.004  0.009
   33  0.004  0.001  0.003  0.008
   34  0.005  0.001  0.004  0.009
   35  0.000  0.000  0.004  0.004
   36  0.000  0.001  0.005  0.006
   37  0.000  0.000  0.000  0.000
tot    0.305  0.042  0.343  0.690
 
band    10 # energy   -5.97272140 # occ.  2.00000000
 
ion      s      p      d    tot
    1  0.031  0.000  0.008  0.039
    2  0.013  0.000  0.015  0.028
    3  0.013  0.000  0.015  0.028
    4  0.013  0.000  0.015  0.028
    5  0.011  0.000  0.016  0.027
    6  0.013  0.000  0.015  0.028
    7  0.013  0.000  0.015  0.028
    8  0.013  0.000  0.015  0.028
    9  0.003  0.001  0.015  0.020
   10  0.000  0.000  0.032  0.032
   11  0.005  0.001  0.022  0.027
   12  0.000  0.000  0.032  0.032
   13  0.005  0.001  0.022  0.027
   14  0.005  0.001  0.022  0.027
   15  0.026  0.002  0.012  0.040
   16  0.000  0.000  0.032  0.032
   17  0.026  0.002  0.012  0.040
   18  0.026  0.002  0.012  0.040
   19  0.003  0.001  0.010  0.013
   20  0.008  0.000  0.017  0.026
   21  0.008  0.000  0.017  0.026
   22  0.006  0.001  0.006  0.014
   23  0.008  0.000  0.017  0.026
   24  0.006  0.001  0.006  0.014
   25  0.003  0.001  0.010  0.013
   26  0.003  0.001  0.010  0.013
   27  0.006  0.001  0.006  0.014
   28  0.000  0.000  0.000  0.000
   29  0.000  0.000  0.001  0.001
   30  0.000  0.000  0.001  0.001
   31  0.000  0.000  0.001  0.001
   32  0.000  0.000  0.001  0.001
   33  0.000  0.000  0.001  0.001
   34  0.000  0.000  0.001  0.001
   35  0.003  0.000  0.000  0.003
   36  0.002  0.000  0.002  0.004
   37  0.000  0.000  0.000  0.000
tot    0.268  0.018  0.439  0.725
 
band    11 # energy   -5.93220839 # occ.  2.00000000
 
ion      s      p      d    tot
    1  0.005  0.001  0.002  0.009
    2  0.000  0.001  0.005  0.006
    3  0.000  0.001  0.005  0.006
    4  0.000  0.001  0.005  0.006
    5  0.014  0.001  0.000  0.015
    6  0.000  0.001  0.005  0.006
    7  0.000  0.001  0.005  0.006
    8  0.000  0.001  0.005  0.006
    9  0.000  0.000  0.002  0.002
   10  0.026  0.002  0.001  0.029
   11  0.010  0.000  0.026  0.036
   12  0.025  0.002  0.001  0.029
   13  0.010  0.000  0.026  0.036
   14  0.010  0.000  0.026  0.036
   15  0.000  0.001  0.018  0.019
   16  0.025  0.002  0.001  0.029
   17  0.000  0.001  0.018  0.019
   18  0.000  0.001  0.018  0.019
   19  0.009  0.002  0.013  0.024
   20  0.008  0.002  0.022  0.032
   21  0.008  0.002  0.022  0.032
   22  0.016  0.000  0.022  0.038
   23  0.008  0.002  0.022  0.032
   24  0.016  0.000  0.022  0.038
   25  0.009  0.002  0.013  0.024
   26  0.009  0.002  0.013  0.024
   27  0.016  0.000  0.022  0.038
   28  0.023  0.001  0.002  0.025
   29  0.005  0.000  0.007  0.012
   30  0.005  0.000  0.007  0.012
   31  0.005  0.000  0.007  0.012
   32  0.005  0.000  0.007  0.012
   33  0.005  0.000  0.007  0.012
   34  0.005  0.000  0.007  0.012
   35  0.000  0.001  0.011  0.012
   36  0.001  0.000  0.001  0.002
   37  0.000  0.000  0.000  0.000
tot    0.281  0.030  0.395  0.706
 
band    12 # energy   -5.92803821 # occ.  2.00000000
 
ion      s      p      d    tot
    1  0.000  0.000  0.000  0.000
    2  0.000  0.000  0.003  0.004
    3  0.000  0.000  0.003  0.004
    4  0.000  0.000  0.003  0.004
    5  0.008  0.001  0.000  0.009
    6  0.000  0.000  0.003  0.004
    7  0.000  0.000  0.003  0.004
    8  0.000  0.000  0.003  0.004
    9  0.004  0.001  0.001  0.006
   10  0.000  0.001  0.014  0.015
   11  0.017  0.002  0.001  0.019
   12  0.000  0.001  0.014  0.015
   13  0.017  0.002  0.001  0.019
   14  0.017  0.002  0.001  0.019
   15  0.008  0.000  0.017  0.025
   16  0.000  0.001  0.014  0.015
   17  0.008  0.000  0.017  0.025
   18  0.008  0.000  0.017  0.025
   19  0.020  0.001  0.014  0.035
   20  0.002  0.001  0.028  0.031
   21  0.002  0.001  0.028  0.031
   22  0.007  0.001  0.020  0.029
   23  0.002  0.001  0.028  0.031
   24  0.007  0.001  0.020  0.029
   25  0.019  0.001  0.014  0.035
   26  0.020  0.001  0.014  0.035
   27  0.007  0.001  0.020  0.029
   28  0.003  0.001  0.016  0.020
   29  0.014  0.000  0.012  0.026
   30  0.014  0.000  0.012  0.026
   31  0.014  0.000  0.012  0.026
   32  0.014  0.000  0.012  0.026
   33  0.014  0.000  0.012  0.026
   34  0.014  0.000  0.012  0.026
   35  0.013  0.000  0.009  0.021
   36  0.009  0.000  0.004  0.013
   37  0.000  0.000  0.000  0.000
tot    0.278  0.024  0.407  0.709
 
band    13 # energy   -5.90906917 # occ.  2.00000000
 
ion      s      p      d    tot
    1  0.000  0.001  0.003  0.004
    2  0.004  0.001  0.003  0.009
    3  0.000  0.000  0.004  0.004
    4  0.005  0.001  0.003  0.009
    5  0.000  0.000  0.005  0.005
    6  0.008  0.001  0.004  0.013
    7  0.000  0.000  0.004  0.005
    8  0.007  0.001  0.004  0.013
    9  0.000  0.001  0.011  0.012
   10  0.000  0.005  0.003  0.008
   11  0.010  0.001  0.011  0.022
   12  0.015  0.001  0.013  0.030
   13  0.009  0.001  0.013  0.023
   14  0.000  0.001  0.029  0.030
   15  0.050  0.001  0.014  0.065
   16  0.016  0.001  0.014  0.032
   17  0.046  0.001  0.016  0.063
   18  0.000  0.001  0.040  0.042
   19  0.029  0.002  0.010  0.041
   20  0.000  0.002  0.010  0.012
   21  0.000  0.001  0.014  0.015
   22  0.027  0.002  0.013  0.041
   23  0.000  0.001  0.014  0.015
   24  0.000  0.004  0.018  0.021
   25  0.000  0.000  0.036  0.036
   26  0.027  0.002  0.012  0.040
   27  0.030  0.001  0.012  0.043
   28  0.000  0.000  0.006  0.007
   29  0.004  0.001  0.002  0.007
   30  0.002  0.000  0.002  0.005
   31  0.004  0.001  0.002  0.007
   32  0.000  0.000  0.002  0.002
   33  0.002  0.000  0.002  0.005
   34  0.000  0.000  0.002  0.002
   35  0.000  0.001  0.004  0.005
   36  0.000  0.000  0.000  0.000
   37  0.000  0.000  0.000  0.000
tot    0.297  0.041  0.355  0.693
 
band    14 # energy   -5.90906163 # occ.  2.00000000
 
ion      s      p      d    tot
    1  0.000  0.001  0.003  0.004
    2  0.004  0.001  0.004  0.009
    3  0.008  0.001  0.004  0.014
    4  0.003  0.001  0.004  0.008
    5  0.000  0.000  0.005  0.005
    6  0.001  0.000  0.003  0.004
    7  0.008  0.001  0.004  0.013
    8  0.001  0.000  0.003  0.005
    9  0.000  0.001  0.011  0.012
   10  0.021  0.000  0.017  0.038
   11  0.003  0.001  0.024  0.028
   12  0.006  0.003  0.007  0.016
   13  0.003  0.001  0.023  0.027
   14  0.012  0.001  0.007  0.020
   15  0.014  0.001  0.033  0.048
   16  0.005  0.004  0.006  0.014
   17  0.018  0.001  0.031  0.050
   18  0.064  0.002  0.006  0.071
   19  0.008  0.001  0.029  0.037
   20  0.000  0.001  0.015  0.016
   21  0.000  0.002  0.011  0.013
   22  0.011  0.003  0.016  0.029
   23  0.000  0.002  0.011  0.013
   24  0.038  0.001  0.011  0.049
   25  0.037  0.002  0.003  0.042
   26  0.011  0.001  0.026  0.038
   27  0.008  0.003  0.016  0.027
   28  0.000  0.000  0.006  0.007
   29  0.000  0.000  0.002  0.002
   30  0.002  0.000  0.002  0.004
   31  0.000  0.000  0.002  0.003
   32  0.004  0.001  0.002  0.007
   33  0.002  0.000  0.002  0.004
   34  0.004  0.001  0.002  0.007
   35  0.000  0.001  0.004  0.005
   36  0.000  0.000  0.000  0.000
   37  0.000  0.000  0.000  0.000
tot    0.297  0.041  0.355  0.693
 
band    15 # energy   -5.50360300 # occ.  2.00000000
 
ion      s      p      d    tot
    1  0.000  0.001  0.004  0.004
    2  0.001  0.001  0.005  0.006
    3  0.008  0.001  0.004  0.014
    4  0.001  0.001  0.005  0.006
    5  0.000  0.001  0.010  0.011
    6  0.005  0.001  0.004  0.009
    7  0.008  0.001  0.004  0.014
    8  0.005  0.001  0.004  0.009
    9  0.000  0.000  0.008  0.008
   10  0.000  0.001  0.050  0.051
   11  0.016  0.001  0.020  0.037
   12  0.007  0.001  0.019  0.027
   13  0.016  0.001  0.020  0.037
   14  0.000  0.000  0.048  0.048
   15  0.001  0.000  0.019  0.020
   16  0.007  0.001  0.019  0.027
   17  0.001  0.000  0.019  0.020
   18  0.000  0.001  0.011  0.013
   19  0.004  0.000  0.019  0.023
   20  0.000  0.000  0.086  0.086
   21  0.016  0.001  0.027  0.044
   22  0.004  0.001  0.019  0.023
   23  0.016  0.001  0.027  0.044
   24  0.000  0.001  0.033  0.034
   25  0.000  0.001  0.010  0.011
   26  0.004  0.000  0.019  0.023
   27  0.004  0.001  0.019  0.023
   28  0.000  0.000  0.008  0.008
   29  0.003  0.001  0.005  0.009
   30  0.008  0.001  0.005  0.014
   31  0.003  0.001  0.005  0.009
   32  0.001  0.001  0.004  0.006
   33  0.008  0.001  0.005  0.014
   34  0.001  0.001  0.004  0.006
   35  0.000  0.000  0.003  0.003
   36  0.000  0.001  0.004  0.006
   37  0.000  0.000  0.000  0.000
tot    0.149  0.028  0.573  0.749
 
band    16 # energy   -5.50358016 # occ.  2.00000000
 
ion      s      p      d    tot
    1  0.000  0.001  0.004  0.004
    2  0.009  0.001  0.004  0.014
    3  0.001  0.000  0.004  0.005
    4  0.009  0.001  0.004  0.014
    5  0.000  0.001  0.010  0.011
    6  0.004  0.001  0.005  0.010
    7  0.001  0.000  0.004  0.005
    8  0.004  0.001  0.005  0.010
    9  0.000  0.000  0.008  0.008
   10  0.010  0.002  0.008  0.020
   11  0.005  0.000  0.039  0.044
   12  0.002  0.001  0.040  0.043
   13  0.005  0.000  0.039  0.044
   14  0.021  0.001  0.011  0.033
   15  0.000  0.001  0.014  0.015
   16  0.002  0.001  0.040  0.043
   17  0.000  0.001  0.014  0.015
   18  0.002  0.000  0.021  0.023
   19  0.001  0.001  0.013  0.015
   20  0.021  0.001  0.007  0.030
   21  0.005  0.000  0.066  0.072
   22  0.001  0.001  0.029  0.031
   23  0.005  0.000  0.066  0.072
   24  0.005  0.001  0.014  0.020
   25  0.006  0.000  0.022  0.028
   26  0.001  0.001  0.013  0.015
   27  0.001  0.001  0.029  0.031
   28  0.000  0.000  0.008  0.008
   29  0.005  0.001  0.004  0.011
   30  0.000  0.000  0.004  0.005
   31  0.005  0.001  0.004  0.011
   32  0.007  0.001  0.005  0.014
   33  0.000  0.000  0.004  0.005
   34  0.007  0.001  0.005  0.014
   35  0.000  0.000  0.003  0.003
   36  0.000  0.001  0.004  0.006
   37  0.000  0.000  0.000  0.000
tot    0.149  0.028  0.573  0.749
 
band    17 # energy   -5.49476935 # occ.  2.00000000
 
ion      s      p      d    tot
    1  0.013  0.002  0.002  0.017
    2  0.000  0.001  0.008  0.008
    3  0.000  0.001  0.008  0.008
    4  0.000  0.001  0.008  0.008
    5  0.000  0.000  0.002  0.002
    6  0.000  0.001  0.008  0.008
    7  0.000  0.001  0.008  0.008
    8  0.000  0.001  0.008  0.008
    9  0.016  0.001  0.000  0.017
   10  0.010  0.001  0.015  0.026
   11  0.002  0.000  0.046  0.048
   12  0.010  0.001  0.015  0.026
   13  0.002  0.000  0.046  0.048
   14  0.002  0.000  0.046  0.048
   15  0.004  0.001  0.019  0.024
   16  0.010  0.001  0.015  0.026
   17  0.004  0.001  0.019  0.024
   18  0.004  0.001  0.019  0.024
   19  0.003  0.001  0.014  0.017
   20  0.001  0.000  0.055  0.056
   21  0.001  0.000  0.055  0.056
   22  0.012  0.001  0.017  0.029
   23  0.001  0.000  0.055  0.056
   24  0.012  0.001  0.017  0.030
   25  0.003  0.001  0.014  0.017
   26  0.003  0.001  0.014  0.017
   27  0.012  0.001  0.017  0.030
   28  0.013  0.001  0.000  0.014
   29  0.000  0.000  0.006  0.007
   30  0.000  0.000  0.006  0.007
   31  0.000  0.000  0.006  0.007
   32  0.000  0.000  0.006  0.007
   33  0.000  0.000  0.006  0.007
   34  0.000  0.000  0.006  0.007
   35  0.007  0.001  0.003  0.011
   36  0.000  0.000  0.001  0.001
   37  0.000  0.000  0.000  0.000
tot    0.145  0.026  0.585  0.757
 
band    18 # energy   -5.43939165 # occ.  2.00000000
 
ion      s      p      d    tot
    1  0.008  0.000  0.001  0.009
    2  0.000  0.001  0.008  0.009
    3  0.000  0.001  0.008  0.009
    4  0.000  0.001  0.008  0.009
    5  0.017  0.002  0.000  0.019
    6  0.000  0.001  0.008  0.009
    7  0.000  0.001  0.008  0.009
    8  0.000  0.001  0.008  0.009
    9  0.002  0.001  0.002  0.005
   10  0.000  0.000  0.043  0.043
   11  0.007  0.002  0.007  0.015
   12  0.000  0.000  0.043  0.043
   13  0.007  0.002  0.007  0.015
   14  0.007  0.002  0.007  0.015
   15  0.008  0.001  0.027  0.035
   16  0.000  0.000  0.043  0.043
   17  0.008  0.001  0.027  0.035
   18  0.008  0.001  0.027  0.035
   19  0.012  0.001  0.037  0.050
   20  0.008  0.002  0.012  0.022
   21  0.008  0.002  0.012  0.022
   22  0.000  0.000  0.038  0.038
   23  0.008  0.002  0.012  0.022
   24  0.000  0.000  0.038  0.038
   25  0.012  0.001  0.037  0.050
   26  0.012  0.001  0.037  0.050
   27  0.000  0.000  0.038  0.038
   28  0.003  0.001  0.005  0.009
   29  0.000  0.001  0.005  0.006
   30  0.000  0.001  0.005  0.006
   31  0.000  0.001  0.005  0.006
   32  0.000  0.001  0.005  0.006
   33  0.000  0.001  0.005  0.006
   34  0.000  0.001  0.005  0.006
   35  0.002  0.000  0.000  0.002
   36  0.008  0.001  0.001  0.010
   37  0.001  0.000  0.000  0.001
tot    0.146  0.029  0.576  0.751
 
band    19 # energy   -5.42978494 # occ.  2.00000000
 
ion      s      p      d    tot
    1  0.000  0.001  0.014  0.014
    2  0.009  0.001  0.004  0.015
    3  0.001  0.000  0.005  0.006
    4  0.009  0.001  0.004  0.015
    5  0.000  0.000  0.005  0.005
    6  0.004  0.001  0.005  0.010
    7  0.001  0.000  0.005  0.007
    8  0.004  0.001  0.005  0.010
    9  0.000  0.001  0.006  0.008
   10  0.000  0.001  0.030  0.031
   11  0.000  0.001  0.020  0.021
   12  0.008  0.000  0.022  0.030
   13  0.000  0.001  0.020  0.021
   14  0.000  0.001  0.018  0.019
   15  0.010  0.002  0.020  0.032
   16  0.008  0.000  0.022  0.030
   17  0.010  0.002  0.020  0.032
   18  0.000  0.000  0.062  0.062
   19  0.014  0.001  0.020  0.034
   20  0.000  0.002  0.020  0.022
   21  0.000  0.001  0.025  0.025
   22  0.017  0.001  0.020  0.038
   23  0.000  0.001  0.025  0.025
   24  0.000  0.001  0.031  0.032
   25  0.000  0.000  0.067  0.067
   26  0.014  0.001  0.019  0.034
   27  0.017  0.001  0.020  0.038
   28  0.000  0.001  0.005  0.006
   29  0.006  0.001  0.004  0.010
   30  0.000  0.000  0.005  0.006
   31  0.006  0.001  0.004  0.010
   32  0.005  0.001  0.003  0.008
   33  0.000  0.000  0.005  0.006
   34  0.005  0.001  0.003  0.008
   35  0.000  0.001  0.009  0.010
   36  0.000  0.000  0.002  0.002
   37  0.000  0.000  0.000  0.000
tot    0.148  0.028  0.572  0.749
 
band    20 # energy   -5.42977605 # occ.  2.00000000
 
ion      s      p      d    tot
    1  0.000  0.001  0.014  0.014
    2  0.000  0.000  0.005  0.006
    3  0.008  0.001  0.005  0.014
    4  0.000  0.000  0.005  0.006
    5  0.000  0.000  0.005  0.005
    6  0.006  0.001  0.004  0.011
    7  0.008  0.001  0.005  0.014
    8  0.006  0.001  0.004  0.011
    9  0.000  0.001  0.006  0.008
   10  0.010  0.000  0.019  0.029
   11  0.000  0.001  0.019  0.020
   12  0.003  0.001  0.027  0.030
   13  0.000  0.001  0.019  0.020
   14  0.001  0.001  0.020  0.022
   15  0.004  0.001  0.048  0.052
   16  0.003  0.001  0.027  0.030
   17  0.003  0.001  0.048  0.052
   18  0.014  0.002  0.006  0.022
   19  0.005  0.001  0.051  0.056
   20  0.000  0.000  0.026  0.027
   21  0.000  0.001  0.021  0.023
   22  0.006  0.001  0.028  0.034
   23  0.000  0.001  0.021  0.023
   24  0.023  0.001  0.016  0.040
   25  0.018  0.001  0.004  0.023
   26  0.005  0.001  0.051  0.056
   27  0.006  0.001  0.028  0.034
   28  0.000  0.001  0.005  0.006
   29  0.001  0.000  0.004  0.006
   30  0.007  0.001  0.003  0.011
   31  0.001  0.000  0.004  0.006
   32  0.002  0.001  0.005  0.008
   33  0.007  0.001  0.003  0.010
   34  0.002  0.001  0.005  0.008
   35  0.000  0.001  0.009  0.010
   36  0.000  0.000  0.002  0.002
   37  0.000  0.000  0.000  0.000
tot    0.148  0.028  0.572  0.749
 
band    21 # energy   -5.12706281 # occ.  2.00000000
 
ion      s      p      d    tot
    1  0.000  0.000  0.022  0.022
    2  0.004  0.001  0.008  0.012
    3  0.001  0.000  0.012  0.013
    4  0.004  0.001  0.008  0.012
    5  0.000  0.001  0.015  0.017
    6  0.010  0.001  0.009  0.019
    7  0.001  0.000  0.012  0.013
    8  0.010  0.001  0.009  0.019
    9  0.000  0.001  0.005  0.006
   10  0.000  0.001  0.025  0.025
   11  0.000  0.000  0.053  0.053
   12  0.000  0.000  0.014  0.015
   13  0.000  0.000  0.053  0.053
   14  0.001  0.000  0.048  0.050
   15  0.000  0.000  0.011  0.011
   16  0.000  0.000  0.014  0.015
   17  0.000  0.000  0.011  0.011
   18  0.000  0.000  0.018  0.019
   19  0.000  0.000  0.009  0.009
   20  0.001  0.000  0.089  0.091
   21  0.000  0.000  0.054  0.055
   22  0.000  0.000  0.020  0.021
   23  0.000  0.000  0.054  0.055
   24  0.001  0.000  0.015  0.017
   25  0.000  0.000  0.015  0.016
   26  0.000  0.000  0.009  0.009
   27  0.000  0.000  0.020  0.021
   28  0.000  0.001  0.004  0.005
   29  0.010  0.001  0.018  0.028
   30  0.002  0.000  0.011  0.014
   31  0.010  0.001  0.018  0.028
   32  0.003  0.000  0.008  0.011
   33  0.002  0.000  0.011  0.014
   34  0.003  0.000  0.008  0.011
   35  0.000  0.000  0.021  0.021
   36  0.000  0.001  0.008  0.009