PROCAR new format
# of k-points:   10         # of bands:  252         # of ions:   37

 k-point     1 :    0.00000000 0.00000000 0.00000000     weight = 0.01562500

band     1 # energy   -8.84701099 # occ.  2.00000000
 
ion      s      p      d    tot
    1  0.006  0.001  0.000  0.007
    2  0.006  0.001  0.000  0.007
    3  0.006  0.001  0.000  0.007
    4  0.006  0.001  0.000  0.007
    5  0.006  0.001  0.000  0.007
    6  0.006  0.001  0.000  0.007
    7  0.006  0.001  0.000  0.007
    8  0.006  0.001  0.000  0.007
    9  0.006  0.001  0.000  0.007
   10  0.024  0.000  0.000  0.024
   11  0.024  0.000  0.000  0.024
   12  0.024  0.000  0.000  0.024
   13  0.024  0.000  0.000  0.024
   14  0.024  0.000  0.000  0.024
   15  0.023  0.000  0.000  0.023
   16  0.024  0.000  0.000  0.024
   17  0.023  0.000  0.000  0.023
   18  0.023  0.000  0.000  0.023
   19  0.024  0.000  0.000  0.024
   20  0.027  0.000  0.000  0.027
   21  0.027  0.000  0.000  0.027
   22  0.024  0.000  0.000  0.024
   23  0.027  0.000  0.000  0.027
   24  0.024  0.000  0.000  0.024
   25  0.024  0.000  0.000  0.024
   26  0.024  0.000  0.000  0.024
   27  0.024  0.000  0.000  0.024
   28  0.007  0.001  0.000  0.008
   29  0.007  0.001  0.000  0.008
   30  0.007  0.001  0.000  0.008
   31  0.007  0.001  0.000  0.008
   32  0.007  0.001  0.000  0.008
   33  0.007  0.001  0.000  0.008
   34  0.007  0.001  0.000  0.008
   35  0.007  0.001  0.000  0.008
   36  0.016  0.001  0.000  0.018
   37  0.001  0.000  0.000  0.001
tot    0.568  0.016  0.001  0.584
 
band     2 # energy   -7.59505743 # occ.  2.00000000
 
ion      s      p      d    tot
    1  0.018  0.001  0.000  0.019
    2  0.017  0.001  0.000  0.019
    3  0.017  0.001  0.000  0.019
    4  0.017  0.001  0.000  0.019
    5  0.017  0.001  0.000  0.019
    6  0.017  0.001  0.000  0.019
    7  0.017  0.001  0.000  0.019
    8  0.017  0.001  0.000  0.019
    9  0.018  0.001  0.000  0.019
   10  0.011  0.002  0.001  0.014
   11  0.011  0.002  0.001  0.013
   12  0.011  0.002  0.001  0.014
   13  0.011  0.002  0.001  0.013
   14  0.011  0.002  0.001  0.013
   15  0.011  0.002  0.001  0.014
   16  0.011  0.002  0.001  0.014
   17  0.011  0.002  0.001  0.014
   18  0.011  0.002  0.001  0.014
   19  0.008  0.002  0.000  0.010
   20  0.009  0.003  0.000  0.012
   21  0.009  0.003  0.000  0.012
   22  0.008  0.002  0.000  0.011
   23  0.009  0.003  0.000  0.012
   24  0.008  0.002  0.000  0.011
   25  0.008  0.002  0.000  0.010
   26  0.008  0.002  0.000  0.010
   27  0.008  0.002  0.000  0.011
   28  0.017  0.001  0.001  0.018
   29  0.019  0.001  0.001  0.020
   30  0.019  0.001  0.001  0.020
   31  0.019  0.001  0.001  0.020
   32  0.019  0.001  0.001  0.020
   33  0.019  0.001  0.001  0.020
   34  0.019  0.001  0.001  0.020
   35  0.016  0.001  0.001  0.017
   36  0.040  0.001  0.001  0.041
   37  0.002  0.000  0.000  0.002
tot    0.518  0.053  0.019  0.590
 
band     3 # energy   -5.98429452 # occ.  2.00000000
 
ion      s      p      d    tot
    1  0.014  0.000  0.006  0.019
    2  0.016  0.000  0.005  0.022
    3  0.016  0.000  0.005  0.022
    4  0.016  0.000  0.005  0.022
    5  0.022  0.000  0.005  0.027
    6  0.016  0.000  0.005  0.022
    7  0.016  0.000  0.005  0.022
    8  0.016  0.000  0.005  0.022
    9  0.014  0.000  0.006  0.020
   10  0.004  0.004  0.001  0.010
   11  0.001  0.003  0.002  0.006
   12  0.004  0.004  0.001  0.010
   13  0.001  0.003  0.002  0.006
   14  0.001  0.003  0.002  0.006
   15  0.005  0.004  0.001  0.010
   16  0.004  0.004  0.001  0.010
   17  0.005  0.004  0.001  0.010
   18  0.005  0.004  0.001  0.010
   19  0.011  0.003  0.003  0.017
   20  0.002  0.004  0.006  0.011
   21  0.002  0.004  0.006  0.011
   22  0.007  0.003  0.003  0.013
   23  0.002  0.004  0.006  0.011
   24  0.007  0.003  0.003  0.013
   25  0.011  0.003  0.003  0.017
   26  0.011  0.003  0.003  0.017
   27  0.007  0.003  0.003  0.013
   28  0.008  0.000  0.007  0.015
   29  0.016  0.001  0.008  0.025
   30  0.016  0.001  0.008  0.025
   31  0.016  0.001  0.008  0.025
   32  0.016  0.001  0.008  0.025
   33  0.016  0.001  0.008  0.025
   34  0.016  0.001  0.008  0.025
   35  0.009  0.000  0.006  0.015
   36  0.053  0.000  0.007  0.060
   37  0.004  0.000  0.000  0.004
tot    0.405  0.067  0.167  0.639
 
band     4 # energy   -5.90073832 # occ.  2.00000000
 
ion      s      p      d    tot
    1  0.003  0.000  0.000  0.003
    2  0.001  0.001  0.003  0.005
    3  0.001  0.001  0.003  0.005
    4  0.001  0.001  0.003  0.005
    5  0.008  0.002  0.002  0.012
    6  0.001  0.001  0.003  0.005
    7  0.001  0.001  0.003  0.005
    8  0.001  0.001  0.003  0.005
    9  0.013  0.001  0.000  0.014
   10  0.000  0.003  0.007  0.010
   11  0.025  0.008  0.002  0.035
   12  0.000  0.003  0.007  0.010
   13  0.025  0.008  0.002  0.035
   14  0.025  0.008  0.002  0.035
   15  0.013  0.001  0.008  0.022
   16  0.000  0.003  0.007  0.010
   17  0.013  0.001  0.008  0.022
   18  0.013  0.001  0.008  0.022
   19  0.007  0.000  0.012  0.019
   20  0.036  0.009  0.005  0.050
   21  0.036  0.009  0.005  0.050
   22  0.007  0.007  0.004  0.017
   23  0.036  0.009  0.005  0.050
   24  0.007  0.007  0.004  0.017
   25  0.007  0.000  0.012  0.019
   26  0.007  0.000  0.012  0.019
   27  0.007  0.007  0.004  0.017
   28  0.010  0.001  0.000  0.011
   29  0.001  0.002  0.004  0.008
   30  0.001  0.002  0.004  0.008
   31  0.001  0.002  0.004  0.008
   32  0.001  0.002  0.004  0.008
   33  0.001  0.002  0.004  0.008
   34  0.001  0.002  0.004  0.008
   35  0.016  0.001  0.000  0.017
   36  0.034  0.003  0.018  0.055
   37  0.007  0.000  0.000  0.007
tot    0.366  0.111  0.178  0.655
 
band     5 # energy   -5.86852189 # occ.  2.00000000
 
ion      s      p      d    tot
    1  0.000  0.002  0.005  0.007
    2  0.009  0.002  0.002  0.013
    3  0.002  0.001  0.002  0.004
    4  0.009  0.002  0.002  0.013
    5  0.000  0.002  0.003  0.005
    6  0.003  0.001  0.002  0.006
    7  0.002  0.001  0.002  0.004
    8  0.003  0.001  0.002  0.006
    9  0.000  0.000  0.002  0.002
   10  0.057  0.005  0.004  0.065
   11  0.007  0.010  0.004  0.020
   12  0.014  0.002  0.012  0.028
   13  0.007  0.010  0.004  0.020
   14  0.026  0.000  0.006  0.033
   15  0.001  0.004  0.007  0.013
   16  0.014  0.002  0.012  0.028
   17  0.001  0.004  0.007  0.013
   18  0.006  0.002  0.003  0.011
   19  0.007  0.010  0.004  0.020
   20  0.068  0.004  0.006  0.078
   21  0.017  0.002  0.015  0.034
   22  0.001  0.005  0.008  0.014
   23  0.017  0.002  0.015  0.034
   24  0.006  0.003  0.003  0.012
   25  0.027  0.000  0.007  0.034
   26  0.007  0.010  0.004  0.020
   27  0.002  0.005  0.008  0.014
   28  0.000  0.003  0.004  0.006
   29  0.010  0.003  0.003  0.017
   30  0.004  0.001  0.003  0.008
   31  0.010  0.003  0.003  0.017
   32  0.001  0.001  0.003  0.006
   33  0.004  0.001  0.003  0.008
   34  0.001  0.001  0.003  0.006
   35  0.000  0.000  0.003  0.003
   36  0.000  0.005  0.016  0.021
   37  0.000  0.000  0.000  0.000
tot    0.343  0.113  0.191  0.647
 
band     6 # energy   -5.86838127 # occ.  2.00000000
 
ion      s      p      d    tot
    1  0.000  0.002  0.005  0.007
    2  0.000  0.001  0.002  0.003
    3  0.007  0.002  0.002  0.012
    4  0.000  0.001  0.002  0.003
    5  0.000  0.002  0.003  0.005
    6  0.006  0.002  0.002  0.010
    7  0.007  0.002  0.002  0.012
    8  0.006  0.002  0.002  0.010
    9  0.000  0.000  0.002  0.002
   10  0.000  0.002  0.015  0.016
   11  0.020  0.004  0.006  0.029
   12  0.043  0.004  0.006  0.053
   13  0.020  0.003  0.006  0.029
   14  0.000  0.013  0.003  0.016
   15  0.004  0.003  0.004  0.012
   16  0.043  0.004  0.006  0.053
   17  0.004  0.003  0.004  0.012
   18  0.000  0.005  0.008  0.014
   19  0.020  0.004  0.006  0.030
   20  0.000  0.002  0.018  0.020
   21  0.051  0.003  0.009  0.063
   22  0.004  0.003  0.005  0.013
   23  0.051  0.003  0.009  0.063
   24  0.000  0.005  0.009  0.015
   25  0.000  0.013  0.002  0.016
   26  0.021  0.003  0.006  0.030
   27  0.004  0.003  0.005  0.013
   28  0.000  0.003  0.004  0.006
   29  0.000  0.001  0.003  0.004
   30  0.006  0.002  0.004  0.012
   31  0.000  0.001  0.003  0.004
   32  0.009  0.002  0.003  0.015
   33  0.006  0.002  0.004  0.012
   34  0.009  0.002  0.003  0.015
   35  0.000  0.000  0.003  0.003
   36  0.000  0.005  0.016  0.021
   37  0.000  0.000  0.000  0.000
tot    0.343  0.113  0.191  0.647
 
band     7 # energy   -5.81380515 # occ.  2.00000000
 
ion      s      p      d    tot
    1  0.000  0.001  0.002  0.003
    2  0.010  0.002  0.002  0.014
    3  0.002  0.001  0.002  0.005
    4  0.010  0.002  0.002  0.014
    5  0.000  0.001  0.004  0.005
    6  0.003  0.001  0.002  0.007
    7  0.002  0.001  0.002  0.005
    8  0.003  0.001  0.002  0.007
    9  0.000  0.003  0.005  0.008
   10  0.000  0.011  0.003  0.014
   11  0.026  0.003  0.005  0.035
   12  0.002  0.003  0.005  0.010
   13  0.026  0.003  0.005  0.035
   14  0.000  0.000  0.015  0.016
   15  0.040  0.004  0.006  0.050
   16  0.002  0.003  0.005  0.010
   17  0.040  0.004  0.006  0.049
   18  0.000  0.008  0.009  0.017
   19  0.027  0.003  0.006  0.036
   20  0.000  0.013  0.002  0.015
   21  0.002  0.004  0.005  0.011
   22  0.042  0.004  0.006  0.052
   23  0.002  0.004  0.005  0.011
   24  0.000  0.008  0.009  0.017
   25  0.000  0.000  0.016  0.017
   26  0.027  0.003  0.006  0.036
   27  0.043  0.004  0.006  0.052
   28  0.000  0.001  0.005  0.006
   29  0.012  0.003  0.003  0.017
   30  0.003  0.002  0.003  0.008
   31  0.012  0.003  0.003  0.017
   32  0.003  0.001  0.003  0.007
   33  0.003  0.002  0.003  0.008
   34  0.003  0.001  0.003  0.007
   35  0.000  0.004  0.005  0.009
   36  0.000  0.001  0.008  0.009
   37  0.000  0.000  0.000  0.000
tot    0.342  0.116  0.179  0.637
 
band     8 # energy   -5.81367934 # occ.  2.00000000
 
ion      s      p      d    tot
    1  0.000  0.001  0.002  0.003
    2  0.000  0.001  0.002  0.003
    3  0.008  0.002  0.002  0.012
    4  0.000  0.001  0.002  0.003
    5  0.000  0.001  0.004  0.005
    6  0.007  0.002  0.002  0.011
    7  0.008  0.002  0.002  0.012
    8  0.007  0.002  0.002  0.011
    9  0.000  0.003  0.005  0.008
   10  0.002  0.001  0.005  0.008
   11  0.009  0.001  0.012  0.022
   12  0.001  0.009  0.003  0.013
   13  0.009  0.001  0.012  0.022
   14  0.035  0.004  0.002  0.041
   15  0.013  0.006  0.008  0.027
   16  0.001  0.009  0.003  0.013
   17  0.013  0.006  0.008  0.028
   18  0.053  0.002  0.005  0.061
   19  0.009  0.001  0.013  0.023
   20  0.002  0.001  0.006  0.009
   21  0.001  0.010  0.003  0.013
   22  0.014  0.007  0.008  0.029
   23  0.001  0.010  0.003  0.013
   24  0.056  0.002  0.005  0.064
   25  0.036  0.005  0.002  0.042
   26  0.009  0.001  0.013  0.023
   27  0.014  0.007  0.008  0.028
   28  0.000  0.001  0.005  0.006
   29  0.000  0.001  0.003  0.004
   30  0.009  0.002  0.003  0.013
   31  0.000  0.001  0.003  0.004
   32  0.009  0.003  0.003  0.015
   33  0.009  0.002  0.003  0.013
   34  0.009  0.003  0.003  0.015
   35  0.000  0.004  0.005  0.009
   36  0.000  0.001  0.008  0.009
   37  0.000  0.000  0.000  0.000
tot    0.342  0.116  0.179  0.637
 
band     9 # energy   -5.80448625 # occ.  2.00000000
 
ion      s      p      d    tot
    1  0.023  0.003  0.001  0.027
    2  0.000  0.002  0.004  0.006
    3  0.000  0.002  0.004  0.006
    4  0.000  0.002  0.004  0.006
    5  0.001  0.000  0.001  0.002
    6  0.000  0.002  0.004  0.006
    7  0.000  0.002  0.004  0.006
    8  0.000  0.002  0.004  0.006
    9  0.009  0.002  0.000  0.011
   10  0.029  0.006  0.006  0.041
   11  0.005  0.000  0.012  0.017
   12  0.029  0.006  0.006  0.041
   13  0.005  0.000  0.012  0.017
   14  0.005  0.000  0.012  0.017
   15  0.013  0.008  0.003  0.024
   16  0.029  0.006  0.006  0.041
   17  0.013  0.008  0.003  0.024
   18  0.013  0.008  0.003  0.024
   19  0.021  0.009  0.002  0.032
   20  0.000  0.002  0.011  0.013
   21  0.000  0.002  0.011  0.013
   22  0.025  0.002  0.009  0.036
   23  0.000  0.002  0.011  0.013
   24  0.025  0.002  0.009  0.036
   25  0.021  0.009  0.002  0.032
   26  0.021  0.009  0.002  0.032
   27  0.025  0.002  0.009  0.036
   28  0.019  0.003  0.000  0.022
   29  0.000  0.002  0.004  0.006
   30  0.000  0.002  0.004  0.006
   31  0.000  0.002  0.004  0.006
   32  0.000  0.002  0.004  0.006
   33  0.000  0.002  0.004  0.006
   34  0.000  0.002  0.004  0.006
   35  0.012  0.002  0.001  0.015
   36  0.000  0.000  0.000  0.000
   37  0.000  0.000  0.000  0.000
tot    0.344  0.114  0.181  0.638
 
band    10 # energy   -5.18212612 # occ.  2.00000000
 
ion      s      p      d    tot
    1  0.008  0.001  0.000  0.009
    2  0.000  0.003  0.009  0.013
    3  0.000  0.003  0.009  0.013
    4  0.000  0.003  0.009  0.013
    5  0.044  0.005  0.000  0.049
    6  0.000  0.003  0.009  0.013
    7  0.000  0.003  0.009  0.013
    8  0.000  0.003  0.009  0.013
    9  0.010  0.002  0.001  0.013
   10  0.002  0.002  0.014  0.017
   11  0.014  0.005  0.007  0.027
   12  0.002  0.002  0.014  0.017
   13  0.014  0.005  0.007  0.027
   14  0.014  0.005  0.007  0.027
   15  0.010  0.001  0.012  0.023
   16  0.002  0.002  0.014  0.017
   17  0.010  0.001  0.012  0.023
   18  0.010  0.001  0.012  0.023
   19  0.004  0.002  0.004  0.009
   20  0.004  0.005  0.028  0.037
   21  0.004  0.005  0.028  0.037
   22  0.000  0.001  0.014  0.015
   23  0.004  0.005  0.028  0.037
   24  0.000  0.001  0.014  0.015
   25  0.004  0.002  0.004  0.009
   26  0.004  0.002  0.004  0.009
   27  0.000  0.001  0.014  0.015
   28  0.014  0.001  0.000  0.015
   29  0.000  0.003  0.007  0.010
   30  0.000  0.003  0.007  0.010
   31  0.000  0.003  0.007  0.010
   32  0.000  0.003  0.007  0.010
   33  0.000  0.003  0.007  0.010
   34  0.000  0.003  0.007  0.010
   35  0.009  0.001  0.000  0.010
   36  0.069  0.001  0.017  0.087
   37  0.017  0.000  0.000  0.017
tot    0.273  0.092  0.356  0.720
 
band    11 # energy   -5.11928051 # occ.  2.00000000
 
ion      s      p      d    tot
    1  0.000  0.003  0.009  0.012
    2  0.017  0.003  0.005  0.025
    3  0.001  0.001  0.004  0.007
    4  0.017  0.003  0.005  0.025
    5  0.000  0.000  0.009  0.010
    6  0.009  0.003  0.005  0.017
    7  0.001  0.001  0.004  0.007
    8  0.009  0.003  0.005  0.017
    9  0.000  0.005  0.008  0.013
   10  0.000  0.005  0.015  0.019
   11  0.005  0.002  0.009  0.016
   12  0.005  0.001  0.008  0.015
   13  0.005  0.002  0.009  0.016
   14  0.000  0.002  0.015  0.016
   15  0.019  0.003  0.008  0.030
   16  0.005  0.001  0.008  0.015
   17  0.019  0.003  0.008  0.031
   18  0.000  0.001  0.020  0.021
   19  0.007  0.004  0.009  0.021
   20  0.000  0.003  0.023  0.026
   21  0.000  0.001  0.014  0.015
   22  0.009  0.003  0.009  0.021
   23  0.000  0.001  0.014  0.015
   24  0.000  0.001  0.027  0.028
   25  0.000  0.000  0.012  0.012
   26  0.007  0.004  0.009  0.021
   27  0.009  0.003  0.009  0.021
   28  0.000  0.003  0.008  0.012
   29  0.023  0.003  0.009  0.035
   30  0.001  0.002  0.010  0.014
   31  0.023  0.003  0.009  0.035
   32  0.015  0.002  0.009  0.026
   33  0.001  0.002  0.010  0.014
   34  0.015  0.002  0.009  0.026
   35  0.000  0.006  0.008  0.014
   36  0.000  0.001  0.038  0.038
   37  0.000  0.000  0.000  0.000
tot    0.225  0.090  0.390  0.705
 
band    12 # energy   -5.11921644 # occ.  2.00000000
 
ion      s      p      d    tot
    1  0.000  0.003  0.009  0.012
    2  0.001  0.002  0.005  0.007
    3  0.018  0.003  0.005  0.026
    4  0.001  0.002  0.005  0.007
    5  0.000  0.000  0.009  0.010
    6  0.009  0.002  0.004  0.016
    7  0.018  0.003  0.005  0.026
    8  0.009  0.002  0.004  0.016
    9  0.000  0.005  0.008  0.013
   10  0.006  0.000  0.006  0.013
   11  0.002  0.002  0.013  0.016
   12  0.001  0.004  0.013  0.018
   13  0.002  0.002  0.013  0.016
   14  0.007  0.002  0.007  0.016
   15  0.006  0.002  0.016  0.024
   16  0.001  0.004  0.013  0.018
   17  0.006  0.002  0.016  0.024
   18  0.025  0.004  0.004  0.034
   19  0.003  0.001  0.011  0.015
   20  0.000  0.000  0.011  0.012
   21  0.000  0.002  0.020  0.022
   22  0.003  0.002  0.021  0.026
   23  0.000  0.002  0.020  0.022
   24  0.012  0.004  0.003  0.019
   25  0.010  0.005  0.008  0.024
   26  0.003  0.001  0.011  0.015
   27  0.003  0.002  0.021  0.026
   28  0.000  0.003  0.008  0.012
   29  0.003  0.002  0.010  0.015
   30  0.026  0.003  0.009  0.037
   31  0.003  0.002  0.010  0.015
   32  0.011  0.003  0.010  0.024
   33  0.026  0.003  0.009  0.037
   34  0.011  0.003  0.010  0.024
   35  0.000  0.006  0.008  0.014
   36  0.000  0.001  0.038  0.038
   37  0.000  0.000  0.000  0.000
tot    0.225  0.090  0.390  0.705
 
band    13 # energy   -5.11137127 # occ.  2.00000000
 
ion      s      p      d    tot
    1  0.002  0.001  0.011  0.014
    2  0.006  0.001  0.010  0.016
    3  0.006  0.001  0.010  0.016
    4  0.006  0.001  0.010  0.016
    5  0.004  0.001  0.009  0.014
    6  0.006  0.001  0.010  0.016
    7  0.006  0.001  0.010  0.016
    8  0.006  0.001  0.010  0.016
    9  0.013  0.000  0.009  0.021
   10  0.010  0.000  0.025  0.035
   11  0.007  0.000  0.023  0.030
   12  0.010  0.000  0.025  0.035
   13  0.007  0.000  0.023  0.030
   14  0.007  0.000  0.023  0.030
   15  0.004  0.000  0.022  0.027
   16  0.010  0.000  0.025  0.035
   17  0.004  0.000  0.022  0.027
   18  0.004  0.000  0.022  0.027
   19  0.007  0.000  0.019  0.026
   20  0.007  0.000  0.031  0.038
   21  0.007  0.000  0.031  0.038
   22  0.003  0.000  0.017  0.020
   23  0.007  0.000  0.031  0.038
   24  0.003  0.000  0.017  0.020
   25  0.007  0.000  0.019  0.026
   26  0.007  0.000  0.019  0.026
   27  0.003  0.000  0.017  0.020
   28  0.001  0.001  0.006  0.008
   29  0.004  0.000  0.008  0.012
   30  0.003  0.000  0.008  0.012
   31  0.004  0.000  0.008  0.012
   32  0.004  0.000  0.008  0.012
   33  0.003  0.000  0.008  0.012
   34  0.004  0.000  0.008  0.012
   35  0.005  0.000  0.005  0.010
   36  0.004  0.001  0.019  0.024
   37  0.000  0.000  0.000  0.000
tot    0.200  0.012  0.572  0.784
 
band    14 # energy   -5.06434700 # occ.  2.00000000
 
ion      s      p      d    tot
    1  0.000  0.004  0.009  0.013
    2  0.022  0.004  0.006  0.031
    3  0.002  0.002  0.005  0.009
    4  0.021  0.004  0.006  0.031
    5  0.000  0.006  0.010  0.016
    6  0.010  0.003  0.006  0.018
    7  0.002  0.002  0.005  0.010
    8  0.010  0.003  0.006  0.018
    9  0.000  0.000  0.013  0.013
   10  0.020  0.005  0.008  0.033
   11  0.004  0.003  0.022  0.029
   12  0.005  0.001  0.018  0.024
   13  0.004  0.003  0.022  0.029
   14  0.017  0.003  0.005  0.025
   15  0.000  0.003  0.015  0.017
   16  0.005  0.001  0.018  0.024
   17  0.000  0.003  0.015  0.017
   18  0.000  0.000  0.009  0.009
   19  0.001  0.002  0.018  0.022
   20  0.021  0.006  0.004  0.031
   21  0.005  0.002  0.025  0.032
   22  0.001  0.001  0.011  0.014
   23  0.005  0.002  0.025  0.032
   24  0.005  0.002  0.010  0.017
   25  0.004  0.001  0.006  0.010
   26  0.001  0.002  0.018  0.022
   27  0.001  0.002  0.011  0.014
   28  0.000  0.003  0.010  0.013
   29  0.016  0.004  0.006  0.026
   30  0.001  0.001  0.005  0.007
   31  0.016  0.003  0.006  0.026
   32  0.009  0.002  0.007  0.018
   33  0.001  0.001  0.005  0.007
   34  0.009  0.002  0.007  0.018
   35  0.000  0.000  0.009  0.010
   36  0.000  0.008  0.014  0.023
   37  0.000  0.000  0.000  0.000
tot    0.220  0.095  0.395  0.710
 
band    15 # energy   -5.06425599 # occ.  2.00000000
 
ion      s      p      d    tot
    1  0.000  0.004  0.009  0.013
    2  0.001  0.002  0.005  0.008
    3  0.020  0.004  0.006  0.030
    4  0.001  0.002  0.005  0.008
    5  0.000  0.006  0.010  0.016
    6  0.013  0.003  0.005  0.021
    7  0.020  0.004  0.006  0.030
    8  0.012  0.003  0.005  0.021
    9  0.000  0.000  0.013  0.013
   10  0.000  0.000  0.021  0.021
   11  0.013  0.003  0.011  0.026
   12  0.015  0.004  0.011  0.030
   13  0.013  0.003  0.011  0.026
   14  0.000  0.003  0.028  0.030
   15  0.000  0.001  0.011  0.012
   16  0.015  0.004  0.012  0.030
   17  0.000  0.001  0.011  0.012
   18  0.000  0.004  0.016  0.020
   19  0.003  0.001  0.010  0.014
   20  0.000  0.000  0.032  0.032
   21  0.016  0.005  0.011  0.031
   22  0.004  0.002  0.010  0.016
   23  0.015  0.004  0.011  0.031
   24  0.000  0.001  0.012  0.013
   25  0.000  0.003  0.023  0.025
   26  0.003  0.001  0.010  0.014
   27  0.004  0.002  0.010  0.016
   28  0.000  0.003  0.010  0.013
   29  0.001  0.001  0.005  0.008
   30  0.017  0.004  0.007  0.027
   31  0.001  0.001  0.005  0.008
   32  0.009  0.002  0.005  0.016
   33  0.017  0.003  0.007  0.027
   34  0.008  0.002  0.005  0.016
   35  0.000  0.000  0.009  0.010
   36  0.000  0.008  0.014  0.023
   37  0.000  0.000  0.000  0.000
tot    0.220  0.095  0.395  0.710
 
band    16 # energy   -5.05070580 # occ.  2.00000000
 
ion      s      p      d    tot
    1  0.033  0.003  0.000  0.036
    2  0.000  0.003  0.010  0.013
    3  0.000  0.003  0.010  0.013
    4  0.000  0.003  0.010  0.013
    5  0.001  0.000  0.001  0.001
    6  0.000  0.003  0.010  0.013
    7  0.000  0.003  0.010  0.013
    8  0.000  0.003  0.010  0.013
    9  0.029  0.004  0.001  0.034
   10  0.007  0.003  0.011  0.020
   11  0.001  0.000  0.016  0.017
   12  0.007  0.003  0.011  0.020
   13  0.001  0.000  0.016  0.017
   14  0.001  0.000  0.016  0.017
   15  0.008  0.004  0.017  0.029
   16  0.007  0.003  0.011  0.020
   17  0.008  0.004  0.017  0.029
   18  0.008  0.004  0.017  0.029
   19  0.004  0.003  0.018  0.025
   20  0.000  0.000  0.015  0.015
   21  0.000  0.000  0.015  0.015
   22  0.013  0.004  0.010  0.027
   23  0.000  0.000  0.015  0.015
   24  0.013  0.004  0.010  0.027
   25  0.004  0.003  0.018  0.025
   26  0.004  0.003  0.018  0.025
   27  0.013  0.004  0.010  0.027
   28  0.036  0.003  0.000  0.038
   29  0.000  0.003  0.011  0.014
   30  0.000  0.003  0.011  0.014
   31  0.000  0.003  0.011  0.014
   32  0.000  0.003  0.011  0.014
   33  0.000  0.003  0.011  0.014
   34  0.000  0.003  0.011  0.014
   35  0.028  0.004  0.002  0.033
   36  0.000  0.000  0.000  0.000
   37  0.000  0.000  0.000  0.000
tot    0.227  0.089  0.390  0.706
 
band    17 # energy   -4.49988051 # occ.  2.00000000
 
ion      s      p      d    tot
    1  0.000  0.001  0.027  0.027
    2  0.015  0.002  0.007  0.024
    3  0.007  0.001  0.007  0.015
    4  0.015  0.002  0.007  0.024
    5  0.000  0.001  0.012  0.013
    6  0.001  0.001  0.007  0.010
    7  0.007  0.001  0.007  0.015
    8  0.001  0.001  0.007  0.010
    9  0.000  0.003  0.005  0.008
   10  0.000  0.000  0.058  0.058
   11  0.000  0.003  0.015  0.019
   12  0.000  0.000  0.019  0.019
   13  0.000  0.003  0.015  0.019
   14  0.000  0.000  0.004  0.004
   15  0.000  0.005  0.015  0.019
   16  0.000  0.000  0.019  0.019
   17  0.000  0.005  0.015  0.020
   18  0.000  0.000  0.029  0.029
   19  0.005  0.003  0.011  0.018
   20  0.000  0.000  0.067  0.067
   21  0.000  0.000  0.029  0.029
   22  0.003  0.002  0.015  0.020
   23  0.000  0.000  0.028  0.029
   24  0.000  0.000  0.012  0.013
   25  0.000  0.000  0.018  0.019
   26  0.005  0.003  0.011  0.018
   27  0.003  0.002  0.015  0.020
   28  0.000  0.001  0.005  0.006
   29  0.008  0.000  0.020  0.029
   30  0.000  0.001  0.017  0.018
   31  0.008  0.000  0.020  0.029
   32  0.010  0.000  0.019  0.029
   33  0.000  0.001  0.017  0.018
   34  0.010  0.000  0.019  0.029
   35  0.000  0.001  0.007  0.008
   36  0.000  0.000  0.060  0.060
   37  0.000  0.000  0.000  0.000
tot    0.097  0.043  0.669  0.810
 
band    18 # energy   -4.49980734 # occ.  2.00000000
 
ion      s      p      d    tot
    1  0.000  0.001  0.027  0.027
    2  0.001  0.001  0.007  0.009
    3  0.008  0.001  0.007  0.017
    4  0.001  0.001  0.007  0.009
    5  0.000  0.001  0.012  0.013
    6  0.014  0.001  0.007  0.023
    7  0.008  0.001  0.007  0.017
    8  0.014  0.001  0.007  0.023
    9  0.000  0.003  0.005  0.008
   10  0.000  0.000  0.006  0.006
   11  0.000  0.001  0.007  0.009
   12  0.000  0.000  0.045  0.045
   13  0.000  0.001  0.008  0.009
   14  0.000  0.005  0.019  0.024
   15  0.000  0.002  0.025  0.026
   16  0.000  0.000  0.045  0.045
   17  0.000  0.002  0.024  0.026
   18  0.000  0.006  0.010  0.016
   19  0.002  0.001  0.016  0.019
   20  0.000  0.000  0.016  0.016
   21  0.000  0.000  0.054  0.054
   22  0.001  0.001  0.013  0.015
   23  0.000  0.000  0.055  0.055
   24  0.004  0.002  0.016  0.022
   25  0.006  0.003  0.009  0.018
   26  0.002  0.001  0.016  0.019
   27  0.001  0.001  0.013  0.015
   28  0.000  0.001  0.005  0.006
   29  0.004  0.001  0.017  0.022
   30  0.012  0.000  0.020  0.032
   31  0.004  0.001  0.017  0.022
   32  0.002  0.001  0.019  0.022
   33  0.012  0.000  0.020  0.032
   34  0.002  0.001  0.019  0.022
   35  0.000  0.001  0.007  0.008
   36  0.000  0.000  0.060  0.060
   37  0.000  0.000  0.000  0.000
tot    0.097  0.043  0.669  0.810
 
band    19 # energy   -4.44963008 # occ.  2.00000000
 
ion      s      p      d    tot
    1  0.031  0.001  0.000  0.033
    2  0.000  0.002  0.017  0.018
    3  0.000  0.002  0.017  0.018
    4  0.000  0.002  0.017  0.018
    5  0.020  0.001  0.000  0.021
    6  0.000  0.002  0.017  0.018
    7  0.000  0.002  0.017  0.018
    8  0.000  0.002  0.017  0.018
    9  0.001  0.000  0.000  0.001
   10  0.000  0.003  0.042  0.045
   11  0.000  0.004  0.027  0.032
   12  0.000  0.003  0.042  0.045
   13  0.000  0.004  0.027  0.032
   14  0.000  0.004  0.027  0.032
   15  0.000  0.000  0.004  0.004
   16  0.000  0.003  0.042  0.045
   17  0.000  0.000  0.004  0.004
   18  0.000  0.000  0.004  0.004
   19  0.002  0.002  0.023  0.028
   20  0.002  0.002  0.045  0.049
   21  0.002  0.002  0.045  0.049
   22  0.000  0.000  0.006  0.006
   23  0.002  0.002  0.045  0.049
   24  0.000  0.000  0.006  0.006
   25  0.002  0.002  0.023  0.028
   26  0.002  0.002  0.023  0.028
   27  0.000  0.000  0.006  0.006
   28  0.008  0.000  0.004  0.012
   29  0.000  0.001  0.011  0.012
   30  0.000  0.001  0.011  0.012
   31  0.000  0.001  0.011  0.012
   32  0.000  0.001  0.011  0.012
   33  0.000  0.001  0.011  0.012
   34  0.000  0.001  0.011  0.012
   35  0.001  0.000  0.000  0.001
   36  0.030  0.001  0.013  0.043
   37  0.016  0.000  0.000  0.017
tot    0.122  0.052  0.626  0.799
 
band    20 # energy   -4.37154137 # occ.  2.00000000
 
ion      s      p      d    tot
    1  0.000  0.000  0.000  0.001
    2  0.000  0.001  0.014  0.016
    3  0.000  0.001  0.014  0.016
    4  0.000  0.001  0.014  0.016
    5  0.015  0.000  0.001  0.016
    6  0.000  0.001  0.014  0.016
    7  0.000  0.001  0.014  0.016
    8  0.000  0.001  0.014  0.016
    9  0.020  0.001  0.001  0.022
   10  0.000  0.001  0.005  0.006
   11  0.000  0.001  0.021  0.022
   12  0.000  0.001  0.005  0.006
   13  0.000  0.001  0.021  0.022
   14  0.000  0.001  0.021  0.022
   15  0.000  0.003  0.029  0.033
   16  0.000  0.001  0.005  0.006
   17  0.000  0.003  0.029  0.033
   18  0.000  0.003  0.029  0.033
   19  0.000  0.001  0.021  0.021
   20  0.000  0.001  0.019  0.020
   21  0.000  0.001  0.019  0.020
   22  0.001  0.004  0.039  0.044
   23  0.000  0.001  0.019  0.020
   24  0.001  0.004  0.039  0.044
   25  0.000  0.001  0.021  0.021
   26  0.000  0.001  0.021  0.021
   27  0.001  0.004  0.039  0.044
   28  0.013  0.001  0.000  0.014
   29  0.000  0.002  0.026  0.028
   30  0.000  0.002  0.026  0.027
   31  0.000  0.002  0.026  0.028
   32  0.000  0.002  0.026  0.027
   33  0.000  0.002  0.026  0.027
   34  0.000  0.002  0.026  0.027
   35  0.038  0.001  0.005  0.043
   36  0.001  0.000  0.011  0.013
   37  0.001  0.000  0.000  0.001
tot    0.094  0.050  0.660  0.805
 
band    21 # energy   -4.35744201 # occ.  2.00000000
 
ion      s      p      d    tot
    1  0.000  0.002  0.001  0.003
    2  0.014  0.001  0.010  0.025
    3  0.008  0.001  0.009  0.018
    4  0.014  0.001  0.010  0.025
    5  0.000  0.002  0.022  0.024
    6  0.001  0.001  0.009  0.011
    7  0.008  0.001  0.009  0.018
    8  0.001  0.001  0.009  0.011
    9  0.000  0.000  0.031  0.031
   10  0.001  0.007  0.021  0.029
   11  0.000  0.001  0.040  0.041
   12  0.000  0.002  0.011  0.013
   13  0.000  0.001  0.040  0.041
   14  0.001  0.002  0.004  0.007
   15  0.000  0.000  0.029  0.030
   16  0.000  0.002  0.011  0.013
   17  0.000  0.000  0.029  0.030
   18  0.000  0.001  0.012  0.013
   19  0.000  0.000  0.046  0.047
   20  0.001  0.007  0.023  0.032
   21  0.000  0.002  0.016  0.018
   22  0.000  0.001  0.023  0.024
   23  0.000  0.002  0.016  0.018
   24  0.000  0.002  0.014  0.017
   25  0.001  0.001  0.003  0.005
   26  0.000  0.000  0.047  0.047
   27  0.000  0.001  0.023  0.024
   28  0.000  0.002  0.031  0.033
   29  0.013  0.001  0.012  0.026
   30  0.000  0.001  0.010  0.011
   31  0.013  0.001  0.012  0.026
   32  0.010  0.001  0.011  0.023
   33  0.000  0.001  0.010  0.011
   34  0.011  0.001  0.011  0.023
   35  0.000  0.000  0.029  0.030
   36  0.000  0.004  0.000  0.004