 vasp.6.2.0 18Jan21 (build Jun 12 2021 23:27:24) complex                        
  
 executed on             LinuxIFC date 2022.05.26  19:39:36
 running on   28 total cores
 distrk:  each k-point on   28 cores,    1 groups
 distr:  one band on NCORE=   1 cores,   28 groups


--------------------------------------------------------------------------------------------------------


 INCAR:
   ISMEAR = -5
   SIGMA = 0.1
   ISPIN = 1
   EDIFF = 1.d-5
   EDIFFG = -0.01
   NSW = 0
   NELM = 150
   ENCUT = 500
   ISIF = 2
   IBRION = 2
   LREAL = Auto
   ALGO = Fast
   ICHARG = 11
   LORBIT = 10
   LCHARG = .F.
   LWAVE = .F.

 POTCAR:    PAW_PBE Ag 02Apr2005                  
 POTCAR:    PAW_PBE Cr 06Sep2000                  
 POTCAR:    PAW_PBE O 08Apr2002                   
 -----------------------------------------------------------------------------
|                                                                             |
|           W    W    AA    RRRRR   N    N  II  N    N   GGGG   !!!           |
|           W    W   A  A   R    R  NN   N  II  NN   N  G    G  !!!           |
|           W    W  A    A  R    R  N N  N  II  N N  N  G       !!!           |
|           W WW W  AAAAAA  RRRRR   N  N N  II  N  N N  G  GGG   !            |
|           WW  WW  A    A  R   R   N   NN  II  N   NN  G    G                |
|           W    W  A    A  R    R  N    N  II  N    N   GGGG   !!!           |
|                                                                             |
|     For optimal performance we recommend to set                             |
|       NCORE = 2 up to number-of-cores-per-socket                            |
|     NCORE specifies how many cores store one orbital (NPAR=cpu/NCORE).      |
|     This setting can greatly improve the performance of VASP for DFT.       |
|     The default, NCORE=1 might be grossly inefficient on modern             |
|     multi-core architectures or massively parallel machines. Do your        |
|     own testing! More info at https://www.vasp.at/wiki/index.php/NCORE      |
|     Unfortunately you need to use the default for GW and RPA                |
|     calculations (for HF NCORE is supported but not extensively tested      |
|     yet).                                                                   |
|                                                                             |
 -----------------------------------------------------------------------------

 POTCAR:    PAW_PBE Ag 02Apr2005                  
   VRHFIN =Ag : s1 d10                                                                              
   LEXCH  = PE                                                                                      
   EATOM  =  1037.2675 eV,   76.2370 Ry                                                             
                                                                                                    
   TITEL  = PAW_PBE Ag 02Apr2005                                                                    
   LULTRA =        F    use ultrasoft PP ?                                                          
   IUNSCR =        1    unscreen: 0-lin 1-nonlin 2-no                                               
   RPACOR =    2.000    partial core radius                                                         
   POMASS =  107.868; ZVAL   =   11.000    mass and valenz                                          
   RCORE  =    2.500    outmost cutoff radius                                                       
   RWIGS  =    2.840; RWIGS  =    1.503    wigner-seitz radius (au A)                               
   ENMAX  =  249.844; ENMIN  =  187.383 eV                                                          
   ICORE  =        3    local potential                                                             
   LCOR   =        T    correct aug charges                                                         
   LPAW   =        T    paw PP                                                                      
   EAUG   =  412.496                                                                                
   DEXC   =    0.000                                                                                
   RMAX   =    2.560    core radius for proj-oper                                                   
   RAUG   =    1.300    factor for augmentation sphere                                              
   RDEP   =    2.576    radius for radial grids                                                     
   RDEPT  =    2.072    core radius for aug-charge                                                  
                                                                                                    
   Atomic configuration                                                                             
   12 entries                                                                                       
     n  l   j            E        occ.                                                              
     1  0  0.50    -25324.9161   2.0000                                                             
     2  0  0.50     -3728.5341   2.0000                                                             
     2  1  1.50     -3344.0404   6.0000                                                             
     3  0  0.50      -683.5581   2.0000                                                             
     3  1  1.50      -557.3225   6.0000                                                             
     3  2  2.50      -358.3853  10.0000                                                             
     4  0  0.50       -95.0341   2.0000                                                             
     4  1  1.50       -58.5511   6.0000                                                             
     4  2  2.50        -7.4440  10.0000                                                             
     5  0  0.50        -4.4045   1.0000                                                             
     5  1  0.50        -1.3606   0.0000                                                             
     4  3  2.50        -1.3606   0.0000                                                             
   Description                                                                                      
     l       E           TYP  RCUT    TYP  RCUT                                                     
     2     -7.4439781     23  2.400                                                                 
     2     -8.8045607     23  2.400                                                                 
     0     -4.4044681     23  2.400                                                                 
     0      1.9520038     23  2.400                                                                 
     1     -1.3605826     23  2.500                                                                 
     1     27.2116520     23  2.500                                                                 
     3     -4.0817478     23  2.400                                                                 
  local pseudopotential read in
  partial core-charges read in
  partial kinetic energy density read in
  atomic valenz-charges read in
  non local Contribution for L=           2  read in
    real space projection operators read in
  non local Contribution for L=           2  read in
    real space projection operators read in
  non local Contribution for L=           0  read in
    real space projection operators read in
  non local Contribution for L=           0  read in
    real space projection operators read in
  non local Contribution for L=           1  read in
    real space projection operators read in
  non local Contribution for L=           1  read in
    real space projection operators read in
    PAW grid and wavefunctions read in
 
   number of l-projection  operators is LMAX  =           6
   number of lm-projection operators is LMMAX =          18
 
 POTCAR:    PAW_PBE Cr 06Sep2000                  
   VRHFIN =Cr : d5 s1                                                                               
   LEXCH  = PE                                                                                      
   EATOM  =   276.8859 eV,   20.3505 Ry                                                             
                                                                                                    
   TITEL  = PAW_PBE Cr 06Sep2000                                                                    
   LULTRA =        F    use ultrasoft PP ?                                                          
   IUNSCR =        1    unscreen: 0-lin 1-nonlin 2-no                                               
   RPACOR =    2.080    partial core radius                                                         
   POMASS =   51.996; ZVAL   =    6.000    mass and valenz                                          
   RCORE  =    2.500    outmost cutoff radius                                                       
   RWIGS  =    2.500; RWIGS  =    1.323    wigner-seitz radius (au A)                               
   ENMAX  =  227.080; ENMIN  =  170.310 eV                                                          
   RCLOC  =    1.721    cutoff for local pot                                                        
   LCOR   =        T    correct aug charges                                                         
   LPAW   =        T    paw PP                                                                      
   EAUG   =  402.108                                                                                
   DEXC   =    0.000                                                                                
   RMAX   =    2.552    core radius for proj-oper                                                   
   RAUG   =    1.300    factor for augmentation sphere                                              
   RDEP   =    2.609    radius for radial grids                                                     
   RDEPT  =    2.065    core radius for aug-charge                                                  
                                                                                                    
   Atomic configuration                                                                             
    9 entries                                                                                       
     n  l   j            E        occ.                                                              
     1  0  0.50     -5880.4963   2.0000                                                             
     2  0  0.50      -667.0865   2.0000                                                             
     2  1  1.50      -560.6250   6.0000                                                             
     3  0  0.50       -73.9860   2.0000                                                             
     3  1  1.50       -45.4378   6.0000                                                             
     3  2  2.50        -2.9137   5.0000                                                             
     4  0  0.50        -4.0071   1.0000                                                             
     4  1  0.50        -1.2789   0.0000                                                             
     4  3  2.50        -1.3606   0.0000                                                             
   Description                                                                                      
     l       E           TYP  RCUT    TYP  RCUT                                                     
     2     -2.9136677     23  2.500                                                                 
     2     -4.2742503     23  2.500                                                                 
     0     -4.0071322     23  2.500                                                                 
     0      9.4498801     23  2.500                                                                 
     1     -5.4423304     23  2.500                                                                 
     1     27.2116520     23  2.500                                                                 
  local pseudopotential read in
  partial core-charges read in
  partial kinetic energy density read in
  atomic valenz-charges read in
  non local Contribution for L=           2  read in
    real space projection operators read in
  non local Contribution for L=           2  read in
    real space projection operators read in
  non local Contribution for L=           0  read in
    real space projection operators read in
  non local Contribution for L=           0  read in
    real space projection operators read in
  non local Contribution for L=           1  read in
    real space projection operators read in
  non local Contribution for L=           1  read in
    real space projection operators read in
    PAW grid and wavefunctions read in
 
   number of l-projection  operators is LMAX  =           6
   number of lm-projection operators is LMMAX =          18
 
 POTCAR:    PAW_PBE O 08Apr2002                   
   VRHFIN =O: s2p4                                                                                  
   LEXCH  = PE                                                                                      
   EATOM  =   432.3788 eV,   31.7789 Ry                                                             
                                                                                                    
   TITEL  = PAW_PBE O 08Apr2002                                                                     
   LULTRA =        F    use ultrasoft PP ?                                                          
   IUNSCR =        1    unscreen: 0-lin 1-nonlin 2-no                                               
   RPACOR =    1.200    partial core radius                                                         
   POMASS =   16.000; ZVAL   =    6.000    mass and valenz                                          
   RCORE  =    1.520    outmost cutoff radius                                                       
   RWIGS  =    1.550; RWIGS  =    0.820    wigner-seitz radius (au A)                               
   ENMAX  =  400.000; ENMIN  =  300.000 eV                                                          
   ICORE  =        2    local potential                                                             
   LCOR   =        T    correct aug charges                                                         
   LPAW   =        T    paw PP                                                                      
   EAUG   =  605.392                                                                                
   DEXC   =    0.000                                                                                
   RMAX   =    1.553    core radius for proj-oper                                                   
   RAUG   =    1.300    factor for augmentation sphere                                              
   RDEP   =    1.550    radius for radial grids                                                     
   RDEPT  =    1.329    core radius for aug-charge                                                  
                                                                                                    
   Atomic configuration                                                                             
    4 entries                                                                                       
     n  l   j            E        occ.                                                              
     1  0  0.50      -514.6923   2.0000                                                             
     2  0  0.50       -23.9615   2.0000                                                             
     2  1  0.50        -9.0305   4.0000                                                             
     3  2  1.50        -9.5241   0.0000                                                             
   Description                                                                                      
     l       E           TYP  RCUT    TYP  RCUT                                                     
     0    -23.9615318     23  1.200                                                                 
     0     -9.5240782     23  1.200                                                                 
     1     -9.0304911     23  1.520                                                                 
     1      8.1634956     23  1.520                                                                 
     2     -9.5240782      7  1.500                                                                 
  local pseudopotential read in
  partial core-charges read in
  partial kinetic energy density read in
  kinetic energy density of atom read in
  atomic valenz-charges read in
  non local Contribution for L=           0  read in
    real space projection operators read in
  non local Contribution for L=           0  read in
    real space projection operators read in
  non local Contribution for L=           1  read in
    real space projection operators read in
  non local Contribution for L=           1  read in
    real space projection operators read in
    PAW grid and wavefunctions read in
 
   number of l-projection  operators is LMAX  =           4
   number of lm-projection operators is LMMAX =           8
 
 Optimization of the real space projectors (new method)

 maximal supplied QI-value         = 15.12
 optimisation between [QCUT,QGAM] = [ 11.34, 22.83] = [ 36.00,145.93] Ry 
 Optimized for a Real-space Cutoff    1.43 Angstroem

   l    n(q)    QCUT    max X(q) W(low)/X(q) W(high)/X(q)  e(spline) 
   2      9    11.338    53.897    0.16E-03    0.20E-03    0.28E-06
   2      9    11.338    52.416    0.16E-03    0.20E-03    0.29E-06
   0     10    11.338   122.045    0.31E-04    0.76E-04    0.15E-06
   0     10    11.338    73.629    0.30E-04    0.72E-04    0.15E-06
   1      9    11.338    15.255    0.20E-03    0.19E-04    0.17E-06
   1      9    11.338     9.562    0.16E-03    0.15E-04    0.14E-06
 Optimization of the real space projectors (new method)

 maximal supplied QI-value         = 15.12
 optimisation between [QCUT,QGAM] = [ 11.34, 22.83] = [ 36.00,145.93] Ry 
 Optimized for a Real-space Cutoff    1.43 Angstroem

   l    n(q)    QCUT    max X(q) W(low)/X(q) W(high)/X(q)  e(spline) 
   2      9    11.338    94.395    0.18E-03    0.10E-02    0.64E-06
   2      9    11.338    88.078    0.18E-03    0.10E-02    0.65E-06
   0     10    11.338    50.173    0.13E-03    0.16E-03    0.96E-07
   0     10    11.338    24.906    0.12E-03    0.14E-03    0.88E-07
   1      9    11.338    12.133    0.13E-03    0.15E-03    0.24E-06
   1      9    11.338     7.290    0.10E-03    0.10E-03    0.18E-06
 Optimization of the real space projectors (new method)

 maximal supplied QI-value         = 24.76
 optimisation between [QCUT,QGAM] = [ 11.39, 22.77] = [ 36.31,145.25] Ry 
 Optimized for a Real-space Cutoff    1.00 Angstroem

   l    n(q)    QCUT    max X(q) W(low)/X(q) W(high)/X(q)  e(spline) 
   0      7    11.387    20.381    0.39E-03    0.13E-02    0.15E-06
   0      7    11.387    15.268    0.42E-03    0.14E-02    0.17E-06
   1      6    11.387     5.964    0.41E-03    0.11E-02    0.17E-06
   1      6    11.387     5.382    0.39E-03    0.87E-03    0.15E-06
  PAW_PBE Ag 02Apr2005                  :
 energy of atom  1       EATOM=-1037.2675
 kinetic energy error for atom=    0.0052 (will be added to EATOM!!)
  PAW_PBE Cr 06Sep2000                  :
 energy of atom  2       EATOM= -276.8859
 kinetic energy error for atom=    0.0012 (will be added to EATOM!!)
  PAW_PBE O 08Apr2002                   :
 energy of atom  3       EATOM= -432.3788
 kinetic energy error for atom=    0.0224 (will be added to EATOM!!)
 
 
 POSCAR: Ag-Cr-O
  positions in direct lattice
  velocities in cartesian coordinates
 exchange correlation table for  LEXCH =        8
   RHO(1)=    0.500       N(1)  =     2000
   RHO(2)=  100.500       N(2)  =     4000

 VTST: version 3.2, (02/03/18)

 CHAIN: initializing optimizer
 
 OPT: Using VASP Conjugate-Gradient optimizer
 CHAIN: Read ICHAIN            0
 
 POSCAR: Ag-Cr-O
  positions in direct lattice
  velocities in cartesian coordinates
 


--------------------------------------------------------------------------------------------------------


 ion  position               nearest neighbor table
   1  0.000  0.000  0.238-   2 2.93   8 2.93   7 2.93   6 2.93   4 2.93  12 2.93  16 2.93  10 2.93
                             3 2.93
   2  0.333  0.000  0.238-   1 2.93   8 2.93   9 2.93   3 2.93   4 2.93   5 2.93  10 2.93  17 2.93
                            11 2.93
   3  0.667  0.000  0.238-   9 2.93   2 2.93   5 2.93  11 2.93   7 2.93  18 2.93   1 2.93   6 2.93
                            12 2.93
   4  0.000  0.333  0.238-   5 2.93   6 2.93   2 2.93   1 2.93   7 2.93  13 2.93  15 2.93   9 2.93
                            10 2.93
   5  0.333  0.333  0.238-   4 2.93   3 2.93   7 2.93   2 2.93   8 2.93  14 2.93  13 2.93  11 2.93
                             6 2.93
   6  0.667  0.333  0.238-   4 2.93   9 2.93   1 2.93  15 2.93   8 2.93  12 2.93   3 2.93   5 2.93
                            14 2.93
   7  0.000  0.667  0.238-   8 2.93   1 2.93   5 2.93   3 2.93   4 2.93  16 2.93  18 2.93  13 2.93
                             9 2.93
   8  0.333  0.667  0.238-   7 2.93   1 2.93   2 2.93   9 2.93   5 2.93  16 2.93   6 2.93  17 2.93
                            14 2.93
   9  0.667  0.667  0.238-   3 2.93   2 2.93   8 2.93   6 2.93  17 2.93   4 2.93  15 2.93   7 2.93
                            18 2.93
  10  0.111  0.111  0.346-  20 2.91  19 2.92  26 2.92  12 2.93  16 2.93  15 2.93  17 2.93  13 2.93
                            11 2.93   2 2.93   1 2.93   4 2.93
  11  0.444  0.111  0.346-  21 2.90  20 2.90  27 2.92  14 2.93  17 2.93  18 2.93   3 2.93  12 2.93
                            13 2.93  10 2.93   5 2.93   2 2.93
  12  0.778  0.111  0.346-  21 2.91  25 2.92  19 2.92  10 2.93  16 2.93  18 2.93  15 2.93  11 2.93
                             1 2.93  14 2.93   6 2.93   3 2.93
  13  0.111  0.444  0.346-  20 2.90  23 2.90  22 2.92  15 2.93  14 2.93  18 2.93  10 2.93  11 2.93
                            16 2.93   4 2.93   5 2.93   7 2.93
  14  0.444  0.444  0.346-  23 2.90  21 2.90  24 2.92  13 2.93  11 2.93  16 2.93   5 2.93  12 2.93
                            17 2.93   8 2.93  15 2.93   6 2.93
  15  0.778  0.444  0.346-  24 2.92  22 2.92  19 2.92  13 2.93  10 2.93  12 2.93  17 2.93  18 2.93
                             4 2.93   6 2.93   9 2.93  14 2.93
  16  0.111  0.778  0.346-  23 2.91  26 2.92  25 2.92  18 2.93  12 2.93  10 2.93  14 2.93  17 2.93
                            13 2.93   7 2.93   8 2.93   1 2.93
  17  0.444  0.778  0.346-  27 2.92  24 2.92  26 2.92  11 2.93  10 2.93   9 2.93  18 2.93  15 2.93
                            16 2.93   2 2.93  14 2.93   8 2.93
  18  0.778  0.778  0.346-  22 2.92  27 2.92  25 2.92  16 2.93  12 2.93  13 2.93  11 2.93  17 2.93
                            15 2.93   7 2.93   3 2.93   9 2.93
  19  0.889  0.222  0.454-  28 2.91  15 2.92  10 2.92  12 2.92  24 2.93  22 2.93  26 2.93  25 2.93
                            20 2.94  21 2.94  32 2.96  31 2.96
  20  0.223  0.223  0.453-  36 2.73  13 2.90  11 2.90  21 2.91  23 2.91  10 2.91  31 2.91  29 2.91
                            27 2.93  22 2.93  19 2.94  26 2.94
  21  0.554  0.223  0.453-  36 2.73  11 2.90  14 2.90  20 2.91  23 2.91  12 2.91  30 2.91  32 2.91
                            27 2.93  24 2.93  25 2.94  19 2.94
  22  0.888  0.556  0.453-  35 2.91  18 2.92  15 2.92  13 2.92  24 2.92  27 2.92  25 2.93  19 2.93
                            33 2.93  31 2.93  23 2.93  20 2.93
  23  0.223  0.554  0.453-  36 2.73  14 2.90  13 2.90  21 2.91  20 2.91  16 2.91  34 2.91  33 2.91
                            22 2.93  24 2.93  26 2.94  25 2.94
  24  0.556  0.556  0.453-  35 2.91  15 2.92  17 2.92  14 2.92  27 2.92  22 2.92  19 2.93  26 2.93
                            32 2.93  34 2.93  23 2.93  21 2.93
  25  0.889  0.889  0.454-  28 2.91  18 2.92  16 2.92  12 2.92  22 2.93  27 2.93  26 2.93  19 2.93
                            23 2.94  21 2.94  33 2.96  30 2.96
  26  0.222  0.889  0.454-  28 2.91  17 2.92  16 2.92  10 2.92  27 2.93  24 2.93  25 2.93  19 2.93
                            23 2.94  20 2.94  34 2.96  29 2.96
  27  0.556  0.888  0.453-  35 2.91  17 2.92  18 2.92  11 2.92  24 2.92  22 2.92  26 2.93  25 2.93
                            29 2.93  30 2.93  20 2.93  21 2.93
  28  0.000  0.000  0.560-  26 2.91  25 2.91  19 2.91  29 2.96  34 2.96  33 2.96  32 2.96  31 2.96
                            30 2.96
  29  0.333  0.007  0.561-  30 2.87  31 2.87  36 2.88  20 2.91  27 2.93  26 2.96  35 2.96  28 2.96
                            34 3.06
  30  0.659  0.007  0.561-  29 2.87  32 2.87  36 2.88  21 2.91  27 2.93  25 2.96  35 2.96  28 2.96
                            33 3.06
  31  0.007  0.333  0.561-  33 2.87  29 2.87  36 2.88  20 2.91  22 2.93  19 2.96  35 2.96  28 2.96
                            32 3.06
  32  0.659  0.333  0.561-  34 2.87  30 2.87  36 2.88  21 2.91  24 2.93  19 2.96  35 2.96  28 2.96
                            31 3.06
  33  0.007  0.659  0.561-  31 2.87  34 2.87  36 2.88  23 2.91  22 2.93  25 2.96  35 2.96  28 2.96
                            30 3.06
  34  0.333  0.659  0.561-  32 2.87  33 2.87  36 2.88  23 2.91  24 2.93  26 2.96  35 2.96  28 2.96
                            29 3.06
  35  0.667  0.667  0.560-  24 2.91  27 2.91  22 2.91  30 2.96  32 2.96  29 2.96  34 2.96  31 2.96
                            33 2.96
  36  0.333  0.333  0.550-  37 1.61  21 2.73  20 2.73  23 2.73  31 2.88  33 2.88  30 2.88  29 2.88
                            34 2.88  32 2.88
  37  0.333  0.333  0.622-  36 1.61
 
  LATTYP: Found a hexagonal cell.
 ALAT       =     8.7913665772
 C/A-ratio  =     2.5227160501
  
  Lattice vectors:
  
 A1 = (  -4.3956832886,  -7.6135467898,   0.0000000000)
 A2 = (   8.7913665771,   0.0000000000,   0.0000000000)
 A3 = (   0.0000000000,   0.0000000000,  22.1781215668)


Analysis of symmetry for initial positions (statically):
=====================================================================
 Subroutine PRICEL returns:
 Original cell was already a primitive cell.
 

 Routine SETGRP: Setting up the symmetry group for a 
 hexagonal supercell.


 Subroutine GETGRP returns: Found  6 space group operations
 (whereof  6 operations were pure point group operations)
 out of a pool of 24 trial point group operations.


The static configuration has the point symmetry C_3v.


Analysis of symmetry for dynamics (positions and initial velocities):
=====================================================================
 Subroutine PRICEL returns:
 Original cell was already a primitive cell.
 

 Routine SETGRP: Setting up the symmetry group for a 
 hexagonal supercell.


 Subroutine GETGRP returns: Found  6 space group operations
 (whereof  6 operations were pure point group operations)
 out of a pool of 24 trial point group operations.


The dynamic configuration has the point symmetry C_3v.


Analysis of constrained symmetry for selective dynamics:
=====================================================================
 Subroutine PRICEL returns:
 Original cell was already a primitive cell.
 

 Routine SETGRP: Setting up the symmetry group for a 
 hexagonal supercell.


 Subroutine GETGRP returns: Found  6 space group operations
 (whereof  6 operations were pure point group operations)
 out of a pool of 24 trial point group operations.


The constrained configuration has the point symmetry C_3v.


 Subroutine INISYM returns: Found  6 space group operations
 (whereof  6 operations are pure point group operations),
 and found     1 'primitive' translations


----------------------------------------------------------------------------------------

                                     Primitive cell                                     

  volume of cell :    1484.4589

  direct lattice vectors                    reciprocal lattice vectors
     8.791366577  0.000000000  0.000000000     0.113747958 -0.065672414  0.000000000
     4.395683289  7.613546790  0.000000000     0.000000000  0.131344829  0.000000000
     0.000000000  0.000000000 22.178121567     0.000000000  0.000000000  0.045089481

  length of vectors
     8.791366577  8.791366577 22.178121567     0.131344829  0.131344829  0.045089481

  position of ions in fractional coordinates (direct lattice)
     0.000000000  0.000000000  0.238171124
     0.333333313  0.000000000  0.238171124
     0.666666627  0.000000000  0.238171124
     0.000000000  0.333333343  0.238171124
     0.333333313  0.333333343  0.238171124
     0.666666687  0.333333343  0.238171124
     0.000000000  0.666666687  0.238171124
     0.333333313  0.666666687  0.238171124
     0.666666627  0.666666687  0.238171124
     0.111111104  0.111111112  0.346057051
     0.444444448  0.111111112  0.346057051
     0.777777791  0.111111112  0.346057051
     0.111111097  0.444444448  0.346057051
     0.444444418  0.444444448  0.346057051
     0.777777791  0.444444448  0.346057051
     0.111111104  0.777777791  0.346057051
     0.444444448  0.777777791  0.346057051
     0.777777791  0.777777791  0.346057051
     0.888767793  0.222464430  0.453528459
     0.222890716  0.222890731  0.452657180
     0.554218509  0.222890731  0.452657180
     0.888473127  0.555763466  0.453338626
     0.222890731  0.554218569  0.452657180
     0.555763466  0.555763466  0.453338626
     0.888767793  0.888767793  0.453528459
     0.222464400  0.888767793  0.453528459
     0.555763406  0.888473127  0.453338626
     0.000000000  0.000000000  0.560301152
     0.333374766  0.007169798  0.561201489
     0.659455376  0.007169798  0.561201489
     0.007169798  0.333374796  0.561201489
     0.659455436  0.333374796  0.561201489
     0.007169798  0.659455436  0.561201489
     0.333374766  0.659455436  0.561201489
     0.666666627  0.666666687  0.560419877
     0.333333313  0.333333343  0.549500627
     0.333333313  0.333333343  0.621935756

  ion indices of the primitive-cell ions
   primitive index   ion index
                 1           1
                 2           2
                 3           3
                 4           4
                 5           5
                 6           6
                 7           7
                 8           8
                 9           9
                10          10
                11          11
                12          12
                13          13
                14          14
                15          15
                16          16
                17          17
                18          18
                19          19
                20          20
                21          21
                22          22
                23          23
                24          24
                25          25
                26          26
                27          27
                28          28
                29          29
                30          30
                31          31
                32          32
                33          33
                34          34
                35          35
                36          36
                37          37

----------------------------------------------------------------------------------------

 
 
 KPOINTS: Automatic mesh                          

Automatic generation of k-mesh.
 Grid dimensions read from file:
 generate k-points for:    8    8    1

 Generating k-lattice:

  Cartesian coordinates                     Fractional coordinates (reciprocal lattice)
     0.014218495 -0.008209052  0.000000000     0.125000000  0.000000000  0.000000000
     0.000000000  0.016418104  0.000000000     0.000000000  0.125000000  0.000000000
     0.000000000  0.000000000  0.045089481     0.000000000  0.000000000  1.000000000

  Length of vectors
     0.016418104  0.016418104  0.045089481

  Shift w.r.t. Gamma in fractional coordinates (k-lattice)
     0.000000000  0.000000000  0.000000000

 TETIRR: Found     36 inequivalent tetrahedra from      384
 
 Subroutine IBZKPT returns following result:
 ===========================================
 
 Found     10 irreducible k-points:
 
 Following reciprocal coordinates:
            Coordinates               Weight
  0.000000  0.000000  0.000000      1.000000
  0.125000 -0.000000  0.000000      6.000000
  0.250000 -0.000000  0.000000      6.000000
  0.375000 -0.000000  0.000000      6.000000
  0.500000 -0.000000  0.000000      3.000000
  0.250000  0.125000  0.000000      6.000000
  0.375000  0.125000  0.000000     12.000000
  0.500000  0.125000  0.000000     12.000000
  0.500000  0.250000  0.000000      6.000000
 -0.375000  0.250000  0.000000      6.000000
 
 Following cartesian coordinates:
            Coordinates               Weight
  0.000000  0.000000  0.000000      1.000000
  0.014218 -0.008209  0.000000      6.000000
  0.028437 -0.016418  0.000000      6.000000
  0.042655 -0.024627  0.000000      6.000000
  0.056874 -0.032836  0.000000      3.000000
  0.028437 -0.000000  0.000000      6.000000
  0.042655 -0.008209  0.000000     12.000000
  0.056874 -0.016418  0.000000     12.000000
  0.056874 -0.000000  0.000000      6.000000
 -0.042655  0.057463  0.000000      6.000000
 


--------------------------------------------------------------------------------------------------------




 Dimension of arrays:
   k-points           NKPTS =     10   k-points in BZ     NKDIM =     10   number of bands    NBANDS=    252
   number of dos      NEDOS =    301   number of ions     NIONS =     37
   non local maximal  LDIM  =      6   non local SUM 2l+1 LMDIM =     18
   total plane-waves  NPLWV = 290304
   max r-space proj   IRMAX =   2452   max aug-charges    IRDMAX=  10189
   dimension x,y,z NGX =    48 NGY =   48 NGZ =  126
   dimension x,y,z NGXF=    96 NGYF=   96 NGZF=  252
   support grid    NGXF=    96 NGYF=   96 NGZF=  252
   ions per type =              35   1   1
   NGX,Y,Z   is equivalent  to a cutoff of   9.08,  9.08,  9.44 a.u.
   NGXF,Y,Z  is equivalent  to a cutoff of  18.15, 18.15, 18.89 a.u.

 SYSTEM =  unknown system                          
 POSCAR =  Ag-Cr-O                                 

 Startparameter for this run:
   NWRITE =      2    write-flag & timer
   PREC   = normal    normal or accurate (medium, high low for compatibility)
   ISTART =      0    job   : 0-new  1-cont  2-samecut
   ICHARG =     11    charge: 1-file 2-atom 10-const
   ISPIN  =      1    spin polarized calculation?
   LNONCOLLINEAR =      F non collinear calculations
   LSORBIT =      F    spin-orbit coupling
   INIWAV =      1    electr: 0-lowe 1-rand  2-diag
   LASPH  =      F    aspherical Exc in radial PAW
   METAGGA=      F    non-selfconsistent MetaGGA calc.

 Electronic Relaxation 1
   ENCUT  =  500.0 eV  36.75 Ry    6.06 a.u.  16.03 16.03 40.44*2*pi/ulx,y,z
   ENINI  =  500.0     initial cutoff
   ENAUG  =  605.4 eV  augmentation charge cutoff
   NELM   =    150;   NELMIN=  2; NELMDL= -5     # of ELM steps 
   EDIFF  = 0.1E-04   stopping-criterion for ELM
   LREAL  =      T    real-space projection
   NLSPLINE    = F    spline interpolate recip. space projectors
   LCOMPAT=      F    compatible to vasp.4.4
   GGA_COMPAT  = T    GGA compatible to vasp.4.4-vasp.4.6
   LMAXPAW     = -100 max onsite density
   LMAXMIX     =    2 max onsite mixed and CHGCAR
   VOSKOWN=      0    Vosko Wilk Nusair interpolation
   ROPT   =   -0.00050  -0.00050  -0.00050
 Ionic relaxation
   EDIFFG = -.1E-01   stopping-criterion for IOM
   NSW    =      0    number of steps for IOM
   NBLOCK =      1;   KBLOCK =      1    inner block; outer block 
   IBRION =     -1    ionic relax: 0-MD 1-quasi-New 2-CG
   NFREE  =      1    steps in history (QN), initial steepest desc. (CG)
   ISIF   =      2    stress and relaxation
   IWAVPR =     10    prediction:  0-non 1-charg 2-wave 3-comb
   ISYM   =      2    0-nonsym 1-usesym 2-fastsym
   LCORR  =      T    Harris-Foulkes like correction to forces

   POTIM  = 0.5000    time-step for ionic-motion
   TEIN   =    0.0    initial temperature
   TEBEG  =    0.0;   TEEND  =   0.0 temperature during run
   SMASS  =  -3.00    Nose mass-parameter (am)
   estimated Nose-frequenzy (Omega)   =  0.10E-29 period in steps = 0.13E+47 mass=  -0.177E-26a.u.
   SCALEE = 1.0000    scale energy and forces
   NPACO  =    256;   APACO  = 16.0  distance and # of slots for P.C.
   PSTRESS=    0.0 pullay stress

  Mass of Ions in am
   POMASS = 107.87 52.00 16.00
  Ionic Valenz
   ZVAL   =  11.00  6.00  6.00
  Atomic Wigner-Seitz radii
   RWIGS  =  -1.00 -1.00 -1.00
  virtual crystal weights 
   VCA    =   1.00  1.00  1.00
   NELECT =     397.0000    total number of electrons
   NUPDOWN=      -1.0000    fix difference up-down

 DOS related values:
   EMIN   =  10.00;   EMAX   =-10.00  energy-range for DOS
   EFERMI =   0.00
   ISMEAR =    -5;   SIGMA  =   0.10  broadening in eV -4-tet -1-fermi 0-gaus

 Electronic relaxation 2 (details)
   IALGO  =     68    algorithm
   LDIAG  =      T    sub-space diagonalisation (order eigenvalues)
   LSUBROT=      F    optimize rotation matrix (better conditioning)
   TURBO    =      0    0=normal 1=particle mesh
   IRESTART =      0    0=no restart 2=restart with 2 vectors
   NREBOOT  =      0    no. of reboots
   NMIN     =      0    reboot dimension
   EREF     =   0.00    reference energy to select bands
   IMIX   =      4    mixing-type and parameters
     AMIX     =   0.40;   BMIX     =  1.00
     AMIX_MAG =   1.60;   BMIX_MAG =  1.00
     AMIN     =   0.10
     WC   =   100.;   INIMIX=   1;  MIXPRE=   1;  MAXMIX= -45

 Intra band minimization:
   WEIMIN = 0.0000     energy-eigenvalue tresh-hold
   EBREAK =  0.99E-08  absolut break condition
   DEPER  =   0.30     relativ break condition  

   TIME   =   0.40     timestep for ELM

  volume/ion in A,a.u.               =      40.12       270.75
  Fermi-wavevector in a.u.,A,eV,Ry     =   1.054749  1.993186 15.136407  1.112495
  Thomas-Fermi vector in A             =   2.189921
 
 Write flags
   LWAVE        =      F    write WAVECAR
   LDOWNSAMPLE  =      F    k-point downsampling of WAVECAR
   LCHARG       =      F    write CHGCAR
   LVTOT        =      F    write LOCPOT, total local potential
   LVHAR        =      F    write LOCPOT, Hartree potential only
   LELF         =      F    write electronic localiz. function (ELF)
   LORBIT       =     10    0 simple, 1 ext, 2 COOP (PROOUT), +10 PAW based schemes


 Dipole corrections
   LMONO  =      F    monopole corrections only (constant potential shift)
   LDIPOL =      F    correct potential (dipole corrections)
   IDIPOL =      0    1-x, 2-y, 3-z, 4-all directions 
   EPSILON=  1.0000000 bulk dielectric constant

 Exchange correlation treatment:
   GGA     =    --    GGA type
   LEXCH   =     8    internal setting for exchange type
   VOSKOWN=      0    Vosko Wilk Nusair interpolation
   LHFCALC =     F    Hartree Fock is set to
   LHFONE  =     F    Hartree Fock one center treatment
   AEXX    =    0.0000 exact exchange contribution

 Linear response parameters
   LEPSILON=     F    determine dielectric tensor
   LRPA    =     F    only Hartree local field effects (RPA)
   LNABLA  =     F    use nabla operator in PAW spheres
   LVEL    =     F    velocity operator in full k-point grid
   LINTERFAST=   F  fast interpolation
   KINTER  =     0    interpolate to denser k-point grid
   CSHIFT  =0.1000    complex shift for real part using Kramers Kronig
   OMEGAMAX=  -1.0    maximum frequency
   DEG_THRESHOLD= 0.2000000E-02 threshold for treating states as degnerate
   RTIME   =   -0.100 relaxation time in fs
  (WPLASMAI=    0.000 imaginary part of plasma frequency in eV, 0.658/RTIME)
   DFIELD  = 0.0000000 0.0000000 0.0000000 field for delta impulse in time
 
 Orbital magnetization related:
   ORBITALMAG=     F  switch on orbital magnetization
   LCHIMAG   =     F  perturbation theory with respect to B field
   DQ        =  0.001000  dq finite difference perturbation B field
   LLRAUG    =     F  two centre corrections for induced B field



--------------------------------------------------------------------------------------------------------


 Static calculation
 charge density and potential remain constant during run
 non-spin polarized calculation
 RMM-DIIS sequential band-by-band and
  variant of blocked Davidson during initial phase
 perform sub-space diagonalisation
    before iterative eigenvector-optimisation
 no mixing
 using additional bands           53
 real space projection scheme for non local part
 use partial core corrections
 calculate Harris-corrections to forces 
   (improved forces if not selfconsistent)
 use gradient corrections 
 WARNING: stress and forces are not correct
  (second derivative of E(xc) not defined)
 use of overlap-Matrix (Vanderbilt PP)
 Fermi weights with tetrahedron method with Bloechl corrections


--------------------------------------------------------------------------------------------------------


  energy-cutoff  :      500.00
  volume of cell :     1484.46
      direct lattice vectors                 reciprocal lattice vectors
     8.791366577  0.000000000  0.000000000     0.113747958 -0.065672414  0.000000000
     4.395683289  7.613546790  0.000000000     0.000000000  0.131344829  0.000000000
     0.000000000  0.000000000 22.178121567     0.000000000  0.000000000  0.045089481

  length of vectors
     8.791366577  8.791366577 22.178121567     0.131344829  0.131344829  0.045089481


 
 k-points in units of 2pi/SCALE and weight: Automatic mesh                          
   0.00000000  0.00000000  0.00000000       0.016
   0.01421849 -0.00820905  0.00000000       0.094
   0.02843699 -0.01641810  0.00000000       0.094
   0.04265548 -0.02462716  0.00000000       0.094
   0.05687398 -0.03283621  0.00000000       0.047
   0.02843699 -0.00000000  0.00000000       0.094
   0.04265548 -0.00820905  0.00000000       0.188
   0.05687398 -0.01641810  0.00000000       0.188
   0.05687398 -0.00000000  0.00000000       0.094
  -0.04265548  0.05746336  0.00000000       0.094
 
 k-points in reciprocal lattice and weights: Automatic mesh                          
   0.00000000  0.00000000  0.00000000       0.016
   0.12500000 -0.00000000  0.00000000       0.094
   0.25000000 -0.00000000  0.00000000       0.094
   0.37500000 -0.00000000  0.00000000       0.094
   0.50000000 -0.00000000  0.00000000       0.047
   0.25000000  0.12500000  0.00000000       0.094
   0.37500000  0.12500000  0.00000000       0.188
   0.50000000  0.12500000  0.00000000       0.188
   0.50000000  0.25000000  0.00000000       0.094
  -0.37500000  0.25000000  0.00000000       0.094
 
 position of ions in fractional coordinates (direct lattice) 
   0.00000000  0.00000000  0.23817112
   0.33333331  0.00000000  0.23817112
   0.66666663  0.00000000  0.23817112
   0.00000000  0.33333334  0.23817112
   0.33333331  0.33333334  0.23817112
   0.66666669  0.33333334  0.23817112
   0.00000000  0.66666669  0.23817112
   0.33333331  0.66666669  0.23817112
   0.66666663  0.66666669  0.23817112
   0.11111110  0.11111111  0.34605705
   0.44444445  0.11111111  0.34605705
   0.77777779  0.11111111  0.34605705
   0.11111110  0.44444445  0.34605705
   0.44444442  0.44444445  0.34605705
   0.77777779  0.44444445  0.34605705
   0.11111110  0.77777779  0.34605705
   0.44444445  0.77777779  0.34605705
   0.77777779  0.77777779  0.34605705
   0.88876779  0.22246443  0.45352846
   0.22289072  0.22289073  0.45265718
   0.55421851  0.22289073  0.45265718
   0.88847313  0.55576347  0.45333863
   0.22289073  0.55421857  0.45265718
   0.55576347  0.55576347  0.45333863
   0.88876779  0.88876779  0.45352846
   0.22246440  0.88876779  0.45352846
   0.55576341  0.88847313  0.45333863
   0.00000000  0.00000000  0.56030115
   0.33337477  0.00716980  0.56120149
   0.65945538  0.00716980  0.56120149
   0.00716980  0.33337480  0.56120149
   0.65945544  0.33337480  0.56120149
   0.00716980  0.65945544  0.56120149
   0.33337477  0.65945544  0.56120149
   0.66666663  0.66666669  0.56041988
   0.33333331  0.33333334  0.54950063
   0.33333331  0.33333334  0.62193576
 
 position of ions in cartesian coordinates  (Angst):
   0.00000000  0.00000000  5.28218814
   2.93045535  0.00000000  5.28218814
   5.86091070  0.00000000  5.28218814
   1.46522781  2.53784900  5.28218814
   4.39568315  2.53784900  5.28218814
   7.32613904  2.53784900  5.28218814
   2.93045562  5.07569801  5.28218814
   5.86091096  5.07569801  5.28218814
   8.79136632  5.07569801  5.28218814
   1.46522770  0.84594965  7.67489535
   4.39568332  0.84594965  7.67489535
   7.32613893  0.84594965  7.67489535
   2.93045542  3.38379860  7.67489535
   5.86091083  3.38379860  7.67489535
   8.79136671  3.38379860  7.67489535
   4.39568328  5.92164760  7.67489535
   7.32613890  5.92164760  7.67489535
  10.25659451  5.92164760  7.67489535
   8.79136665  1.69374335 10.05840929
   2.93927105  1.69698901 10.03908597
   5.85209513  1.69698901 10.03908597
  10.25385314  4.23133116 10.05419916
   4.39568342  4.21956900 10.03908597
   7.32888055  4.23133116 10.05419916
  11.72022521  6.76667518 10.05840929
   5.86250783  6.76667518 10.05840929
   8.79136631  6.76443172 10.05419916
   0.00000000  0.00000000 12.42642706
   2.96233593  0.05458759 12.44639484
   5.82903012  0.05458759 12.44639484
   1.52844234  2.53816460 12.44639484
   7.26292450  2.53816460 12.44639484
   2.96178957  5.02079482 12.44639484
   5.82957701  5.02079482 12.44639484
   8.79136632  5.07569801 12.42906015
   4.39568315  2.53784900 12.18689171
   4.39568315  2.53784900 13.79336681
 


--------------------------------------------------------------------------------------------------------


 k-point   1 :   0.0000 0.0000 0.0000  plane waves:   37683
 k-point   2 :   0.1250-0.0000 0.0000  plane waves:   37658
 k-point   3 :   0.2500-0.0000 0.0000  plane waves:   37682
 k-point   4 :   0.3750-0.0000 0.0000  plane waves:   37686
 k-point   5 :   0.5000-0.0000 0.0000  plane waves:   37668
 k-point   6 :   0.2500 0.1250 0.0000  plane waves:   37666
 k-point   7 :   0.3750 0.1250 0.0000  plane waves:   37708
 k-point   8 :   0.5000 0.1250 0.0000  plane waves:   37726
 k-point   9 :   0.5000 0.2500 0.0000  plane waves:   37706
 k-point  10 :  -0.3750 0.2500 0.0000  plane waves:   37686

 maximum and minimum number of plane-waves per node :     37726    37658

 maximum number of plane-waves:     37726
 maximum index in each direction: 
   IXMAX=   16   IYMAX=   16   IZMAX=   40
   IXMIN=  -16   IYMIN=  -16   IZMIN=  -40


 serial   3D FFT for wavefunctions
 parallel 3D FFT for charge:
    minimum data exchange during FFTs selected (reduces bandwidth)


 total amount of memory used by VASP MPI-rank0   122929. kBytes
=======================================================================

   base      :      30000. kBytes
   nonlr-proj:      14826. kBytes
   fftplans  :       4330. kBytes
   grid      :      17879. kBytes
   one-center:        575. kBytes
   wavefun   :      55319. kBytes
 
     INWAV:  cpu time    0.0000: real time    0.0000
 initial charge density was supplied:
 number of electron     396.9999998 magnetization 
 keeping initial charge density in first step


--------------------------------------------------------------------------------------------------------


 Maximum index for non-local projection operator         2345
 Maximum index for augmentation-charges          704 (set IRDMAX)


--------------------------------------------------------------------------------------------------------


 First call to EWALD:  gamma=   0.155
 Maximum number of real-space cells 4x 4x 2
 Maximum number of reciprocal cells 2x 2x 5

    FEWALD:  cpu time    0.0013: real time    0.0013


--------------------------------------- Iteration      1(   1)  ---------------------------------------


    POTLOK:  cpu time    0.0440: real time    0.0445
    SETDIJ:  cpu time    0.0046: real time    0.0047
     EDDAV:  cpu time    7.1546: real time    7.1578
 BZINTS: Fermi energy:    9.729493;  397.000000 electrons
         Band energy: 0.124377E+04;  BLOECHL correction:   -0.023215
       DOS:  cpu time    0.0103: real time    0.0104
    --------------------------------------------
      LOOP:  cpu time    7.2135: real time    7.2174

 eigenvalue-minimisations  :  5040
 total energy-change (2. order) : 0.2471676E+04  (-0.1825309E+05)
 number of electron     396.9999998 magnetization 
 augmentation part      396.9999998 magnetization 

 Free energy of the ion-electron system (eV)
  ---------------------------------------------------
  alpha Z        PSCENC =       748.40451051
  Ewald energy   TEWEN  =     97545.28470909
  -Hartree energ DENC   =   -135252.06486255
  -exchange      EXHF   =         0.00000000
  -V(xc)+E(xc)   XCENC  =      -381.36309971
  PAW double counting   =     39180.92387848   -37626.70263689
  entropy T*S    EENTRO =         0.00000000
  eigenvalues    EBANDS =      1243.77120309
  atomic energy  EATOM  =     37013.42195249
  Solvation  Ediel_sol  =         0.00000000
  ---------------------------------------------------
  free energy    TOTEN  =      2471.67565452 eV

  energy without entropy =     2471.67565452  energy(sigma->0) =     2471.67565452


--------------------------------------------------------------------------------------------------------




--------------------------------------- Iteration      1(   2)  ---------------------------------------


     EDDAV:  cpu time    7.3787: real time    7.3843
 BZINTS: Fermi energy:    1.397437;  397.000000 electrons
         Band energy:-0.123343E+04;  BLOECHL correction:   -0.028692
       DOS:  cpu time    0.0097: real time    0.0097
    --------------------------------------------
      LOOP:  cpu time    7.3884: real time    7.3940

 eigenvalue-minimisations  :  5264
 total energy-change (2. order) :-0.2477198E+04  (-0.2348164E+04)
 number of electron     396.9999998 magnetization 
 augmentation part      396.9999998 magnetization 

 Free energy of the ion-electron system (eV)
  ---------------------------------------------------
  alpha Z        PSCENC =       748.40451051
  Ewald energy   TEWEN  =     97545.28470909
  -Hartree energ DENC   =   -135252.06486255
  -exchange      EXHF   =         0.00000000
  -V(xc)+E(xc)   XCENC  =      -381.36309971
  PAW double counting   =     39180.92387848   -37626.70263689
  entropy T*S    EENTRO =         0.00000000
  eigenvalues    EBANDS =     -1233.42702528
  atomic energy  EATOM  =     37013.42195249
  Solvation  Ediel_sol  =         0.00000000
  ---------------------------------------------------
  free energy    TOTEN  =        -5.52257385 eV

  energy without entropy =       -5.52257385  energy(sigma->0) =       -5.52257385


--------------------------------------------------------------------------------------------------------




--------------------------------------- Iteration      1(   3)  ---------------------------------------


     EDDAV:  cpu time    8.2392: real time    8.2419
 BZINTS: Fermi energy:    0.793993;  397.000000 electrons
         Band energy:-0.132991E+04;  BLOECHL correction:   -0.029156
       DOS:  cpu time    0.0096: real time    0.0096
    --------------------------------------------
      LOOP:  cpu time    8.2488: real time    8.2515

 eigenvalue-minimisations  :  6020
 total energy-change (2. order) :-0.9648063E+02  (-0.9394466E+02)
 number of electron     396.9999998 magnetization 
 augmentation part      396.9999998 magnetization 

 Free energy of the ion-electron system (eV)
  ---------------------------------------------------
  alpha Z        PSCENC =       748.40451051
  Ewald energy   TEWEN  =     97545.28470909
  -Hartree energ DENC   =   -135252.06486255
  -exchange      EXHF   =         0.00000000
  -V(xc)+E(xc)   XCENC  =      -381.36309971
  PAW double counting   =     39180.92387848   -37626.70263689
  entropy T*S    EENTRO =         0.00000000
  eigenvalues    EBANDS =     -1329.90765928
  atomic energy  EATOM  =     37013.42195249
  Solvation  Ediel_sol  =         0.00000000
  ---------------------------------------------------
  free energy    TOTEN  =      -102.00320784 eV

  energy without entropy =     -102.00320784  energy(sigma->0) =     -102.00320784


--------------------------------------------------------------------------------------------------------




--------------------------------------- Iteration      1(   4)  ---------------------------------------


     EDDAV:  cpu time    7.6349: real time    7.6370
 BZINTS: Fermi energy:    0.781022;  397.000000 electrons
         Band energy:-0.133152E+04;  BLOECHL correction:   -0.029268
       DOS:  cpu time    0.0098: real time    0.0098
    --------------------------------------------
      LOOP:  cpu time    7.6446: real time    7.6468

 eigenvalue-minimisations  :  5488
 total energy-change (2. order) :-0.1607572E+01  (-0.1602676E+01)
 number of electron     396.9999998 magnetization 
 augmentation part      396.9999998 magnetization 

 Free energy of the ion-electron system (eV)
  ---------------------------------------------------
  alpha Z        PSCENC =       748.40451051
  Ewald energy   TEWEN  =     97545.28470909
  -Hartree energ DENC   =   -135252.06486255
  -exchange      EXHF   =         0.00000000
  -V(xc)+E(xc)   XCENC  =      -381.36309971
  PAW double counting   =     39180.92387848   -37626.70263689
  entropy T*S    EENTRO =         0.00000000
  eigenvalues    EBANDS =     -1331.51523162
  atomic energy  EATOM  =     37013.42195249
  Solvation  Ediel_sol  =         0.00000000
  ---------------------------------------------------
  free energy    TOTEN  =      -103.61078019 eV

  energy without entropy =     -103.61078019  energy(sigma->0) =     -103.61078019


--------------------------------------------------------------------------------------------------------




--------------------------------------- Iteration      1(   5)  ---------------------------------------


     EDDAV:  cpu time    8.3354: real time    8.3380
 BZINTS: Fermi energy:    0.780749;  397.000000 electrons
         Band energy:-0.133155E+04;  BLOECHL correction:   -0.029291
       DOS:  cpu time    0.0097: real time    0.0097
    --------------------------------------------
      LOOP:  cpu time    8.3451: real time    8.3478

 eigenvalue-minimisations  :  6104
 total energy-change (2. order) :-0.3817936E-01  (-0.3816428E-01)
 number of electron     396.9999998 magnetization 
 augmentation part      396.9999998 magnetization 

 Free energy of the ion-electron system (eV)
  ---------------------------------------------------
  alpha Z        PSCENC =       748.40451051
  Ewald energy   TEWEN  =     97545.28470909
  -Hartree energ DENC   =   -135252.06486255
  -exchange      EXHF   =         0.00000000
  -V(xc)+E(xc)   XCENC  =      -381.36309971
  PAW double counting   =     39180.92387848   -37626.70263689
  entropy T*S    EENTRO =         0.00000000
  eigenvalues    EBANDS =     -1331.55341098
  atomic energy  EATOM  =     37013.42195249
  Solvation  Ediel_sol  =         0.00000000
  ---------------------------------------------------
  free energy    TOTEN  =      -103.64895954 eV

  energy without entropy =     -103.64895954  energy(sigma->0) =     -103.64895954


--------------------------------------------------------------------------------------------------------




--------------------------------------- Iteration      1(   6)  ---------------------------------------


    EDDIAG:  cpu time    1.3985: real time    1.3990
  RMM-DIIS:  cpu time    3.9630: real time    3.9643
    ORTHCH:  cpu time    0.2594: real time    0.2594
 BZINTS: Fermi energy:    0.780739;  397.000000 electrons
         Band energy:-0.133155E+04;  BLOECHL correction:   -0.029292
       DOS:  cpu time    0.0101: real time    0.0101
    --------------------------------------------
      LOOP:  cpu time    5.6309: real time    5.6328

 eigenvalue-minimisations  :  5110
 total energy-change (2. order) :-0.1445334E-02  (-0.1444710E-02)
 number of electron     396.9999998 magnetization 
 augmentation part      396.9999998 magnetization 

 Free energy of the ion-electron system (eV)
  ---------------------------------------------------
  alpha Z        PSCENC =       748.40451051
  Ewald energy   TEWEN  =     97545.28470909
  -Hartree energ DENC   =   -135252.06486255
  -exchange      EXHF   =         0.00000000
  -V(xc)+E(xc)   XCENC  =      -381.36309971
  PAW double counting   =     39180.92387848   -37626.70263689
  entropy T*S    EENTRO =         0.00000000
  eigenvalues    EBANDS =     -1331.55485631
  atomic energy  EATOM  =     37013.42195249
  Solvation  Ediel_sol  =         0.00000000
  ---------------------------------------------------
  free energy    TOTEN  =      -103.65040488 eV

  energy without entropy =     -103.65040488  energy(sigma->0) =     -103.65040488


--------------------------------------------------------------------------------------------------------




--------------------------------------- Iteration      1(   7)  ---------------------------------------


    EDDIAG:  cpu time    1.4008: real time    1.4014
  RMM-DIIS:  cpu time    5.9043: real time    5.9061
    ORTHCH:  cpu time    0.2594: real time    0.2594
 BZINTS: Fermi energy:    0.780735;  397.000000 electrons
         Band energy:-0.133156E+04;  BLOECHL correction:   -0.029293
       DOS:  cpu time    0.0097: real time    0.0097
    --------------------------------------------
      LOOP:  cpu time    7.5742: real time    7.5766

 eigenvalue-minimisations  :  7457
 total energy-change (2. order) :-0.7350250E-03  (-0.7200587E-03)
 number of electron     396.9999998 magnetization 
 augmentation part      396.9999998 magnetization 

 Free energy of the ion-electron system (eV)
  ---------------------------------------------------
  alpha Z        PSCENC =       748.40451051
  Ewald energy   TEWEN  =     97545.28470909
  -Hartree energ DENC   =   -135252.06486255
  -exchange      EXHF   =         0.00000000
  -V(xc)+E(xc)   XCENC  =      -381.36309971
  PAW double counting   =     39180.92387848   -37626.70263689
  entropy T*S    EENTRO =         0.00000000
  eigenvalues    EBANDS =     -1331.55559134
  atomic energy  EATOM  =     37013.42195249
  Solvation  Ediel_sol  =         0.00000000
  ---------------------------------------------------
  free energy    TOTEN  =      -103.65113990 eV

  energy without entropy =     -103.65113990  energy(sigma->0) =     -103.65113990


--------------------------------------------------------------------------------------------------------




--------------------------------------- Iteration      1(   8)  ---------------------------------------


    EDDIAG:  cpu time    1.4019: real time    1.4024
  RMM-DIIS:  cpu time    4.8824: real time    4.8838
    ORTHCH:  cpu time    0.2596: real time    0.2596
 BZINTS: Fermi energy:    0.780735;  397.000000 electrons
         Band energy:-0.133156E+04;  BLOECHL correction:   -0.029293
       DOS:  cpu time    0.0101: real time    0.0101
    --------------------------------------------
      LOOP:  cpu time    6.5540: real time    6.5558

 eigenvalue-minimisations  :  5909
 total energy-change (2. order) :-0.6411862E-04  (-0.6443312E-04)
 number of electron     396.9999998 magnetization 
 augmentation part      396.9999998 magnetization 

 Free energy of the ion-electron system (eV)
  ---------------------------------------------------
  alpha Z        PSCENC =       748.40451051
  Ewald energy   TEWEN  =     97545.28470909
  -Hartree energ DENC   =   -135252.06486255
  -exchange      EXHF   =         0.00000000
  -V(xc)+E(xc)   XCENC  =      -381.36309971
  PAW double counting   =     39180.92387848   -37626.70263689
  entropy T*S    EENTRO =         0.00000000
  eigenvalues    EBANDS =     -1331.55565545
  atomic energy  EATOM  =     37013.42195249
  Solvation  Ediel_sol  =         0.00000000
  ---------------------------------------------------
  free energy    TOTEN  =      -103.65120402 eV

  energy without entropy =     -103.65120402  energy(sigma->0) =     -103.65120402


--------------------------------------------------------------------------------------------------------




--------------------------------------- Iteration      1(   9)  ---------------------------------------


    EDDIAG:  cpu time    1.3993: real time    1.4001
  RMM-DIIS:  cpu time    4.1697: real time    4.1709
    ORTHCH:  cpu time    0.2592: real time    0.2592
 BZINTS: Fermi energy:    0.780734;  397.000000 electrons
         Band energy:-0.133156E+04;  BLOECHL correction:   -0.029293
       DOS:  cpu time    0.0099: real time    0.0099
    --------------------------------------------
      LOOP:  cpu time    5.8381: real time    5.8401

 eigenvalue-minimisations  :  4788
 total energy-change (2. order) :-0.1247780E-04  (-0.1362528E-04)
 number of electron     396.9999998 magnetization 
 augmentation part      396.9999998 magnetization 

 Free energy of the ion-electron system (eV)
  ---------------------------------------------------
  alpha Z        PSCENC =       748.40451051
  Ewald energy   TEWEN  =     97545.28470909
  -Hartree energ DENC   =   -135252.06486255
  -exchange      EXHF   =         0.00000000
  -V(xc)+E(xc)   XCENC  =      -381.36309971
  PAW double counting   =     39180.92387848   -37626.70263689
  entropy T*S    EENTRO =         0.00000000
  eigenvalues    EBANDS =     -1331.55566793
  atomic energy  EATOM  =     37013.42195249
  Solvation  Ediel_sol  =         0.00000000
  ---------------------------------------------------
  free energy    TOTEN  =      -103.65121650 eV

  energy without entropy =     -103.65121650  energy(sigma->0) =     -103.65121650


--------------------------------------------------------------------------------------------------------




--------------------------------------- Iteration      1(  10)  ---------------------------------------


    EDDIAG:  cpu time    1.4010: real time    1.4017
  RMM-DIIS:  cpu time    3.0315: real time    3.0324
    ORTHCH:  cpu time    0.2592: real time    0.2592
 BZINTS: Fermi energy:    0.780734;  397.000000 electrons
         Band energy:-0.133156E+04;  BLOECHL correction:   -0.029293
       DOS:  cpu time    0.0099: real time    0.0099
    --------------------------------------------
      LOOP:  cpu time    4.7017: real time    4.7032

 eigenvalue-minimisations  :  3113
 total energy-change (2. order) :-0.1801760E-05  (-0.2115098E-05)
 number of electron     396.9999998 magnetization 
 augmentation part      396.9999998 magnetization 

 Free energy of the ion-electron system (eV)
  ---------------------------------------------------
  alpha Z        PSCENC =       748.40451051
  Ewald energy   TEWEN  =     97545.28470909
  -Hartree energ DENC   =   -135252.06486255
  -exchange      EXHF   =         0.00000000
  -V(xc)+E(xc)   XCENC  =      -381.36309971
  PAW double counting   =     39180.92387848   -37626.70263689
  entropy T*S    EENTRO =         0.00000000
  eigenvalues    EBANDS =     -1331.55566973
  atomic energy  EATOM  =     37013.42195249
  Solvation  Ediel_sol  =         0.00000000
  ---------------------------------------------------
  free energy    TOTEN  =      -103.65121830 eV

  energy without entropy =     -103.65121830  energy(sigma->0) =     -103.65121830


--------------------------------------------------------------------------------------------------------




 average (electrostatic) potential at core
  the test charge radii are     1.1249  1.1394  0.7215
  (the norm of the test charge is              1.0000)
       1 -78.1017       2 -78.0885       3 -78.0884       4 -78.0885       5 -78.0806
       6 -78.0882       7 -78.0884       8 -78.0882       9 -78.1037      10 -78.3286
      11 -78.3182      12 -78.3285      13 -78.3182      14 -78.3181      15 -78.3175
      16 -78.3285      17 -78.3175      18 -78.3175      19 -78.2977      20 -78.4681
      21 -78.4681      22 -78.3051      23 -78.4681      24 -78.3053      25 -78.2975
      26 -78.2977      27 -78.3051      28 -78.0595      29 -78.0573      30 -78.0573
      31 -78.0573      32 -78.0572      33 -78.0573      34 -78.0572      35 -78.0292
      36 -48.6880      37 -75.8901
 
 
 
 E-fermi :   0.7807     XC(G=0):  -5.9141     alpha+bet : -5.5899

 Fermi energy:         0.7807344027

 k-point     1 :       0.0000    0.0000    0.0000
  band No.  band energies     occupation 
      1     -17.7149      2.00000
      2      -6.3322      2.00000
      3      -5.4659      2.00000
      4      -5.1640      2.00000
      5      -5.1279      2.00000
      6      -5.0620      2.00000
      7      -5.0620      2.00000
      8      -5.0487      2.00000
      9      -5.0475      2.00000
     10      -5.0475      2.00000
     11      -5.0325      2.00000
     12      -5.0149      2.00000
     13      -5.0095      2.00000
     14      -5.0095      2.00000
     15      -4.9923      2.00000
     16      -4.9923      2.00000
     17      -4.9695      2.00000
     18      -4.8776      2.00000
     19      -4.8520      2.00000
     20      -4.8520      2.00000
     21      -4.8376      2.00000
     22      -4.8280      2.00000
     23      -4.8280      2.00000
     24      -4.6665      2.00000
     25      -4.6436      2.00000
     26      -4.6428      2.00000
     27      -4.6428      2.00000
     28      -4.6230      2.00000
     29      -4.6192      2.00000
     30      -4.6125      2.00000
     31      -4.6125      2.00000
     32      -4.5971      2.00000
     33      -4.5971      2.00000
     34      -4.5847      2.00000
     35      -4.5847      2.00000
     36      -4.5126      2.00000
     37      -4.4830      2.00000
     38      -4.4830      2.00000
     39      -4.4615      2.00000
     40      -4.3417      2.00000
     41      -4.3417      2.00000
     42      -4.2853      2.00000
     43      -4.2709      2.00000
     44      -4.2709      2.00000
     45      -4.2524      2.00000
     46      -4.2523      2.00000
     47      -4.2391      2.00000
     48      -4.2391      2.00000
     49      -4.2295      2.00000
     50      -4.2182      2.00000
     51      -4.2182      2.00000
     52      -4.1625      2.00000
     53      -4.0963      2.00000
     54      -4.0927      2.00000
     55      -4.0682      2.00000
     56      -4.0386      2.00000
     57      -4.0386      2.00000
     58      -3.8839      2.00000
     59      -3.8668      2.00000
     60      -3.8668      2.00000
     61      -3.8615      2.00000
     62      -3.8537      2.00000
     63      -3.8429      2.00000
     64      -3.8428      2.00000
     65      -3.8255      2.00000
     66      -3.8255      2.00000
     67      -3.8079      2.00000
     68      -3.8033      2.00000
     69      -3.8033      2.00000
     70      -3.7065      2.00000
     71      -3.7065      2.00000
     72      -3.6907      2.00000
     73      -3.6841      2.00000
     74      -3.6841      2.00000
     75      -3.6781      2.00000
     76      -3.6703      2.00000
     77      -3.6702      2.00000
     78      -3.6527      2.00000
     79      -3.6476      2.00000
     80      -3.6476      2.00000
     81      -3.6206      2.00000
     82      -3.6206      2.00000
     83      -3.6095      2.00000
     84      -3.6062      2.00000
     85      -3.6062      2.00000
     86      -3.5968      2.00000
     87      -3.5424      2.00000
     88      -3.5424      2.00000
     89      -3.4755      2.00000
     90      -3.4685      2.00000
     91      -3.4685      2.00000
     92      -3.4467      2.00000
     93      -3.4467      2.00000
     94      -3.4228      2.00000
     95      -3.4228      2.00000
     96      -3.3946      2.00000
     97      -3.3945      2.00000
     98      -3.3678      2.00000
     99      -3.3678      2.00000
    100      -3.3427      2.00000
    101      -3.1602      2.00000
    102      -3.1602      2.00000
    103      -3.1588      2.00000
    104      -3.1428      2.00000
    105      -3.1428      2.00000
    106      -3.1389      2.00000
    107      -3.1388      2.00000
    108      -3.1170      2.00000
    109      -3.0855      2.00000
    110      -3.0674      2.00000
    111      -3.0674      2.00000
    112      -3.0612      2.00000
    113      -3.0612      2.00000
    114      -3.0329      2.00000
    115      -3.0275      2.00000
    116      -2.9238      2.00000
    117      -2.9238      2.00000
    118      -2.9113      2.00000
    119      -2.8838      2.00000
    120      -2.8838      2.00000
    121      -2.8560      2.00000
    122      -2.8560      2.00000
    123      -2.8212      2.00000
    124      -2.8212      2.00000
    125      -2.7934      2.00000
    126      -2.7745      2.00000
    127      -2.7745      2.00000
    128      -2.7639      2.00000
    129      -2.7611      2.00000
    130      -2.7611      2.00000
    131      -2.7540      2.00000
    132      -2.7540      2.00000
    133      -2.7489      2.00000
    134      -2.7426      2.00000
    135      -2.7110      2.00000
    136      -2.7110      2.00000
    137      -2.5786      2.00000
    138      -2.5786      2.00000
    139      -2.5677      2.00000
    140      -2.5677      2.00000
    141      -2.5661      2.00000
    142      -2.5614      2.00000
    143      -2.5482      2.00000
    144      -2.5482      2.00000
    145      -2.5413      2.00000
    146      -2.5413      2.00000
    147      -2.5271      2.00000
    148      -2.5181      2.00000
    149      -2.5180      2.00000
    150      -2.5180      2.00000
    151      -2.4736      2.00000
    152      -2.4590      2.00000
    153      -2.4505      2.00000
    154      -2.4473      2.00000
    155      -2.4473      2.00000
    156      -2.4327      2.00000
    157      -2.4327      2.00000
    158      -2.4100      2.00000
    159      -2.3907      2.00000
    160      -2.3907      2.00000
    161      -2.3676      2.00000
    162      -2.3661      2.00000
    163      -2.3661      2.00000
    164      -2.3567      2.00000
    165      -2.3539      2.00000
    166      -2.3464      2.00000
    167      -2.3464      2.00000
    168      -2.3401      2.00000
    169      -2.3068      2.00000
    170      -2.3068      2.00000
    171      -2.3065      2.00000
    172      -2.2908      2.00000
    173      -2.2908      2.00000
    174      -2.2801      2.00000
    175      -2.2526      2.00000
    176      -2.2526      2.00000
    177      -2.1874      2.00000
    178      -2.1874      2.00000
    179      -2.1630      2.00000
    180      -2.1575      2.00000
    181      -2.1575      2.00000
    182      -2.1371      2.00000
    183      -2.0766      2.00000
    184      -2.0515      2.00000
    185      -2.0515      2.00000
    186      -2.0249      2.00000
    187      -2.0066      2.00000
    188      -2.0066      2.00000
    189      -1.2971      2.00000
    190      -1.2971      2.00000
    191      -1.2723      2.00000
    192      -1.2344      2.00000
    193      -1.2344      2.00000
    194      -1.1430      2.00000
    195      -0.0233      2.00000
    196       0.2643      2.00000
    197       0.3768      2.00000
    198       0.3768      2.00000
    199       0.4621      2.00000
    200       0.5348      2.00000
    201       0.5348      2.79367
    202       0.8160      0.00000
    203       0.8160      0.00000
    204       1.2433      0.00000
    205       1.6278      0.00000
    206       1.6278      0.00000
    207       2.0288      0.00000
    208       2.6744      0.00000
    209       2.7115      0.00000
    210       2.7115      0.00000
    211       2.8179      0.00000
    212       2.8180      0.00000
    213       4.0349      0.00000
    214       4.0529      0.00000
    215       4.1081      0.00000
    216       4.2402      0.00000
    217       4.2402      0.00000
    218       4.2758      0.00000
    219       4.2758      0.00000
    220       5.0028      0.00000
    221       5.0029      0.00000
    222       5.0233      0.00000
    223       5.0416      0.00000
    224       5.0745      0.00000
    225       5.0745      0.00000
    226       5.0930      0.00000
    227       5.0930      0.00000
    228       5.2384      0.00000
    229       5.2566      0.00000
    230       5.2566      0.00000
    231       5.3306      0.00000
    232       5.3357      0.00000
    233       5.7458      0.00000
    234       6.4471      0.00000
    235       6.6354      0.00000
    236       6.6354      0.00000
    237       6.7424      0.00000
    238       6.7961      0.00000
    239       6.7961      0.00000
    240       6.8325      0.00000
    241       7.0320      0.00000
    242       7.0321      0.00000
    243       7.0389      0.00000
    244       7.0871      0.00000
    245       7.0875      0.00000
    246       7.1401      0.00000
    247       7.2267      0.00000
    248       7.3256      0.00000
    249       7.3318      0.00000
    250       7.3568      0.00000
    251       7.3798      0.00000
    252       7.4065      0.00000

 k-point     2 :       0.1250   -0.0000    0.0000
  band No.  band energies     occupation 
      1     -17.7148      2.00000
      2      -6.2864      2.00000
      3      -5.4268      2.00000
      4      -5.1393      2.00000
      5      -5.1285      2.00000
      6      -5.1061      2.00000
      7      -5.0682      2.00000
      8      -5.0561      2.00000
      9      -5.0503      2.00000
     10      -5.0394      2.00000
     11      -5.0271      2.00000
     12      -5.0129      2.00000
     13      -5.0033      2.00000
     14      -4.9577      2.00000
     15      -4.9475      2.00000
     16      -4.9384      2.00000
     17      -4.9336      2.00000
     18      -4.9203      2.00000
     19      -4.8956      2.00000
     20      -4.8894      2.00000
     21      -4.7928      2.00000
     22      -4.7756      2.00000
     23      -4.7363      2.00000
     24      -4.7199      2.00000
     25      -4.7101      2.00000
     26      -4.7019      2.00000
     27      -4.6549      2.00000
     28      -4.6430      2.00000
     29      -4.6126      2.00000
     30      -4.6121      2.00000
     31      -4.5793      2.00000
     32      -4.5664      2.00000
     33      -4.5580      2.00000
     34      -4.5338      2.00000
     35      -4.5049      2.00000
     36      -4.5042      2.00000
     37      -4.4822      2.00000
     38      -4.4598      2.00000
     39      -4.4163      2.00000
     40      -4.3505      2.00000
     41      -4.3436      2.00000
     42      -4.3298      2.00000
     43      -4.3267      2.00000
     44      -4.3085      2.00000
     45      -4.2930      2.00000
     46      -4.2762      2.00000
     47      -4.2687      2.00000
     48      -4.2639      2.00000
     49      -4.2091      2.00000
     50      -4.2062      2.00000
     51      -4.1664      2.00000
     52      -4.1453      2.00000
     53      -4.0826      2.00000
     54      -4.0660      2.00000
     55      -4.0563      2.00000
     56      -4.0366      2.00000
     57      -4.0238      2.00000
     58      -3.9105      2.00000
     59      -3.8838      2.00000
     60      -3.8741      2.00000
     61      -3.8716      2.00000
     62      -3.8536      2.00000
     63      -3.8518      2.00000
     64      -3.8464      2.00000
     65      -3.8395      2.00000
     66      -3.8356      2.00000
     67      -3.8229      2.00000
     68      -3.8058      2.00000
     69      -3.7852      2.00000
     70      -3.7447      2.00000
     71      -3.7139      2.00000
     72      -3.7129      2.00000
     73      -3.7061      2.00000
     74      -3.6927      2.00000
     75      -3.6798      2.00000
     76      -3.6795      2.00000
     77      -3.6692      2.00000
     78      -3.6588      2.00000
     79      -3.6435      2.00000
     80      -3.6367      2.00000
     81      -3.6317      2.00000
     82      -3.6266      2.00000
     83      -3.6194      2.00000
     84      -3.5922      2.00000
     85      -3.5841      2.00000
     86      -3.5788      2.00000
     87      -3.5625      2.00000
     88      -3.5475      2.00000
     89      -3.5410      2.00000
     90      -3.5317      2.00000
     91      -3.5204      2.00000
     92      -3.4681      2.00000
     93      -3.4679      2.00000
     94      -3.4292      2.00000
     95      -3.4223      2.00000
     96      -3.3881      2.00000
     97      -3.3723      2.00000
     98      -3.2918      2.00000
     99      -3.2655      2.00000
    100      -3.2646      2.00000
    101      -3.2235      2.00000
    102      -3.2223      2.00000
    103      -3.1891      2.00000
    104      -3.1866      2.00000
    105      -3.1680      2.00000
    106      -3.1566      2.00000
    107      -3.1447      2.00000
    108      -3.1328      2.00000
    109      -3.1283      2.00000
    110      -3.0893      2.00000
    111      -3.0811      2.00000
    112      -3.0633      2.00000
    113      -3.0453      2.00000
    114      -3.0175      2.00000
    115      -3.0089      2.00000
    116      -2.9682      2.00000
    117      -2.9566      2.00000
    118      -2.9401      2.00000
    119      -2.9269      2.00000
    120      -2.9168      2.00000
    121      -2.8941      2.00000
    122      -2.8808      2.00000
    123      -2.8495      2.00000
    124      -2.8460      2.00000
    125      -2.8402      2.00000
    126      -2.8373      2.00000
    127      -2.8272      2.00000
    128      -2.8091      2.00000
    129      -2.7997      2.00000
    130      -2.7897      2.00000
    131      -2.7695      2.00000
    132      -2.7461      2.00000
    133      -2.7436      2.00000
    134      -2.7285      2.00000
    135      -2.7254      2.00000
    136      -2.6953      2.00000
    137      -2.6923      2.00000
    138      -2.6839      2.00000
[...]
  0.000   0.000   0.000   0.000   0.000   0.000   0.000   0.000   0.000   0.000   0.000   0.000   0.000   0.000   0.000   0.000
  0.000   0.000   0.000   0.000   0.000   0.000   0.000   0.000   0.000   0.000   0.000   0.000   0.000   0.000   0.000   0.000
  0.000   0.000   0.000   0.000   0.000   0.000   0.000   0.000   0.000   0.000   0.000   0.000   0.000   0.000   0.000   0.000
  0.000   0.000   0.000   0.000   0.000   0.000   0.000   0.000   0.000   0.000   0.000   0.000   0.000   0.000   0.000   0.000
  0.000   0.000   0.000   0.000   0.000   0.000   0.000   0.000   0.000   0.000   0.000   0.000   0.000   0.000   0.000   0.000
  0.000   0.000   0.000   0.000   0.000   0.000   0.000   0.000   0.000   0.000   1.000   0.000   0.000   0.000   0.000   0.000
  0.000   0.000   0.000   0.000   0.000   0.000   0.000   0.000   0.000   0.000   0.000   0.000   0.000   0.000   0.000   0.000
  0.000   0.000   0.000   0.000   0.000   0.000   0.000   0.000   0.000   0.000   0.000   0.000   0.000   0.000   0.000   0.000
  0.000   0.000   0.000   0.000   0.000   0.000   0.000   0.000   0.000   0.000   0.000   0.000   0.000   0.000   0.000   0.000
  0.000   0.000   0.000   0.000   0.000   0.000   0.000   0.000   0.000   0.000   0.000   0.000   0.000   0.000   0.000   0.000
  0.000   0.000   0.000   0.000   0.000   0.000   0.000   0.000   0.000   0.000   0.000   0.000   0.000   0.000   0.000   0.000
  0.000   0.000   0.000   0.000   0.000   0.000   0.000   0.000   0.000   0.000   0.000   0.000   0.000   0.000   0.000   0.000
  0.000   0.000   0.000   0.000   0.000   0.000   0.000   0.000   0.000   0.000   0.000   0.000   0.000   0.000   0.000   0.000


------------------------ aborting loop because EDIFF is reached ----------------------------------------





 total charge

# of ion       s       p       d       tot
------------------------------------------
    1        0.420   0.200   9.178   9.798
    2        0.416   0.204   9.176   9.796
    3        0.416   0.204   9.176   9.796
    4        0.416   0.204   9.176   9.796
    5        0.419   0.202   9.177   9.797
    6        0.416   0.204   9.176   9.796
    7        0.416   0.204   9.176   9.796
    8        0.416   0.204   9.176   9.796
    9        0.413   0.204   9.177   9.794
   10        0.407   0.269   9.165   9.840
   11        0.403   0.272   9.166   9.841
   12        0.407   0.269   9.165   9.840
   13        0.403   0.272   9.166   9.841
   14        0.403   0.272   9.166   9.841
   15        0.403   0.270   9.165   9.838
   16        0.407   0.269   9.165   9.840
   17        0.403   0.270   9.165   9.838
   18        0.403   0.270   9.165   9.838
   19        0.403   0.264   9.168   9.835
   20        0.432   0.298   9.141   9.871
   21        0.432   0.298   9.141   9.871
   22        0.395   0.276   9.164   9.835
   23        0.432   0.298   9.141   9.871
   24        0.395   0.276   9.164   9.835
   25        0.403   0.264   9.168   9.835
   26        0.403   0.264   9.168   9.835
   27        0.395   0.276   9.164   9.835
   28        0.418   0.194   9.177   9.789
   29        0.413   0.208   9.177   9.798
   30        0.413   0.208   9.177   9.798
   31        0.413   0.208   9.177   9.798
   32        0.413   0.208   9.177   9.798
   33        0.413   0.208   9.177   9.798
   34        0.413   0.208   9.177   9.798
   35        0.413   0.198   9.177   9.788
   36        0.499   0.615   4.536   5.650
   37        1.611   3.277   0.000   4.888
--------------------------------------------------
tot         16.498  12.304 325.449 354.250
 
    CHARGE:  cpu time    0.3342: real time    0.3343
    FORLOC:  cpu time    0.0101: real time    0.0101
    FORNL :  cpu time    1.4782: real time    1.4789
    STRESS:  cpu time    4.4298: real time    4.4312
    FORCOR:  cpu time    0.0429: real time    0.0430
    FORHAR:  cpu time    0.0165: real time    0.0165
    OFIELD:  cpu time    0.0002: real time    0.0002

  FORCE on cell =-STRESS in cart. coord.  units (eV):
  Direction    XX          YY          ZZ          XY          YZ          ZX
  --------------------------------------------------------------------------------------
  Alpha Z   748.40451   748.40451   748.40451
  Ewald  120166.22048120166.22049************     0.00002    -0.00001     0.00003
  Hartree130403.58168130403.58168************     0.00001    -0.00000     0.00001
  E(xc)   -2084.61659 -2084.61658 -2090.06772    -0.00001     0.00000     0.00000
  Local  ************************261805.46692     0.00045    -0.00005    -0.00016
  n-local  -359.38521  -341.96453  -351.37141    10.58313    -0.44864     0.57295
  augment  3255.56813  3255.56831  3259.14925    -0.00016    -0.00000     0.00002
  Kinetic  4949.13240  4951.33256  4958.06906     3.88182     0.92696    -0.48575
  Fock        0.00000     0.00000     0.00000     0.00000     0.00000     0.00000
  -------------------------------------------------------------------------------------
  Total      -7.74909    -7.74909    -0.83717    -0.00000     0.00000     0.00000
  in kB      -8.36359    -8.36359    -0.90356    -0.00000     0.00000     0.00000
  external pressure =       -5.88 kB  Pullay stress =        0.00 kB


 VOLUME and BASIS-vectors are now :
 -----------------------------------------------------------------------------
  energy-cutoff  :      500.00
  volume of cell :     1484.46
      direct lattice vectors                 reciprocal lattice vectors
     8.791366577  0.000000000  0.000000000     0.113747958 -0.065672414  0.000000000
     4.395683289  7.613546790  0.000000000     0.000000000  0.131344829  0.000000000
     0.000000000  0.000000000 22.178121567     0.000000000  0.000000000  0.045089481

  length of vectors
     8.791366577  8.791366577 22.178121567     0.131344829  0.131344829  0.045089481


 FORCES acting on ions
    electron-ion (+dipol)            ewald-force                    non-local-force                 convergence-correction
 -----------------------------------------------------------------------------------------------
   0.459E-04 -.282E-04 0.250E+04   -.954E-04 0.593E-04 -.250E+04   0.469E-18 0.633E-18 -.187E+01   -.120E-03 -.176E-03 -.228E+00
   0.253E+00 0.243E+00 0.250E+04   -.260E+00 -.250E+00 -.250E+04   0.108E-01 0.714E-01 -.165E+01   0.942E-03 -.560E-01 -.241E+00
   -.253E+00 0.243E+00 0.250E+04   0.261E+00 -.250E+00 -.250E+04   -.108E-01 0.714E-01 -.165E+01   -.148E-02 -.542E-01 -.240E+00
   0.337E+00 0.978E-01 0.250E+04   -.346E+00 -.101E+00 -.250E+04   0.672E-01 -.263E-01 -.165E+01   -.478E-01 0.290E-01 -.241E+00
   -.577E-05 -.187E-04 0.250E+04   0.981E-04 -.200E-05 -.250E+04   -.247E-17 0.124E-17 -.155E+01   0.616E-02 0.377E-02 -.155E+00
   -.337E+00 0.978E-01 0.250E+04   0.346E+00 -.101E+00 -.250E+04   -.672E-01 -.263E-01 -.165E+01   0.465E-01 0.299E-01 -.240E+00
   0.837E-01 -.341E+00 0.250E+04   -.860E-01 0.350E+00 -.250E+04   0.564E-01 -.450E-01 -.165E+01   -.472E-01 0.264E-01 -.240E+00
   -.836E-01 -.341E+00 0.250E+04   0.860E-01 0.350E+00 -.250E+04   -.564E-01 -.450E-01 -.165E+01   0.488E-01 0.254E-01 -.240E+00
   0.361E-04 -.131E-04 0.250E+04   0.792E-04 -.643E-04 -.250E+04   -.262E-17 0.192E-17 -.174E+01   -.657E-02 -.338E-02 -.238E+00
   0.265E+01 0.153E+01 0.840E+03   -.230E+01 -.133E+01 -.839E+03   -.319E+00 -.184E+00 -.637E+00   -.258E-01 -.149E-01 -.538E-01
   -.288E-04 0.270E+01 0.844E+03   0.412E-04 -.298E+01 -.843E+03   0.120E-11 0.182E+00 -.484E+00   0.638E-02 0.615E-01 -.571E-01
   -.265E+01 0.153E+01 0.840E+03   0.230E+01 -.133E+01 -.839E+03   0.319E+00 -.184E+00 -.637E+00   0.243E-01 -.145E-01 -.545E-01
   0.233E+01 -.135E+01 0.844E+03   -.259E+01 0.149E+01 -.843E+03   0.158E+00 -.912E-01 -.484E+00   0.563E-01 -.252E-01 -.571E-01
   -.233E+01 -.135E+01 0.844E+03   0.259E+01 0.149E+01 -.843E+03   -.158E+00 -.912E-01 -.484E+00   -.463E-01 -.265E-01 -.595E-01
   0.157E-04 0.741E+00 0.841E+03   -.108E-03 -.859E+00 -.840E+03   0.302E-12 0.460E-01 -.657E+00   -.117E-02 0.499E-01 -.444E-01
   -.798E-05 -.305E+01 0.840E+03   0.207E-04 0.266E+01 -.839E+03   0.242E-11 0.368E+00 -.637E+00   -.454E-03 0.283E-01 -.545E-01
   0.642E+00 -.371E+00 0.841E+03   -.744E+00 0.429E+00 -.840E+03   0.398E-01 -.230E-01 -.657E+00   0.426E-01 -.260E-01 -.444E-01
   -.642E+00 -.371E+00 0.841E+03   0.744E+00 0.429E+00 -.840E+03   -.398E-01 -.230E-01 -.657E+00   -.421E-01 -.243E-01 -.427E-01
   0.397E-04 -.997E+00 -.845E+03   -.127E-03 0.105E+01 0.844E+03   0.107E-12 0.162E-01 0.803E+00   0.941E-03 -.621E-01 0.361E+00
   0.205E+01 0.119E+01 -.832E+03   -.122E+01 -.705E+00 0.833E+03   -.980E+00 -.566E+00 -.586E+00   0.394E-01 0.228E-01 0.345E+00
   -.205E+01 0.119E+01 -.832E+03   0.122E+01 -.705E+00 0.833E+03   0.980E+00 -.566E+00 -.586E+00   -.505E-01 0.208E-01 0.345E+00
   0.255E+00 -.148E+00 -.838E+03   -.399E+00 0.231E+00 0.837E+03   0.230E+00 -.133E+00 0.619E+00   -.428E-01 0.322E-01 0.233E+00
   -.553E-04 -.237E+01 -.832E+03   0.410E-04 0.141E+01 0.833E+03   0.743E-11 0.113E+01 -.586E+00   -.688E-02 -.534E-01 0.345E+00
   -.256E+00 -.147E+00 -.838E+03   0.399E+00 0.230E+00 0.837E+03   -.230E+00 -.133E+00 0.619E+00   0.552E-01 0.320E-01 0.233E+00
   0.864E+00 0.499E+00 -.845E+03   -.906E+00 -.523E+00 0.844E+03   -.141E-01 -.812E-02 0.803E+00   0.522E-01 0.300E-01 0.361E+00
   -.864E+00 0.499E+00 -.845E+03   0.906E+00 -.523E+00 0.844E+03   0.141E-01 -.812E-02 0.803E+00   -.536E-01 0.317E-01 0.361E+00
   0.207E-04 0.295E+00 -.838E+03   0.110E-03 -.461E+00 0.837E+03   0.174E-11 0.266E+00 0.619E+00   0.576E-02 -.532E-01 0.233E+00
   0.541E-04 -.366E-04 -.248E+04   -.114E-03 0.775E-04 0.248E+04   0.116E-17 0.604E-17 0.183E+01   0.407E-04 -.111E-03 0.328E+00
   0.171E+02 0.267E+02 -.247E+04   -.166E+02 -.262E+02 0.246E+04   -.490E+00 -.592E+00 0.232E+01   -.107E+00 -.454E-01 0.297E+00
   -.171E+02 0.267E+02 -.247E+04   0.166E+02 -.262E+02 0.246E+04   0.490E+00 -.592E+00 0.232E+01   0.106E+00 -.446E-01 0.297E+00
   0.316E+02 0.142E+01 -.247E+04   -.310E+02 -.123E+01 0.246E+04   -.758E+00 -.128E+00 0.232E+01   -.925E-01 -.696E-01 0.297E+00
   -.316E+02 0.142E+01 -.247E+04   0.310E+02 -.123E+01 0.246E+04   0.758E+00 -.128E+00 0.232E+01   0.923E-01 -.690E-01 0.299E+00
   0.146E+02 -.281E+02 -.247E+04   -.144E+02 0.275E+02 0.246E+04   -.268E+00 0.720E+00 0.232E+01   0.148E-01 0.115E+00 0.297E+00
   -.146E+02 -.281E+02 -.247E+04   0.144E+02 0.275E+02 0.246E+04   0.268E+00 0.720E+00 0.232E+01   -.140E-01 0.115E+00 0.298E+00
   0.233E-04 -.128E-04 -.248E+04   0.106E-03 -.657E-04 0.248E+04   -.959E-18 -.149E-19 0.193E+01   -.604E-02 -.306E-02 0.294E+00
   -.146E-04 -.750E-05 -.112E+04   0.576E-04 0.774E-05 0.112E+04   -.764E-18 -.175E-17 -.447E+00   0.146E-02 0.901E-03 0.446E-01
   0.177E-03 -.969E-04 -.164E+04   0.328E-04 0.566E-06 0.166E+04   0.204E-17 -.455E-18 -.281E+02   0.343E-02 0.211E-02 -.739E-01
 -----------------------------------------------------------------------------------------------
   0.541E-03 -.781E-03 0.261E+02   -.125E-12 -.390E-13 -.136E-11   0.333E-15 -.113E-15 -.288E+02   0.117E-01 0.101E-01 0.266E+01
 
 
 POSITION                                       TOTAL-FORCE (eV/Angst)
 -----------------------------------------------------------------------------------
      0.00000      0.00000      5.28219        -0.000000     -0.000000     -0.012954
      2.93046      0.00000      5.28219         0.005045      0.009408      0.042739
      5.86091      0.00000      5.28219        -0.005045      0.009408      0.042739
      1.46523      2.53785      5.28219         0.010670     -0.000335      0.042739
      4.39568      2.53785      5.28219        -0.000000     -0.000000      0.008357
      7.32614      2.53785      5.28219        -0.010670     -0.000335      0.042739
      2.93046      5.07570      5.28219         0.005625     -0.009073      0.042739
      5.86091      5.07570      5.28219        -0.005625     -0.009073      0.042739
      8.79137      5.07570      5.28219        -0.000000     -0.000000      0.033082
      1.46523      0.84595      7.67490         0.000893      0.000516     -0.008077
      4.39568      0.84595      7.67490        -0.000000     -0.047723     -0.038960
      7.32614      0.84595      7.67490        -0.000893      0.000516     -0.008077
      2.93046      3.38380      7.67490        -0.041330      0.023862     -0.038960
      5.86091      3.38380      7.67490         0.041330      0.023862     -0.038960
      8.79137      3.38380      7.67490        -0.000000     -0.021711      0.018220
      4.39568      5.92165      7.67490        -0.000000     -0.001032     -0.008077
      7.32614      5.92165      7.67490        -0.018802      0.010855      0.018220
     10.25659      5.92165      7.67490         0.018802      0.010855      0.018220
      8.79137      1.69374     10.05841         0.000000      0.004045      0.018496
      2.93927      1.69699     10.03909        -0.102892     -0.059405     -0.075104
      5.85210      1.69699     10.03909         0.102892     -0.059405     -0.075104
     10.25385      4.23133     10.05420         0.037030     -0.021380      0.021919
      4.39568      4.21957     10.03909         0.000000      0.118809     -0.075104
      7.32888      4.23133     10.05420        -0.037030     -0.021380      0.021919
     11.72023      6.76668     10.05841        -0.003503     -0.002022      0.018496
      5.86251      6.76668     10.05841         0.003503     -0.002022      0.018496
      8.79137      6.76443     10.05420         0.000000      0.042759      0.021919
      0.00000      0.00000     12.42643        -0.000000     -0.000000     -0.001757
      2.96234      0.05459     12.44639        -0.105131     -0.174514     -0.167608
      5.82903      0.05459     12.44639         0.105131     -0.174514     -0.167608
      1.52844      2.53816     12.44639        -0.203699     -0.003790     -0.167608
      7.26292      2.53816     12.44639         0.203699     -0.003790     -0.167608
      2.96179      5.02079     12.44639        -0.098567      0.178303     -0.167608
      5.82958      5.02079     12.44639         0.098567      0.178303     -0.167608
      8.79137      5.07570     12.42906        -0.000000      0.000000      0.003480
      4.39568      2.53785     12.18689        -0.000000      0.000000      0.922953
      4.39568      2.53785     13.79337        -0.000000     -0.000000     -0.013429
 -----------------------------------------------------------------------------------
    total drift:                                0.012203      0.009290     -0.070113


--------------------------------------------------------------------------------------------------------



  FREE ENERGIE OF THE ION-ELECTRON SYSTEM (eV)
  ---------------------------------------------------
  free  energy   TOTEN  =      -103.65121830 eV

  energy  without entropy=     -103.65121830  energy(sigma->0) =     -103.65121830
 


--------------------------------------------------------------------------------------------------------


    POTLOK:  cpu time    0.0447: real time    0.0447


--------------------------------------------------------------------------------------------------------


 stress matrix after NEB project (eV)
     -7.74909     -0.00000      0.00000
     -0.00000     -7.74909     -0.00000
     -0.00000      0.00000     -0.83717
  FORCES: max atom, RMS     0.013429    0.002208
  FORCE total and by dimension    0.013429    0.013429
  Stress total and by dimension   10.990793    7.749086
     LOOP+:  cpu time   75.5438: real time   75.5774
 -----------------------------------------------------------------------------
|                                                                             |
|           W    W    AA    RRRRR   N    N  II  N    N   GGGG   !!!           |
|           W    W   A  A   R    R  NN   N  II  NN   N  G    G  !!!           |
|           W    W  A    A  R    R  N N  N  II  N N  N  G       !!!           |
|           W WW W  AAAAAA  RRRRR   N  N N  II  N  N N  G  GGG   !            |
|           WW  WW  A    A  R   R   N   NN  II  N   NN  G    G                |
|           W    W  A    A  R    R  N    N  II  N    N   GGGG   !!!           |
|                                                                             |
|     Tetrahedron method does not include variations of the Fermi             |
|     occupations, so forces and stress will be inaccurate. We suggest        |
|     using a different smearing scheme ISMEAR = 1 or 2 for metals in         |
|     relaxations.                                                            |
|                                                                             |
 -----------------------------------------------------------------------------

    4ORBIT:  cpu time    0.0000: real time    0.0000



 total charge

# of ion       s       p       d       tot
------------------------------------------
    1        0.420   0.200   9.178   9.798
    2        0.416   0.204   9.176   9.796
    3        0.416   0.204   9.176   9.796
    4        0.416   0.204   9.176   9.796
    5        0.419   0.202   9.177   9.797
    6        0.416   0.204   9.176   9.796
    7        0.416   0.204   9.176   9.796
    8        0.416   0.204   9.176   9.796
    9        0.413   0.204   9.177   9.794
   10        0.407   0.269   9.165   9.840
   11        0.403   0.272   9.166   9.841
   12        0.407   0.269   9.165   9.840
   13        0.403   0.272   9.166   9.841
   14        0.403   0.272   9.166   9.841
   15        0.403   0.270   9.165   9.838
   16        0.407   0.269   9.165   9.840
   17        0.403   0.270   9.165   9.838
   18        0.403   0.270   9.165   9.838
   19        0.403   0.264   9.168   9.835
   20        0.432   0.298   9.141   9.871
   21        0.432   0.298   9.141   9.871
   22        0.395   0.276   9.164   9.835
   23        0.432   0.298   9.141   9.871
   24        0.395   0.276   9.164   9.835
   25        0.403   0.264   9.168   9.835
   26        0.403   0.264   9.168   9.835
   27        0.395   0.276   9.164   9.835
   28        0.418   0.194   9.177   9.789
   29        0.413   0.208   9.177   9.798
   30        0.413   0.208   9.177   9.798
   31        0.413   0.208   9.177   9.798
   32        0.413   0.208   9.177   9.798
   33        0.413   0.208   9.177   9.798
   34        0.413   0.208   9.177   9.798
   35        0.413   0.198   9.177   9.788
   36        0.499   0.615   4.536   5.650
   37        1.611   3.277   0.000   4.888
--------------------------------------------------
tot         16.498  12.304 325.449 354.250
 
 BZINTS: Fermi energy:    0.780734;  397.000000 electrons
         Band energy:-0.133156E+04;  BLOECHL correction:   -0.029293

 total amount of memory used by VASP MPI-rank0   122929. kBytes
=======================================================================

   base      :      30000. kBytes
   nonlr-proj:      14826. kBytes
   fftplans  :       4330. kBytes
   grid      :      17879. kBytes
   one-center:        575. kBytes
   wavefun   :      55319. kBytes
 
  
  
 General timing and accounting informations for this job:
 ========================================================
  
                  Total CPU time used (sec):       82.853
                            User time (sec):       79.885
                          System time (sec):        2.968
                         Elapsed time (sec):       83.204
  
                   Maximum memory used (kb):      382500.
                   Average memory used (kb):          N/A
  
                          Minor page faults:        81620
                          Major page faults:            0
                 Voluntary context switches:        10486
