PROCAR new format
# of k-points:   10         # of bands:  252         # of ions:   37

 k-point     1 :    0.00000000 0.00000000 0.00000000     weight = 0.01562500

band     1 # energy  -17.71485083 # occ.  2.00000000
 
ion      s      p      d    tot
    1  0.000  0.000  0.000  0.000
    2  0.000  0.000  0.000  0.000
    3  0.000  0.000  0.000  0.000
    4  0.000  0.000  0.000  0.000
    5  0.000  0.000  0.000  0.000
    6  0.000  0.000  0.000  0.000
    7  0.000  0.000  0.000  0.000
    8  0.000  0.000  0.000  0.000
    9  0.000  0.000  0.000  0.000
   10  0.000  0.000  0.000  0.000
   11  0.000  0.000  0.000  0.000
   12  0.000  0.000  0.000  0.000
   13  0.000  0.000  0.000  0.000
   14  0.000  0.000  0.000  0.000
   15  0.000  0.000  0.000  0.000
   16  0.000  0.000  0.000  0.000
   17  0.000  0.000  0.000  0.000
   18  0.000  0.000  0.000  0.000
   19  0.000  0.000  0.000  0.000
   20  0.000  0.000  0.000  0.000
   21  0.000  0.000  0.000  0.000
   22  0.000  0.000  0.000  0.000
   23  0.000  0.000  0.000  0.000
   24  0.000  0.000  0.000  0.000
   25  0.000  0.000  0.000  0.000
   26  0.000  0.000  0.000  0.000
   27  0.000  0.000  0.000  0.000
   28  0.000  0.000  0.000  0.000
   29  0.000  0.000  0.000  0.000
   30  0.000  0.000  0.000  0.000
   31  0.000  0.000  0.000  0.000
   32  0.000  0.000  0.000  0.000
   33  0.000  0.000  0.000  0.000
   34  0.000  0.000  0.000  0.000
   35  0.000  0.000  0.000  0.000
   36  0.050  0.072  0.094  0.217
   37  0.781  0.010  0.000  0.791
tot    0.831  0.083  0.094  1.008
 
band     2 # energy   -6.33218153 # occ.  2.00000000
 
ion      s      p      d    tot
    1  0.006  0.001  0.000  0.007
    2  0.006  0.001  0.000  0.006
    3  0.006  0.001  0.000  0.006
    4  0.006  0.001  0.000  0.006
    5  0.006  0.001  0.000  0.006
    6  0.006  0.001  0.000  0.006
    7  0.006  0.001  0.000  0.006
    8  0.006  0.001  0.000  0.006
    9  0.006  0.001  0.000  0.006
   10  0.023  0.000  0.000  0.024
   11  0.024  0.000  0.000  0.024
   12  0.023  0.000  0.000  0.024
   13  0.024  0.000  0.000  0.024
   14  0.024  0.000  0.000  0.024
   15  0.023  0.000  0.000  0.023
   16  0.023  0.000  0.000  0.024
   17  0.023  0.000  0.000  0.023
   18  0.023  0.000  0.000  0.023
   19  0.022  0.000  0.000  0.023
   20  0.026  0.000  0.001  0.026
   21  0.026  0.000  0.001  0.026
   22  0.022  0.000  0.000  0.023
   23  0.026  0.000  0.001  0.026
   24  0.022  0.000  0.000  0.023
   25  0.022  0.000  0.000  0.023
   26  0.022  0.000  0.000  0.023
   27  0.022  0.000  0.000  0.023
   28  0.005  0.001  0.000  0.006
   29  0.005  0.001  0.000  0.006
   30  0.005  0.001  0.000  0.006
   31  0.005  0.001  0.000  0.006
   32  0.005  0.001  0.000  0.006
   33  0.005  0.001  0.000  0.006
   34  0.005  0.001  0.000  0.006
   35  0.005  0.001  0.000  0.006
   36  0.007  0.001  0.000  0.008
   37  0.000  0.001  0.000  0.001
tot    0.524  0.014  0.007  0.545
 
band     3 # energy   -5.46591116 # occ.  2.00000000
 
ion      s      p      d    tot
    1  0.007  0.000  0.000  0.008
    2  0.008  0.000  0.000  0.008
    3  0.008  0.000  0.000  0.008
    4  0.008  0.000  0.000  0.008
    5  0.008  0.000  0.000  0.008
    6  0.008  0.000  0.000  0.008
    7  0.008  0.000  0.000  0.008
    8  0.008  0.000  0.000  0.008
    9  0.008  0.000  0.000  0.009
   10  0.011  0.001  0.017  0.029
   11  0.011  0.001  0.015  0.027
   12  0.011  0.001  0.017  0.029
   13  0.011  0.001  0.015  0.027
   14  0.011  0.001  0.015  0.027
   15  0.011  0.001  0.013  0.026
   16  0.011  0.001  0.017  0.029
   17  0.011  0.001  0.013  0.026
   18  0.011  0.001  0.013  0.026
   19  0.011  0.001  0.018  0.030
   20  0.015  0.001  0.024  0.040
   21  0.015  0.001  0.024  0.040
   22  0.010  0.001  0.016  0.027
   23  0.015  0.001  0.024  0.040
   24  0.010  0.001  0.016  0.027
   25  0.011  0.001  0.018  0.030
   26  0.011  0.001  0.018  0.030
   27  0.010  0.001  0.016  0.027
   28  0.006  0.000  0.000  0.006
   29  0.005  0.000  0.000  0.006
   30  0.005  0.000  0.000  0.006
   31  0.005  0.000  0.000  0.006
   32  0.005  0.000  0.000  0.006
   33  0.005  0.000  0.000  0.006
   34  0.005  0.000  0.000  0.006
   35  0.005  0.000  0.000  0.005
   36  0.008  0.001  0.001  0.010
   37  0.001  0.003  0.000  0.003
tot    0.326  0.027  0.315  0.668
 
band     4 # energy   -5.16395460 # occ.  2.00000000
 
ion      s      p      d    tot
    1  0.014  0.000  0.029  0.043
    2  0.016  0.000  0.025  0.041
    3  0.016  0.000  0.025  0.041
    4  0.016  0.000  0.025  0.041
    5  0.016  0.000  0.024  0.040
    6  0.016  0.000  0.025  0.041
    7  0.016  0.000  0.025  0.041
    8  0.016  0.000  0.025  0.041
    9  0.017  0.000  0.023  0.041
   10  0.001  0.001  0.020  0.021
   11  0.001  0.001  0.023  0.024
   12  0.001  0.001  0.020  0.021
   13  0.001  0.001  0.023  0.024
   14  0.001  0.001  0.023  0.024
   15  0.000  0.000  0.021  0.021
   16  0.001  0.001  0.020  0.021
   17  0.000  0.000  0.021  0.021
   18  0.000  0.000  0.021  0.021
   19  0.000  0.000  0.007  0.007
   20  0.000  0.000  0.013  0.014
   21  0.000  0.000  0.013  0.014
   22  0.000  0.000  0.009  0.010
   23  0.000  0.000  0.013  0.014
   24  0.000  0.000  0.009  0.010
   25  0.000  0.000  0.007  0.007
   26  0.000  0.000  0.007  0.007
   27  0.000  0.000  0.009  0.010
   28  0.005  0.000  0.007  0.012
   29  0.005  0.000  0.006  0.012
   30  0.005  0.000  0.006  0.012
   31  0.005  0.000  0.006  0.012
   32  0.005  0.000  0.006  0.012
   33  0.005  0.000  0.006  0.012
   34  0.005  0.000  0.006  0.012
   35  0.005  0.000  0.007  0.012
   36  0.006  0.000  0.001  0.007
   37  0.000  0.000  0.000  0.001
tot    0.198  0.007  0.556  0.761
 
band     5 # energy   -5.12785602 # occ.  2.00000000
 
ion      s      p      d    tot
    1  0.008  0.001  0.000  0.009
    2  0.000  0.000  0.004  0.005
    3  0.000  0.000  0.004  0.005
    4  0.000  0.000  0.004  0.005
    5  0.000  0.000  0.001  0.002
    6  0.000  0.000  0.004  0.005
    7  0.000  0.000  0.004  0.005
    8  0.000  0.000  0.004  0.005
    9  0.000  0.000  0.001  0.002
   10  0.005  0.000  0.026  0.031
   11  0.000  0.000  0.014  0.015
   12  0.005  0.000  0.026  0.031
   13  0.000  0.000  0.014  0.015
   14  0.000  0.000  0.014  0.015
   15  0.004  0.001  0.003  0.008
   16  0.005  0.000  0.026  0.031
   17  0.004  0.001  0.003  0.008
   18  0.004  0.001  0.003  0.008
   19  0.000  0.001  0.037  0.037
   20  0.006  0.000  0.111  0.118
   21  0.006  0.000  0.111  0.118
   22  0.016  0.001  0.005  0.022
   23  0.006  0.000  0.111  0.118
   24  0.016  0.001  0.005  0.022
   25  0.000  0.001  0.037  0.037
   26  0.000  0.001  0.037  0.037
   27  0.016  0.001  0.005  0.022
   28  0.001  0.000  0.001  0.002
   29  0.000  0.000  0.004  0.004
   30  0.000  0.000  0.004  0.004
   31  0.000  0.000  0.004  0.004
   32  0.000  0.000  0.004  0.004
   33  0.000  0.000  0.004  0.004
   34  0.000  0.000  0.004  0.004
   35  0.006  0.001  0.001  0.009
   36  0.011  0.002  0.021  0.034
   37  0.001  0.017  0.000  0.019
tot    0.128  0.031  0.662  0.821
 
band     6 # energy   -5.06202478 # occ.  2.00000000
 
ion      s      p      d    tot
    1  0.000  0.000  0.008  0.008
    2  0.000  0.000  0.002  0.003
    3  0.001  0.000  0.003  0.004
    4  0.000  0.000  0.002  0.003
    5  0.000  0.000  0.003  0.003
    6  0.000  0.000  0.003  0.003
    7  0.001  0.000  0.003  0.004
    8  0.000  0.000  0.003  0.003
    9  0.000  0.000  0.003  0.003
   10  0.000  0.001  0.020  0.021
   11  0.001  0.000  0.026  0.027
   12  0.009  0.001  0.019  0.029
   13  0.001  0.000  0.026  0.027
   14  0.000  0.001  0.025  0.026
   15  0.006  0.000  0.014  0.020
   16  0.010  0.001  0.019  0.029
   17  0.005  0.000  0.014  0.020
   18  0.000  0.000  0.032  0.032
   19  0.018  0.001  0.032  0.050
   20  0.000  0.000  0.148  0.148
   21  0.016  0.000  0.045  0.061
   22  0.000  0.001  0.035  0.035
   23  0.016  0.000  0.041  0.058
   24  0.000  0.001  0.040  0.041
   25  0.000  0.001  0.028  0.029
   26  0.017  0.001  0.032  0.050
   27  0.000  0.000  0.035  0.035
   28  0.000  0.000  0.005  0.005
   29  0.001  0.000  0.006  0.007
   30  0.000  0.000  0.002  0.003
   31  0.001  0.000  0.006  0.007
   32  0.001  0.001  0.005  0.006
   33  0.000  0.000  0.002  0.003
   34  0.001  0.001  0.005  0.006
   35  0.000  0.000  0.000  0.000
   36  0.000  0.000  0.004  0.005
   37  0.000  0.001  0.000  0.001
tot    0.104  0.015  0.695  0.814
 
band     7 # energy   -5.06200841 # occ.  2.00000000
 
ion      s      p      d    tot
    1  0.000  0.000  0.008  0.008
    2  0.001  0.000  0.003  0.004
    3  0.000  0.000  0.002  0.003
    4  0.001  0.000  0.003  0.004
    5  0.000  0.000  0.003  0.003
    6  0.001  0.000  0.002  0.004
    7  0.000  0.000  0.002  0.003
    8  0.001  0.000  0.002  0.004
    9  0.000  0.000  0.003  0.003
   10  0.013  0.001  0.018  0.032
   11  0.000  0.001  0.026  0.027
   12  0.003  0.001  0.019  0.024
   13  0.000  0.001  0.026  0.027
   14  0.001  0.000  0.027  0.028
   15  0.002  0.000  0.026  0.028
   16  0.003  0.001  0.020  0.023
   17  0.002  0.000  0.025  0.027
   18  0.007  0.001  0.008  0.016
   19  0.005  0.001  0.029  0.036
   20  0.022  0.001  0.008  0.030
   21  0.006  0.000  0.111  0.117
   22  0.000  0.001  0.038  0.039
   23  0.005  0.000  0.115  0.120
   24  0.000  0.000  0.033  0.034
   25  0.023  0.000  0.033  0.057
   26  0.006  0.001  0.029  0.037
   27  0.000  0.001  0.038  0.039
   28  0.000  0.000  0.005  0.005
   29  0.000  0.000  0.003  0.004
   30  0.001  0.001  0.006  0.008
   31  0.000  0.000  0.003  0.003
   32  0.000  0.000  0.004  0.004
   33  0.001  0.001  0.006  0.008
   34  0.000  0.000  0.004  0.004
   35  0.000  0.000  0.000  0.000
   36  0.000  0.000  0.004  0.005
   37  0.000  0.001  0.000  0.001
tot    0.104  0.015  0.695  0.814
 
band     8 # energy   -5.04869637 # occ.  2.00000000
 
ion      s      p      d    tot
    1  0.001  0.000  0.001  0.002
    2  0.000  0.000  0.005  0.006
    3  0.000  0.000  0.005  0.006
    4  0.000  0.000  0.005  0.006
    5  0.004  0.001  0.005  0.009
    6  0.000  0.000  0.005  0.006
    7  0.000  0.000  0.005  0.006
    8  0.000  0.000  0.005  0.006
    9  0.000  0.000  0.004  0.004
   10  0.009  0.001  0.004  0.014
   11  0.013  0.001  0.054  0.068
   12  0.009  0.001  0.004  0.014
   13  0.013  0.001  0.054  0.068
   14  0.013  0.001  0.054  0.068
   15  0.000  0.000  0.052  0.053
   16  0.009  0.001  0.004  0.014
   17  0.000  0.000  0.052  0.053
   18  0.000  0.000  0.053  0.054
   19  0.009  0.001  0.030  0.040
   20  0.005  0.001  0.022  0.029
   21  0.005  0.001  0.022  0.028
   22  0.000  0.000  0.038  0.038
   23  0.005  0.001  0.022  0.028
   24  0.000  0.000  0.038  0.038
   25  0.009  0.001  0.030  0.040
   26  0.009  0.001  0.030  0.040
   27  0.000  0.000  0.038  0.038
   28  0.002  0.001  0.004  0.007
   29  0.000  0.000  0.003  0.003
   30  0.000  0.000  0.003  0.003
   31  0.000  0.000  0.003  0.003
   32  0.000  0.000  0.003  0.003
   33  0.000  0.000  0.003  0.003
   34  0.000  0.000  0.003  0.003
   35  0.001  0.000  0.002  0.004
   36  0.000  0.000  0.000  0.000
   37  0.000  0.000  0.000  0.000
tot    0.120  0.017  0.667  0.804
 
band     9 # energy   -5.04750215 # occ.  2.00000000
 
ion      s      p      d    tot
    1  0.000  0.000  0.002  0.002
    2  0.000  0.000  0.003  0.003
    3  0.001  0.000  0.006  0.008
    4  0.000  0.000  0.003  0.003
    5  0.000  0.000  0.010  0.010
    6  0.001  0.001  0.004  0.006
    7  0.001  0.000  0.006  0.008
    8  0.001  0.001  0.004  0.006
    9  0.000  0.000  0.003  0.003
   10  0.004  0.000  0.018  0.022
   11  0.008  0.001  0.066  0.074
   12  0.001  0.000  0.060  0.062
   13  0.007  0.001  0.068  0.075
   14  0.030  0.001  0.009  0.040
   15  0.003  0.001  0.015  0.019
   16  0.001  0.000  0.059  0.061
   17  0.003  0.001  0.015  0.019
   18  0.011  0.000  0.036  0.048
   19  0.000  0.000  0.033  0.034
   20  0.011  0.000  0.035  0.047
   21  0.003  0.001  0.024  0.028
   22  0.005  0.000  0.040  0.045
   23  0.003  0.001  0.024  0.028
   24  0.019  0.001  0.007  0.027
   25  0.002  0.000  0.015  0.017
   26  0.000  0.000  0.033  0.034
   27  0.005  0.000  0.039  0.044
   28  0.000  0.000  0.001  0.001
   29  0.001  0.000  0.004  0.006
   30  0.000  0.000  0.002  0.003
   31  0.001  0.000  0.004  0.006
   32  0.001  0.000  0.002  0.003
   33  0.000  0.000  0.002  0.003
   34  0.001  0.000  0.002  0.003
   35  0.000  0.000  0.007  0.007
   36  0.000  0.000  0.001  0.001
   37  0.000  0.000  0.000  0.000
tot    0.125  0.017  0.661  0.803
 
band    10 # energy   -5.04749641 # occ.  2.00000000
 
ion      s      p      d    tot
    1  0.000  0.000  0.002  0.002
    2  0.002  0.001  0.006  0.008
    3  0.000  0.000  0.003  0.003
    4  0.002  0.001  0.006  0.008
    5  0.000  0.000  0.010  0.010
    6  0.000  0.000  0.004  0.005
    7  0.000  0.000  0.003  0.003
    8  0.000  0.000  0.004  0.005
    9  0.000  0.000  0.003  0.003
   10  0.000  0.000  0.074  0.074
   11  0.022  0.001  0.029  0.052
   12  0.003  0.000  0.031  0.035
   13  0.023  0.001  0.028  0.051
   14  0.000  0.000  0.086  0.086
   15  0.008  0.001  0.029  0.038
   16  0.003  0.000  0.032  0.035
   17  0.009  0.001  0.030  0.039
   18  0.000  0.002  0.007  0.009
   19  0.001  0.000  0.021  0.023
   20  0.000  0.001  0.020  0.022
   21  0.008  0.001  0.032  0.041
   22  0.014  0.001  0.017  0.033
   23  0.008  0.001  0.031  0.040
   24  0.000  0.000  0.050  0.050
   25  0.000  0.000  0.039  0.040
   26  0.001  0.000  0.021  0.022
   27  0.014  0.001  0.018  0.033
   28  0.000  0.000  0.001  0.001
   29  0.000  0.000  0.002  0.002
   30  0.001  0.000  0.003  0.005
   31  0.000  0.000  0.002  0.002
   32  0.001  0.000  0.004  0.005
   33  0.001  0.000  0.003  0.005
   34  0.001  0.000  0.003  0.005
   35  0.000  0.000  0.007  0.007
   36  0.000  0.000  0.001  0.001
   37  0.000  0.000  0.000  0.000
tot    0.125  0.017  0.661  0.803
 
band    11 # energy   -5.03253348 # occ.  2.00000000
 
ion      s      p      d    tot
    1  0.001  0.001  0.010  0.011
    2  0.000  0.000  0.008  0.008
    3  0.000  0.000  0.008  0.008
    4  0.000  0.000  0.008  0.008
    5  0.002  0.000  0.003  0.005
    6  0.000  0.000  0.008  0.008
    7  0.000  0.000  0.008  0.008
    8  0.000  0.000  0.008  0.008
    9  0.007  0.001  0.001  0.009
   10  0.002  0.000  0.048  0.050
   11  0.001  0.000  0.046  0.047
   12  0.002  0.000  0.048  0.050
   13  0.001  0.000  0.046  0.047
   14  0.001  0.000  0.046  0.047
   15  0.006  0.000  0.009  0.016
   16  0.002  0.000  0.048  0.050
   17  0.006  0.000  0.009  0.016
   18  0.006  0.000  0.009  0.016
   19  0.005  0.000  0.008  0.014
   20  0.003  0.000  0.047  0.049
   21  0.003  0.000  0.047  0.049
   22  0.001  0.000  0.045  0.047
   23  0.003  0.000  0.047  0.049
   24  0.001  0.000  0.045  0.047
   25  0.005  0.000  0.008  0.014
   26  0.005  0.000  0.008  0.014
   27  0.001  0.000  0.045  0.047
   28  0.007  0.001  0.000  0.009
   29  0.000  0.000  0.011  0.011
   30  0.000  0.000  0.011  0.011
   31  0.000  0.000  0.011  0.011
   32  0.000  0.000  0.011  0.011
   33  0.000  0.000  0.011  0.011
   34  0.000  0.000  0.011  0.011
   35  0.000  0.000  0.010  0.010
   36  0.005  0.000  0.000  0.005
   37  0.000  0.000  0.000  0.000
tot    0.078  0.009  0.747  0.835
 
band    12 # energy   -5.01488130 # occ.  2.00000000
 
ion      s      p      d    tot
    1  0.001  0.000  0.003  0.005
    2  0.000  0.000  0.007  0.008
    3  0.000  0.000  0.007  0.008
    4  0.000  0.000  0.007  0.008
    5  0.001  0.000  0.000  0.002
    6  0.000  0.000  0.007  0.008
    7  0.000  0.000  0.007  0.008
    8  0.000  0.000  0.007  0.008
    9  0.000  0.000  0.010  0.011
   10  0.000  0.000  0.062  0.062
   11  0.004  0.001  0.003  0.007
   12  0.000  0.000  0.061  0.061
   13  0.004  0.001  0.003  0.007
   14  0.003  0.001  0.003  0.007
   15  0.006  0.000  0.062  0.068
   16  0.000  0.000  0.061  0.061
   17  0.006  0.000  0.062  0.068
   18  0.006  0.000  0.062  0.068
   19  0.003  0.000  0.039  0.042
   20  0.001  0.001  0.018  0.020
   21  0.001  0.001  0.018  0.019
   22  0.000  0.000  0.045  0.046
   23  0.001  0.001  0.018  0.019
   24  0.000  0.000  0.045  0.046
   25  0.003  0.000  0.039  0.042
   26  0.003  0.000  0.039  0.042
   27  0.000  0.000  0.045  0.046
   28  0.000  0.000  0.005  0.005
   29  0.000  0.000  0.006  0.006
   30  0.000  0.000  0.006  0.006
   31  0.000  0.000  0.006  0.006
   32  0.000  0.000  0.006  0.006
   33  0.000  0.000  0.006  0.006
   34  0.000  0.000  0.006  0.006
   35  0.002  0.000  0.003  0.005
   36  0.001  0.000  0.003  0.005
   37  0.000  0.002  0.000  0.003
tot    0.044  0.010  0.793  0.848
 
band    13 # energy   -5.00953887 # occ.  2.00000000
 
ion      s      p      d    tot
    1  0.000  0.000  0.015  0.015
    2  0.001  0.001  0.010  0.012
    3  0.003  0.001  0.005  0.009
    4  0.001  0.001  0.010  0.012
    5  0.000  0.000  0.007  0.007
    6  0.000  0.000  0.009  0.010
    7  0.003  0.001  0.005  0.009
    8  0.001  0.000  0.009  0.009
    9  0.000  0.001  0.008  0.008
   10  0.017  0.000  0.030  0.047
   11  0.000  0.000  0.025  0.025
   12  0.004  0.000  0.053  0.058
   13  0.000  0.000  0.026  0.026
   14  0.000  0.000  0.045  0.045
   15  0.004  0.000  0.093  0.097
   16  0.004  0.000  0.054  0.059
   17  0.004  0.000  0.089  0.093
   18  0.015  0.000  0.004  0.020
   19  0.000  0.000  0.029  0.029
   20  0.003  0.000  0.010  0.013
   21  0.001  0.000  0.029  0.030
   22  0.001  0.000  0.019  0.020
   23  0.001  0.000  0.030  0.031
   24  0.002  0.000  0.024  0.026
   25  0.000  0.000  0.023  0.024
   26  0.000  0.000  0.029  0.029
   27  0.000  0.000  0.019  0.019
   28  0.000  0.000  0.012  0.012
   29  0.002  0.000  0.003  0.006
   30  0.000  0.000  0.004  0.005
   31  0.002  0.000  0.003  0.006
   32  0.002  0.000  0.004  0.006
   33  0.000  0.000  0.004  0.005
   34  0.002  0.000  0.004  0.006
   35  0.000  0.000  0.005  0.005
   36  0.000  0.000  0.000  0.001
   37  0.000  0.000  0.000  0.000
tot    0.073  0.010  0.752  0.834
 
band    14 # energy   -5.00952719 # occ.  2.00000000
 
ion      s      p      d    tot
    1  0.000  0.000  0.015  0.015
    2  0.002  0.000  0.006  0.008
    3  0.000  0.000  0.011  0.011
    4  0.002  0.000  0.006  0.008
    5  0.000  0.000  0.007  0.007
    6  0.003  0.001  0.007  0.011
    7  0.000  0.000  0.011  0.011
    8  0.003  0.001  0.007  0.011
    9  0.000  0.001  0.008  0.008
   10  0.000  0.000  0.062  0.062
   11  0.000  0.000  0.039  0.039
   12  0.012  0.000  0.039  0.051
   13  0.000  0.000  0.038  0.038
   14  0.000  0.001  0.019  0.019
   15  0.012  0.000  0.031  0.043
   16  0.013  0.000  0.038  0.051
   17  0.011  0.000  0.035  0.047
   18  0.000  0.000  0.120  0.120
   19  0.000  0.000  0.025  0.026
   20  0.000  0.000  0.036  0.036
   21  0.002  0.000  0.017  0.019
   22  0.001  0.000  0.022  0.024
   23  0.002  0.000  0.016  0.018
   24  0.000  0.000  0.017  0.017
   25  0.000  0.000  0.031  0.031
   26  0.000  0.000  0.025  0.026
   27  0.002  0.000  0.022  0.024
   28  0.000  0.000  0.012  0.012
   29  0.001  0.000  0.004  0.005
   30  0.003  0.000  0.003  0.007
   31  0.001  0.000  0.004  0.005
   32  0.001  0.000  0.004  0.005
   33  0.003  0.000  0.003  0.007
   34  0.001  0.000  0.004  0.005
   35  0.000  0.000  0.005  0.005
   36  0.000  0.000  0.000  0.001
   37  0.000  0.000  0.000  0.000
tot    0.073  0.010  0.752  0.834
 
band    15 # energy   -4.99231410 # occ.  2.00000000
 
ion      s      p      d    tot
    1  0.000  0.000  0.006  0.006
    2  0.003  0.000  0.007  0.010
    3  0.000  0.000  0.009  0.010
    4  0.003  0.000  0.006  0.010
    5  0.000  0.000  0.010  0.010
    6  0.002  0.000  0.007  0.009
    7  0.000  0.000  0.009  0.010
    8  0.002  0.000  0.007  0.009
    9  0.000  0.000  0.019  0.019
   10  0.004  0.000  0.024  0.027
   11  0.001  0.000  0.047  0.049
   12  0.001  0.000  0.027  0.028
   13  0.002  0.000  0.045  0.047
   14  0.006  0.000  0.009  0.016
   15  0.000  0.000  0.027  0.027
   16  0.001  0.000  0.027  0.028
   17  0.000  0.000  0.028  0.028
   18  0.000  0.000  0.040  0.041
   19  0.002  0.000  0.068  0.069
   20  0.000  0.000  0.051  0.052
   21  0.000  0.000  0.023  0.024
   22  0.003  0.000  0.057  0.061
   23  0.000  0.000  0.022  0.022
   24  0.012  0.000  0.022  0.034
   25  0.008  0.000  0.007  0.015
   26  0.002  0.000  0.064  0.066
   27  0.003  0.000  0.060  0.063
   28  0.000  0.000  0.004  0.004
   29  0.000  0.000  0.007  0.007
   30  0.001  0.000  0.002  0.004
   31  0.000  0.000  0.007  0.008
   32  0.001  0.001  0.008  0.009
   33  0.002  0.000  0.002  0.004
   34  0.001  0.001  0.007  0.009
   35  0.000  0.000  0.009  0.009
   36  0.000  0.000  0.001  0.001
   37  0.000  0.000  0.000  0.000
tot    0.061  0.007  0.775  0.843
 
band    16 # energy   -4.99229584 # occ.  2.00000000
 
ion      s      p      d    tot
    1  0.000  0.000  0.006  0.006
    2  0.000  0.000  0.008  0.009
    3  0.003  0.001  0.006  0.009
    4  0.000  0.000  0.009  0.009
    5  0.000  0.000  0.010  0.010
    6  0.002  0.000  0.008  0.010
    7  0.003  0.000  0.006  0.009
    8  0.002  0.000  0.008  0.010
    9  0.000  0.000  0.019  0.019
   10  0.000  0.000  0.028  0.028
   11  0.005  0.000  0.020  0.025
   12  0.003  0.000  0.025  0.028
   13  0.005  0.000  0.023  0.027
   14  0.000  0.000  0.059  0.059
   15  0.000  0.000  0.037  0.037
   16  0.003  0.000  0.025  0.028
   17  0.000  0.000  0.036  0.036
   18  0.000  0.000  0.023  0.024
   19  0.006  0.000  0.025  0.031
   20  0.000  0.000  0.013  0.013
   21  0.000  0.000  0.041  0.041
   22  0.009  0.000  0.035  0.044
   23  0.000  0.000  0.042  0.043
   24  0.000  0.000  0.071  0.071
   25  0.000  0.000  0.085  0.085
   26  0.006  0.000  0.029  0.034
   27  0.009  0.000  0.033  0.043
   28  0.000  0.000  0.004  0.004
   29  0.002  0.001  0.004  0.006
   30  0.000  0.000  0.009  0.010
   31  0.002  0.001  0.004  0.006
   32  0.001  0.000  0.003  0.004
   33  0.000  0.000  0.009  0.010
   34  0.001  0.000  0.004  0.004
   35  0.000  0.000  0.009  0.009
   36  0.000  0.000  0.001  0.001
   37  0.000  0.000  0.000  0.000
tot    0.061  0.007  0.775  0.843
 
band    17 # energy   -4.96952378 # occ.  2.00000000
 
ion      s      p      d    tot
    1  0.004  0.000  0.009  0.013
    2  0.003  0.000  0.011  0.014
    3  0.003  0.000  0.011  0.014
    4  0.003  0.000  0.011  0.014
    5  0.003  0.000  0.012  0.015
    6  0.003  0.000  0.011  0.014
    7  0.003  0.000  0.011  0.014
    8  0.003  0.000  0.011  0.014
    9  0.002  0.000  0.012  0.014
   10  0.001  0.000  0.007  0.008
   11  0.002  0.000  0.006  0.008
   12  0.001  0.000  0.007  0.008
   13  0.002  0.000  0.006  0.008
   14  0.002  0.000  0.006  0.008
   15  0.001  0.000  0.008  0.010
   16  0.001  0.000  0.007  0.008
   17  0.001  0.000  0.008  0.010
   18  0.001  0.000  0.008  0.010
   19  0.002  0.001  0.013  0.015
   20  0.001  0.001  0.022  0.023
   21  0.001  0.001  0.022  0.023
   22  0.000  0.001  0.021  0.022
   23  0.001  0.001  0.022  0.023
   24  0.000  0.001  0.021  0.022
   25  0.002  0.001  0.013  0.015
   26  0.002  0.001  0.013  0.015
   27  0.000  0.001  0.021  0.022
   28  0.015  0.000  0.032  0.046
   29  0.015  0.000  0.031  0.046
   30  0.015  0.000  0.031  0.046
   31  0.015  0.000  0.031  0.046
   32  0.015  0.000  0.031  0.046
   33  0.015  0.000  0.031  0.046
   34  0.015  0.000  0.031  0.046
   35  0.018  0.000  0.032  0.050
   36  0.010  0.000  0.007  0.018
   37  0.000  0.000  0.000  0.000
tot    0.183  0.008  0.584  0.775
 
band    18 # energy   -4.87763102 # occ.  2.00000000
 
ion      s      p      d    tot
    1  0.000  0.000  0.000  0.000
    2  0.000  0.000  0.005  0.005
    3  0.000  0.000  0.005  0.005
    4  0.000  0.000  0.005  0.005
    5  0.000  0.000  0.016  0.017
    6  0.000  0.000  0.005  0.005
    7  0.000  0.000  0.005  0.005
    8  0.000  0.000  0.005  0.005
    9  0.000  0.000  0.008  0.009
   10  0.000  0.000  0.008  0.008
   11  0.000  0.001  0.079  0.079
   12  0.000  0.000  0.008  0.008
   13  0.000  0.001  0.079  0.079
   14  0.000  0.001  0.079  0.079
   15  0.001  0.001  0.040  0.041
   16  0.000  0.000  0.008  0.008
   17  0.001  0.001  0.040  0.041
   18  0.001  0.001  0.040  0.041
   19  0.000  0.000  0.016  0.017
   20  0.002  0.000  0.066  0.068
   21  0.002  0.000  0.066  0.068
   22  0.003  0.000  0.019  0.023
   23  0.002  0.000  0.066  0.068
   24  0.003  0.000  0.019  0.023
   25  0.000  0.000  0.016  0.017
   26  0.000  0.000  0.016  0.017
   27  0.003  0.000  0.019  0.023
   28  0.005  0.001  0.001  0.007
   29  0.000  0.000  0.012  0.012
   30  0.000  0.000  0.012  0.012
   31  0.000  0.000  0.012  0.012
   32  0.000  0.000  0.012  0.012
   33  0.000  0.000  0.012  0.012
   34  0.000  0.000  0.012  0.012
   35  0.001  0.000  0.000  0.001
   36  0.002  0.000  0.009  0.011
   37  0.000  0.007  0.000  0.007
tot    0.031  0.020  0.815  0.866
 
band    19 # energy   -4.85197023 # occ.  2.00000000
 
ion      s      p      d    tot
    1  0.000  0.000  0.001  0.001
    2  0.000  0.000  0.007  0.007
    3  0.001  0.001  0.005  0.007
    4  0.000  0.000  0.007  0.007
    5  0.000  0.001  0.014  0.015
    6  0.000  0.000  0.009  0.010
    7  0.001  0.001  0.005  0.007
    8  0.001  0.000  0.009  0.010
    9  0.000  0.000  0.011  0.012
   10  0.000  0.000  0.022  0.022
   11  0.001  0.000  0.052  0.054
   12  0.000  0.001  0.024  0.025
   13  0.001  0.000  0.055  0.057
   14  0.000  0.000  0.092  0.093
   15  0.002  0.001  0.033  0.035
   16  0.000  0.001  0.024  0.025
   17  0.002  0.000  0.032  0.034
   18  0.000  0.000  0.016  0.016
   19  0.001  0.001  0.023  0.026
   20  0.000  0.000  0.094  0.094
   21  0.002  0.000  0.065  0.067
   22  0.000  0.001  0.026  0.027
   23  0.003  0.000  0.063  0.065
   24  0.000  0.000  0.039  0.039
   25  0.000  0.000  0.002  0.002
   26  0.001  0.001  0.022  0.024
   27  0.000  0.001  0.025  0.026
   28  0.000  0.000  0.006  0.006
   29  0.001  0.001  0.008  0.009
   30  0.001  0.001  0.005  0.007
   31  0.001  0.001  0.008  0.009
   32  0.000  0.000  0.006  0.007
   33  0.001  0.001  0.005  0.007
   34  0.000  0.000  0.006  0.006
   35  0.000  0.000  0.001  0.001
   36  0.000  0.001  0.006  0.008
   37  0.000  0.002  0.000  0.002
tot    0.023  0.017  0.827  0.866
 
band    20 # energy   -4.85196425 # occ.  2.00000000
 
ion      s      p      d    tot
    1  0.000  0.000  0.001  0.001
    2  0.001  0.001  0.007  0.009
    3  0.000  0.000  0.009  0.009
    4  0.001  0.001  0.007  0.009
    5  0.000  0.001  0.014  0.015
    6  0.001  0.000  0.005  0.006
    7  0.000  0.000  0.009  0.009
    8  0.001  0.000  0.005  0.006
    9  0.000  0.000  0.011  0.012
   10  0.000  0.001  0.024  0.026
   11  0.000  0.000  0.081  0.082
   12  0.000  0.000  0.023  0.023
   13  0.000  0.000  0.078  0.079
   14  0.002  0.000  0.041  0.042
   15  0.000  0.000  0.020  0.021
   16  0.000  0.000  0.022  0.023
   17  0.001  0.000  0.022  0.023
   18  0.002  0.001  0.038  0.041
   19  0.000  0.000  0.008  0.008
   20  0.003  0.000  0.054  0.057
   21  0.001  0.000  0.083  0.084
   22  0.000  0.000  0.034  0.034
   23  0.001  0.000  0.085  0.086
   24  0.000  0.001  0.021  0.022
   25  0.002  0.001  0.029  0.032
   26  0.000  0.000  0.009  0.010
   27  0.000  0.000  0.035  0.035
   28  0.000  0.000  0.006  0.006
   29  0.000  0.000  0.005  0.006
   30  0.000  0.000  0.007  0.008
   31  0.001  0.000  0.005  0.006
   32  0.002  0.001  0.007  0.009
   33  0.000  0.000  0.008  0.008
   34  0.002  0.001  0.007  0.009
   35  0.000  0.000  0.001  0.001
   36  0.000  0.001  0.006  0.008
   37  0.000  0.002  0.000  0.002
tot    0.023  0.017  0.827  0.866
 
band    21 # energy   -4.83759930 # occ.  2.00000000
 
ion      s      p      d    tot
    1  0.000  0.000  0.007  0.007
    2  0.000  0.001  0.012  0.012
    3  0.000  0.001  0.012  0.012
    4  0.000  0.001  0.012  0.012
    5  0.004  0.001  0.001  0.006
    6  0.000  0.001  0.012  0.012
    7  0.000  0.001  0.012  0.012
    8  0.000  0.001  0.012  0.012
    9  0.002  0.000  0.002  0.005
   10  0.002  0.001  0.054  0.056
   11  0.000  0.000  0.027  0.028
   12  0.002  0.001  0.054  0.056
   13  0.000  0.000  0.027  0.028
   14  0.000  0.000  0.027  0.028
   15  0.002  0.000  0.023  0.025
   16  0.002  0.001  0.054  0.056
   17  0.002  0.000  0.023  0.025
   18  0.002  0.000  0.023  0.025
   19  0.001  0.001  0.056  0.058
   20  0.001  0.000  0.016  0.017
   21  0.001  0.000  0.016  0.017
   22  0.000  0.001  0.041  0.042
   23  0.001  0.000  0.016  0.017
   24  0.000  0.001  0.041  0.042
   25  0.001  0.001  0.056  0.058
   26  0.001  0.001  0.056  0.058
   27  0.000  0.001  0.041  0.042
   28  0.000  0.000  0.014  0.014
   29  0.000  0.000  0.009  0.010
   30  0.000  0.000  0.009  0.010
   31  0.000  0.000  0.009  0.010
   32  0.000  0.000  0.009  0.010
   33  0.000  0.000  0.009  0.010
   34  0.000  0.000  0.009  0.010
   35  0.004  0.001  0.002  0.007
   36  0.003  0.000  0.000  0.003