 vasp.6.2.0 18Jan21 (build Jun 12 2021 23:27:24) complex                        
  
 executed on             LinuxIFC date 2022.05.26  20:16:56
 running on   28 total cores
 distrk:  each k-point on   28 cores,    1 groups
 distr:  one band on NCORE=   1 cores,   28 groups


--------------------------------------------------------------------------------------------------------


 INCAR:
   ISMEAR = -5
   SIGMA = 0.1
   ISPIN = 1
   EDIFF = 1.d-5
   EDIFFG = -0.01
   NSW = 0
   NELM = 150
   ENCUT = 500
   ISIF = 2
   IBRION = 2
   LREAL = Auto
   ALGO = Fast
   ICHARG = 11
   LORBIT = 10
   LCHARG = .F.
   LWAVE = .F.

 POTCAR:    PAW_PBE Au 04Oct2007                  
 POTCAR:    PAW_PBE Ir 06Sep2000                  
 -----------------------------------------------------------------------------
|                                                                             |
|           W    W    AA    RRRRR   N    N  II  N    N   GGGG   !!!           |
|           W    W   A  A   R    R  NN   N  II  NN   N  G    G  !!!           |
|           W    W  A    A  R    R  N N  N  II  N N  N  G       !!!           |
|           W WW W  AAAAAA  RRRRR   N  N N  II  N  N N  G  GGG   !            |
|           WW  WW  A    A  R   R   N   NN  II  N   NN  G    G                |
|           W    W  A    A  R    R  N    N  II  N    N   GGGG   !!!           |
|                                                                             |
|     For optimal performance we recommend to set                             |
|       NCORE = 2 up to number-of-cores-per-socket                            |
|     NCORE specifies how many cores store one orbital (NPAR=cpu/NCORE).      |
|     This setting can greatly improve the performance of VASP for DFT.       |
|     The default, NCORE=1 might be grossly inefficient on modern             |
|     multi-core architectures or massively parallel machines. Do your        |
|     own testing! More info at https://www.vasp.at/wiki/index.php/NCORE      |
|     Unfortunately you need to use the default for GW and RPA                |
|     calculations (for HF NCORE is supported but not extensively tested      |
|     yet).                                                                   |
|                                                                             |
 -----------------------------------------------------------------------------

 POTCAR:    PAW_PBE Au 04Oct2007                  
   VRHFIN =Au: s1d10                                                                                
   LEXCH  = PE                                                                                      
   EATOM  =   926.0867 eV,   68.0654 Ry                                                             
                                                                                                    
   TITEL  = PAW_PBE Au 04Oct2007                                                                    
   LULTRA =        F    use ultrasoft PP ?                                                          
   IUNSCR =        1    unscreen: 0-lin 1-nonlin 2-no                                               
   RPACOR =    2.330    partial core radius                                                         
   POMASS =  196.966; ZVAL   =   11.000    mass and valenz                                          
   RCORE  =    2.500    outmost cutoff radius                                                       
   RWIGS  =    2.840; RWIGS  =    1.503    wigner-seitz radius (au A)                               
   ENMAX  =  229.943; ENMIN  =  172.457 eV                                                          
   ICORE  =        3    local potential                                                             
   LCOR   =        T    correct aug charges                                                         
   LPAW   =        T    paw PP                                                                      
   EAUG   =  356.670                                                                                
   DEXC   =    0.000                                                                                
   RMAX   =    2.562    core radius for proj-oper                                                   
   RAUG   =    1.300    factor for augmentation sphere                                              
   RDEP   =    2.598    radius for radial grids                                                     
   RDEPT  =    2.193    core radius for aug-charge                                                  
                                                                                                    
   Atomic configuration                                                                             
   16 entries                                                                                       
     n  l   j            E        occ.                                                              
     1  0  0.50    -80748.5001   2.0000                                                             
     2  0  0.50    -14244.7466   2.0000                                                             
     2  1  1.50    -12310.9591   6.0000                                                             
     3  0  0.50     -3362.1768   2.0000                                                             
     3  1  1.50     -2801.5463   6.0000                                                             
     3  2  2.50     -2203.8206  10.0000                                                             
     4  0  0.50      -729.8168   2.0000                                                             
     4  1  1.50      -546.0527   6.0000                                                             
     4  2  2.50      -325.7302  10.0000                                                             
     4  3  3.50       -81.1472  14.0000                                                             
     5  0  0.50      -108.3201   2.0000                                                             
     5  1  1.50       -59.7479   6.0000                                                             
     5  2  2.50        -6.8783  10.0000                                                             
     6  0  0.50        -5.7602   1.0000                                                             
     6  1  1.50        -6.8029   0.0000                                                             
     5  3  2.50        -1.3606   0.0000                                                             
   Description                                                                                      
     l       E           TYP  RCUT    TYP  RCUT                                                     
     2     -6.8782861     23  2.500                                                                 
     2     -8.2388687     23  2.500                                                                 
     0     -5.7601759     23  2.500                                                                 
     0     -0.8493231     23  2.500                                                                 
     1     -2.7211652     23  2.500                                                                 
     1     27.2116520     23  2.500                                                                 
     3     -1.3605826     23  2.500                                                                 
  local pseudopotential read in
  partial core-charges read in
  partial kinetic energy density read in
  atomic valenz-charges read in
  non local Contribution for L=           2  read in
    real space projection operators read in
  non local Contribution for L=           2  read in
    real space projection operators read in
  non local Contribution for L=           0  read in
    real space projection operators read in
  non local Contribution for L=           0  read in
    real space projection operators read in
  non local Contribution for L=           1  read in
    real space projection operators read in
  non local Contribution for L=           1  read in
    real space projection operators read in
    PAW grid and wavefunctions read in
 
   number of l-projection  operators is LMAX  =           6
   number of lm-projection operators is LMMAX =          18
 
 POTCAR:    PAW_PBE Ir 06Sep2000                  
   VRHFIN =Ir: s1d8                                                                                 
   LEXCH  = PE                                                                                      
   EATOM  =   560.1833 eV,   41.1723 Ry                                                             
                                                                                                    
   TITEL  = PAW_PBE Ir 06Sep2000                                                                    
   LULTRA =        F    use ultrasoft PP ?                                                          
   IUNSCR =        1    unscreen: 0-lin 1-nonlin 2-no                                               
   RPACOR =    2.250    partial core radius                                                         
   POMASS =  192.220; ZVAL   =    9.000    mass and valenz                                          
   RCORE  =    2.600    outmost cutoff radius                                                       
   RWIGS  =    2.690; RWIGS  =    1.423    wigner-seitz radius (au A)                               
   ENMAX  =  210.864; ENMIN  =  158.148 eV                                                          
   RCLOC  =    1.857    cutoff for local pot                                                        
   LCOR   =        T    correct aug charges                                                         
   LPAW   =        T    paw PP                                                                      
   EAUG   =  318.962                                                                                
   DEXC   =    0.000                                                                                
   RMAX   =    2.667    core radius for proj-oper                                                   
   RAUG   =    1.300    factor for augmentation sphere                                              
   RDEP   =    2.748    radius for radial grids                                                     
   RDEPT  =    2.300    core radius for aug-charge                                                  
                                                                                                    
   Atomic configuration                                                                             
   16 entries                                                                                       
     n  l   j            E        occ.                                                              
     1  0  0.50    -76100.0449   2.0000                                                             
     2  0  0.50    -13308.1683   2.0000                                                             
     2  1  1.50    -11558.0021   6.0000                                                             
     3  0  0.50     -3110.7274   2.0000                                                             
     3  1  1.50     -2599.2109   6.0000                                                             
     3  2  2.50     -2037.1515  10.0000                                                             
     4  0  0.50      -661.6001   2.0000                                                             
     4  1  1.50      -493.8981   6.0000                                                             
     4  2  2.50      -288.1909  10.0000                                                             
     4  3  3.50       -59.5718  14.0000                                                             
     5  0  0.50       -95.3879   2.0000                                                             
     5  1  1.50       -52.2747   6.0000                                                             
     5  2  2.50        -5.4180   8.0000                                                             
     6  0  0.50        -5.5479   1.0000                                                             
     6  1  1.50        -6.8029   0.0000                                                             
     5  3  2.50        -1.3606   0.0000                                                             
   Description                                                                                      
     l       E           TYP  RCUT    TYP  RCUT                                                     
     2     -5.4179967     23  2.600                                                                 
     2     -6.7785793     23  2.600                                                                 
     0     -5.5478636     23  2.600                                                                 
     0      2.2542272     23  2.600                                                                 
     1     -2.7211652     23  2.600                                                                 
     1     20.4087390     23  2.600                                                                 
  local pseudopotential read in
  partial core-charges read in
  partial kinetic energy density read in
  atomic valenz-charges read in
  non local Contribution for L=           2  read in
    real space projection operators read in
  non local Contribution for L=           2  read in
    real space projection operators read in
  non local Contribution for L=           0  read in
    real space projection operators read in
  non local Contribution for L=           0  read in
    real space projection operators read in
  non local Contribution for L=           1  read in
    real space projection operators read in
  non local Contribution for L=           1  read in
    real space projection operators read in
    PAW grid and wavefunctions read in
 
   number of l-projection  operators is LMAX  =           6
   number of lm-projection operators is LMMAX =          18
 
 Optimization of the real space projectors (new method)

 maximal supplied QI-value         = 15.12
 optimisation between [QCUT,QGAM] = [ 11.34, 22.83] = [ 36.00,145.93] Ry 
 Optimized for a Real-space Cutoff    1.39 Angstroem

   l    n(q)    QCUT    max X(q) W(low)/X(q) W(high)/X(q)  e(spline) 
   2      9    11.338    60.898    0.39E-03    0.42E-03    0.21E-06
   2      9    11.338    58.894    0.40E-03    0.42E-03    0.22E-06
   0      9    11.338   109.617    0.13E-03    0.20E-04    0.13E-06
   0      9    11.338    75.026    0.13E-03    0.20E-04    0.13E-06
   1      9    11.338    16.344    0.33E-04    0.24E-03    0.18E-06
   1      9    11.338    10.160    0.26E-04    0.19E-03    0.15E-06
 Optimization of the real space projectors (new method)

 maximal supplied QI-value         = 14.36
 optimisation between [QCUT,QGAM] = [ 11.35, 22.84] = [ 36.05,146.02] Ry 
 Optimized for a Real-space Cutoff    1.52 Angstroem

   l    n(q)    QCUT    max X(q) W(low)/X(q) W(high)/X(q)  e(spline) 
   2      9    11.346   134.116    0.47E-03    0.13E-03    0.92E-06
   2      9    11.346   130.192    0.47E-03    0.13E-03    0.92E-06
   0     10    11.346    60.310    0.74E-04    0.13E-03    0.69E-06
   0     10    11.346    39.218    0.68E-04    0.12E-03    0.65E-06
   1     10    11.346    18.439    0.15E-03    0.34E-04    0.20E-06
   1     10    11.346    12.760    0.12E-03    0.31E-04    0.16E-06
  PAW_PBE Au 04Oct2007                  :
 energy of atom  1       EATOM= -926.0867
 kinetic energy error for atom=    0.0042 (will be added to EATOM!!)
  PAW_PBE Ir 06Sep2000                  :
 energy of atom  2       EATOM= -560.1833
 kinetic energy error for atom=    0.0018 (will be added to EATOM!!)
 
 
 POSCAR: Au-Ir
  positions in direct lattice
  velocities in cartesian coordinates
 exchange correlation table for  LEXCH =        8
   RHO(1)=    0.500       N(1)  =     2000
   RHO(2)=  100.500       N(2)  =     4000

 VTST: version 3.2, (02/03/18)

 CHAIN: initializing optimizer
 
 OPT: Using VASP Conjugate-Gradient optimizer
 CHAIN: Read ICHAIN            0
 
 POSCAR: Au-Ir
  positions in direct lattice
  velocities in cartesian coordinates
 


--------------------------------------------------------------------------------------------------------


 ion  position               nearest neighbor table
   1  0.000  0.000  0.238-  16 2.94  12 2.94   6 2.94   8 2.94   7 2.94   3 2.94  10 2.94   4 2.94
                             2 2.94
   2  0.333  0.000  0.238-   9 2.94  11 2.94  17 2.94  10 2.94   8 2.94   4 2.94   5 2.94   1 2.94
                             3 2.94
   3  0.667  0.000  0.238-   7 2.94  18 2.94  12 2.94   1 2.94  11 2.94   5 2.94   6 2.94   9 2.94
                             2 2.94
   4  0.000  0.333  0.238-  10 2.94   6 2.94   5 2.94  13 2.94   2 2.94  15 2.94   9 2.94   1 2.94
                             7 2.94
   5  0.333  0.333  0.238-  13 2.94   7 2.94  11 2.94   4 2.94   2 2.94  14 2.94   3 2.94   8 2.94
                             6 2.94
   6  0.667  0.333  0.238-  15 2.94  14 2.94   1 2.94  12 2.94   4 2.94   9 2.94   8 2.94   3 2.94
                             5 2.94
   7  0.000  0.667  0.238-  18 2.94   3 2.94  16 2.94   5 2.94   1 2.94  13 2.94   8 2.94   4 2.94
                             9 2.94
   8  0.333  0.667  0.238-   9 2.94  17 2.94   1 2.94   2 2.94  14 2.94  16 2.94   6 2.94   7 2.94
                             5 2.94
   9  0.667  0.667  0.238-   2 2.94   8 2.94  17 2.94   6 2.94  15 2.94   4 2.94   3 2.94  18 2.94
                             7 2.94
  10  0.111  0.111  0.346-  20 2.90  11 2.94  17 2.94   2 2.94   4 2.94   1 2.94  12 2.94  16 2.94
                            13 2.94  15 2.94  26 2.94  19 2.94
  11  0.444  0.111  0.346-  20 2.91  21 2.91  27 2.93  13 2.94   2 2.94  10 2.94  17 2.94   5 2.94
                             3 2.94  18 2.94  14 2.94  12 2.94
  12  0.778  0.111  0.346-  21 2.90  16 2.94  18 2.94   1 2.94  14 2.94  15 2.94   3 2.94   6 2.94
                            10 2.94  11 2.94  25 2.94  19 2.94
  13  0.111  0.444  0.346-  23 2.91  20 2.91  22 2.93   5 2.94  18 2.94  11 2.94   7 2.94   4 2.94
                            16 2.94  10 2.94  14 2.94  15 2.94
  14  0.444  0.444  0.346-  21 2.91  23 2.91  24 2.93  15 2.94   6 2.94  12 2.94   8 2.94  17 2.94
                             5 2.94  16 2.94  13 2.94  11 2.94
  15  0.778  0.444  0.346-  24 2.92  22 2.92  14 2.94   6 2.94  17 2.94  12 2.94   9 2.94   4 2.94
                            10 2.94  13 2.94  18 2.94  19 2.94
  16  0.111  0.778  0.346-  23 2.90  18 2.94  12 2.94   7 2.94   1 2.94   8 2.94  13 2.94  10 2.94
                            14 2.94  17 2.94  25 2.94  26 2.94
  17  0.444  0.778  0.346-  27 2.92  24 2.92   9 2.94  15 2.94   2 2.94  10 2.94  11 2.94   8 2.94
                            14 2.94  16 2.94  18 2.94  26 2.94
  18  0.778  0.778  0.346-  22 2.92  27 2.92  16 2.94   7 2.94  13 2.94  12 2.94   3 2.94  11 2.94
                             9 2.94  15 2.94  17 2.94  25 2.94
  19  0.889  0.223  0.454-  21 2.93  20 2.93  24 2.93  22 2.93  15 2.94  10 2.94  12 2.94  26 2.95
                            25 2.95  28 2.95  32 2.96  31 2.96
  20  0.222  0.222  0.452-  36 2.78  10 2.90  11 2.91  13 2.91  26 2.93  19 2.93  29 2.95  31 2.95
                            27 2.95  22 2.95  23 2.95  21 2.95
  21  0.557  0.222  0.452-  36 2.78  12 2.90  14 2.91  11 2.91  25 2.93  19 2.93  30 2.95  32 2.95
                            24 2.95  27 2.95  20 2.95  23 2.95
  22  0.887  0.557  0.453-  24 2.91  27 2.91  18 2.92  15 2.92  13 2.93  25 2.93  19 2.93  23 2.95
                            20 2.95  35 2.95  33 2.96  31 2.96
  23  0.222  0.557  0.452-  36 2.78  16 2.90  13 2.91  14 2.91  25 2.93  26 2.93  33 2.95  34 2.95
                            22 2.95  24 2.95  20 2.95  21 2.95
  24  0.557  0.557  0.453-  27 2.91  22 2.91  15 2.92  17 2.92  14 2.93  26 2.93  19 2.93  21 2.95
                            23 2.95  35 2.95  32 2.96  34 2.96
  25  0.889  0.889  0.454-  23 2.93  21 2.93  22 2.93  27 2.93  18 2.94  16 2.94  12 2.94  19 2.95
                            26 2.95  28 2.95  33 2.96  30 2.96
  26  0.223  0.889  0.454-  20 2.93  23 2.93  27 2.93  24 2.93  17 2.94  10 2.94  16 2.94  19 2.95
                            25 2.95  28 2.95  29 2.96  34 2.96
  27  0.557  0.887  0.453-  24 2.91  22 2.91  17 2.92  18 2.92  11 2.93  26 2.93  25 2.93  20 2.95
                            21 2.95  35 2.95  29 2.96  30 2.96
  28  0.000  0.000  0.563-  25 2.95  19 2.95  26 2.95  34 2.96  32 2.96  33 2.96  30 2.96  31 2.96
                            29 2.96
  29  0.333  0.005  0.562-  31 2.89  30 2.89  36 2.90  20 2.95  28 2.96  35 2.96  27 2.96  26 2.96
                            34 3.03
  30  0.661  0.005  0.562-  32 2.89  29 2.89  36 2.90  21 2.95  28 2.96  35 2.96  27 2.96  25 2.96
                            33 3.03
  31  0.005  0.333  0.562-  29 2.89  33 2.89  36 2.90  20 2.95  28 2.96  35 2.96  22 2.96  19 2.96
                            32 3.03
  32  0.661  0.333  0.562-  30 2.89  34 2.89  36 2.90  21 2.95  28 2.96  35 2.96  24 2.96  19 2.96
                            31 3.03
  33  0.005  0.661  0.562-  34 2.89  31 2.89  36 2.90  23 2.95  28 2.96  35 2.96  22 2.96  25 2.96
                            30 3.03
  34  0.333  0.661  0.562-  33 2.89  32 2.89  36 2.90  23 2.95  28 2.96  35 2.96  24 2.96  26 2.96
                            29 3.03
  35  0.667  0.667  0.563-  24 2.95  27 2.95  22 2.95  29 2.96  34 2.96  32 2.96  31 2.96  30 2.96
                            33 2.96
  36  0.333  0.333  0.551-  20 2.78  23 2.78  21 2.78  33 2.90  31 2.90  29 2.90  30 2.90  34 2.90
                            32 2.90
 
  LATTYP: Found a hexagonal cell.
 ALAT       =     8.8135128021
 C/A-ratio  =     2.5184286595
  
  Lattice vectors:
  
 A1 = (  -4.4067569092,  -7.6327256898,   0.0000000000)
 A2 = (   8.8135128021,   0.0000000000,   0.0000000000)
 A3 = (   0.0000000000,   0.0000000000,  22.1962032318)


Analysis of symmetry for initial positions (statically):
=====================================================================
 Subroutine PRICEL returns:
 Original cell was already a primitive cell.
 

 Routine SETGRP: Setting up the symmetry group for a 
 hexagonal supercell.


 Subroutine GETGRP returns: Found  6 space group operations
 (whereof  6 operations were pure point group operations)
 out of a pool of 24 trial point group operations.


The static configuration has the point symmetry C_3v.


Analysis of symmetry for dynamics (positions and initial velocities):
=====================================================================
 Subroutine PRICEL returns:
 Original cell was already a primitive cell.
 

 Routine SETGRP: Setting up the symmetry group for a 
 hexagonal supercell.


 Subroutine GETGRP returns: Found  6 space group operations
 (whereof  6 operations were pure point group operations)
 out of a pool of 24 trial point group operations.


The dynamic configuration has the point symmetry C_3v.


Analysis of constrained symmetry for selective dynamics:
=====================================================================
 Subroutine PRICEL returns:
 Original cell was already a primitive cell.
 

 Routine SETGRP: Setting up the symmetry group for a 
 hexagonal supercell.


 Subroutine GETGRP returns: Found  6 space group operations
 (whereof  6 operations were pure point group operations)
 out of a pool of 24 trial point group operations.


The constrained configuration has the point symmetry C_3v.


 Subroutine INISYM returns: Found  6 space group operations
 (whereof  6 operations are pure point group operations),
 and found     1 'primitive' translations


----------------------------------------------------------------------------------------

                                     Primitive cell                                     

  volume of cell :    1493.1636

  direct lattice vectors                    reciprocal lattice vectors
     8.813512802  0.000000000  0.000000000     0.113462137 -0.065507406  0.000000000
     4.406756909  7.632725690  0.000000000     0.000000000  0.131014796  0.000000000
     0.000000000  0.000000000 22.196203232     0.000000000  0.000000000  0.045052750

  length of vectors
     8.813512802  8.813512802 22.196203232     0.131014796  0.131014796  0.045052750

  position of ions in fractional coordinates (direct lattice)
     0.000000000  0.000000000  0.237895638
     0.333333343  0.000000000  0.237895638
     0.666666687  0.000000000  0.237895638
     1.000000000  0.333333343  0.237895638
     0.333333313  0.333333343  0.237895638
     0.666666687  0.333333343  0.237895638
     1.000000000  0.666666687  0.237895638
     0.333333343  0.666666687  0.237895638
     0.666666627  0.666666687  0.237895638
     0.111111119  0.111111112  0.345965207
     0.444444418  0.111111112  0.345965207
     0.777777791  0.111111112  0.345965207
     0.111111127  0.444444448  0.345965207
     0.444444478  0.444444448  0.345965207
     0.777777731  0.444444448  0.345965207
     0.111111090  0.777777791  0.345965207
     0.444444448  0.777777791  0.345965207
     0.777777851  0.777777791  0.345965207
     0.888612642  0.222774731  0.454189609
     0.221664881  0.221664866  0.452247465
     0.556670299  0.221664866  0.452247465
     0.886693588  0.556653236  0.453286612
     0.221664836  0.556670299  0.452247465
     0.556653236  0.556653236  0.453286612
     0.888612642  0.888612642  0.454189609
     0.222774761  0.888612642  0.454189609
     0.556653176  0.886693588  0.453286612
     0.000000000  0.000000000  0.562987663
     0.333314187  0.005253655  0.562397179
     0.661432188  0.005253655  0.562397179
     0.005253655  0.333314187  0.562397179
     0.661432188  0.333314187  0.562397179
     0.005253655  0.661432188  0.562397179
     0.333314187  0.661432188  0.562397179
     0.666666627  0.666666687  0.562786091
     0.333333313  0.333333343  0.551286840

  ion indices of the primitive-cell ions
   primitive index   ion index
                 1           1
                 2           2
                 3           3
                 4           4
                 5           5
                 6           6
                 7           7
                 8           8
                 9           9
                10          10
                11          11
                12          12
                13          13
                14          14
                15          15
                16          16
                17          17
                18          18
                19          19
                20          20
                21          21
                22          22
                23          23
                24          24
                25          25
                26          26
                27          27
                28          28
                29          29
                30          30
                31          31
                32          32
                33          33
                34          34
                35          35
                36          36

----------------------------------------------------------------------------------------

 
 
 KPOINTS: Automatic mesh                          

Automatic generation of k-mesh.
 Grid dimensions read from file:
 generate k-points for:    8    8    1

 Generating k-lattice:

  Cartesian coordinates                     Fractional coordinates (reciprocal lattice)
     0.014182767 -0.008188426  0.000000000     0.125000000 -0.000000000  0.000000000
     0.000000000  0.016376850  0.000000000     0.000000000  0.125000000  0.000000000
     0.000000000  0.000000000  0.045052750     0.000000000  0.000000000  1.000000000

  Length of vectors
     0.016376850  0.016376850  0.045052750

  Shift w.r.t. Gamma in fractional coordinates (k-lattice)
     0.000000000  0.000000000  0.000000000

 TETIRR: Found     36 inequivalent tetrahedra from      384
 
 Subroutine IBZKPT returns following result:
 ===========================================
 
 Found     10 irreducible k-points:
 
 Following reciprocal coordinates:
            Coordinates               Weight
  0.000000  0.000000  0.000000      1.000000
  0.125000 -0.000000  0.000000      6.000000
  0.250000 -0.000000  0.000000      6.000000
  0.375000  0.000000  0.000000      6.000000
  0.500000 -0.000000  0.000000      3.000000
  0.250000  0.125000  0.000000      6.000000
  0.375000  0.125000  0.000000     12.000000
  0.500000  0.125000  0.000000     12.000000
  0.500000  0.250000  0.000000      6.000000
 -0.375000  0.250000  0.000000      6.000000
 
 Following cartesian coordinates:
            Coordinates               Weight
  0.000000  0.000000  0.000000      1.000000
  0.014183 -0.008188  0.000000      6.000000
  0.028366 -0.016377  0.000000      6.000000
  0.042548 -0.024565  0.000000      6.000000
  0.056731 -0.032754  0.000000      3.000000
  0.028366 -0.000000  0.000000      6.000000
  0.042548 -0.008188  0.000000     12.000000
  0.056731 -0.016377  0.000000     12.000000
  0.056731 -0.000000  0.000000      6.000000
 -0.042548  0.057319  0.000000      6.000000
 


--------------------------------------------------------------------------------------------------------




 Dimension of arrays:
   k-points           NKPTS =     10   k-points in BZ     NKDIM =     10   number of bands    NBANDS=    252
   number of dos      NEDOS =    301   number of ions     NIONS =     36
   non local maximal  LDIM  =      6   non local SUM 2l+1 LMDIM =     18
   total plane-waves  NPLWV = 290304
   max r-space proj   IRMAX =   2902   max aug-charges    IRDMAX=  14257
   dimension x,y,z NGX =    48 NGY =   48 NGZ =  126
   dimension x,y,z NGXF=    96 NGYF=   96 NGZF=  252
   support grid    NGXF=    96 NGYF=   96 NGZF=  252
   ions per type =              35   1
   NGX,Y,Z   is equivalent  to a cutoff of   9.05,  9.05,  9.44 a.u.
   NGXF,Y,Z  is equivalent  to a cutoff of  18.11, 18.11, 18.87 a.u.

 SYSTEM =  unknown system                          
 POSCAR =  Au-Ir                                   

 Startparameter for this run:
   NWRITE =      2    write-flag & timer
   PREC   = normal    normal or accurate (medium, high low for compatibility)
   ISTART =      0    job   : 0-new  1-cont  2-samecut
   ICHARG =     11    charge: 1-file 2-atom 10-const
   ISPIN  =      1    spin polarized calculation?
   LNONCOLLINEAR =      F non collinear calculations
   LSORBIT =      F    spin-orbit coupling
   INIWAV =      1    electr: 0-lowe 1-rand  2-diag
   LASPH  =      F    aspherical Exc in radial PAW
   METAGGA=      F    non-selfconsistent MetaGGA calc.

 Electronic Relaxation 1
   ENCUT  =  500.0 eV  36.75 Ry    6.06 a.u.  16.07 16.07 40.47*2*pi/ulx,y,z
   ENINI  =  500.0     initial cutoff
   ENAUG  =  356.7 eV  augmentation charge cutoff
   NELM   =    150;   NELMIN=  2; NELMDL= -5     # of ELM steps 
   EDIFF  = 0.1E-04   stopping-criterion for ELM
   LREAL  =      T    real-space projection
   NLSPLINE    = F    spline interpolate recip. space projectors
   LCOMPAT=      F    compatible to vasp.4.4
   GGA_COMPAT  = T    GGA compatible to vasp.4.4-vasp.4.6
   LMAXPAW     = -100 max onsite density
   LMAXMIX     =    2 max onsite mixed and CHGCAR
   VOSKOWN=      0    Vosko Wilk Nusair interpolation
   ROPT   =   -0.00050  -0.00050
 Ionic relaxation
   EDIFFG = -.1E-01   stopping-criterion for IOM
   NSW    =      0    number of steps for IOM
   NBLOCK =      1;   KBLOCK =      1    inner block; outer block 
   IBRION =     -1    ionic relax: 0-MD 1-quasi-New 2-CG
   NFREE  =      1    steps in history (QN), initial steepest desc. (CG)
   ISIF   =      2    stress and relaxation
   IWAVPR =     10    prediction:  0-non 1-charg 2-wave 3-comb
   ISYM   =      2    0-nonsym 1-usesym 2-fastsym
   LCORR  =      T    Harris-Foulkes like correction to forces

   POTIM  = 0.5000    time-step for ionic-motion
   TEIN   =    0.0    initial temperature
   TEBEG  =    0.0;   TEEND  =   0.0 temperature during run
   SMASS  =  -3.00    Nose mass-parameter (am)
   estimated Nose-frequenzy (Omega)   =  0.10E-29 period in steps = 0.13E+47 mass=  -0.178E-26a.u.
   SCALEE = 1.0000    scale energy and forces
   NPACO  =    256;   APACO  = 16.0  distance and # of slots for P.C.
   PSTRESS=    0.0 pullay stress

  Mass of Ions in am
   POMASS = 196.97192.22
  Ionic Valenz
   ZVAL   =  11.00  9.00
  Atomic Wigner-Seitz radii
   RWIGS  =  -1.00 -1.00
  virtual crystal weights 
   VCA    =   1.00  1.00
   NELECT =     394.0000    total number of electrons
   NUPDOWN=      -1.0000    fix difference up-down

 DOS related values:
   EMIN   =  10.00;   EMAX   =-10.00  energy-range for DOS
   EFERMI =   0.00
   ISMEAR =    -5;   SIGMA  =   0.10  broadening in eV -4-tet -1-fermi 0-gaus

 Electronic relaxation 2 (details)
   IALGO  =     68    algorithm
   LDIAG  =      T    sub-space diagonalisation (order eigenvalues)
   LSUBROT=      F    optimize rotation matrix (better conditioning)
   TURBO    =      0    0=normal 1=particle mesh
   IRESTART =      0    0=no restart 2=restart with 2 vectors
   NREBOOT  =      0    no. of reboots
   NMIN     =      0    reboot dimension
   EREF     =   0.00    reference energy to select bands
   IMIX   =      4    mixing-type and parameters
     AMIX     =   0.40;   BMIX     =  1.00
     AMIX_MAG =   1.60;   BMIX_MAG =  1.00
     AMIN     =   0.10
     WC   =   100.;   INIMIX=   1;  MIXPRE=   1;  MAXMIX= -45

 Intra band minimization:
   WEIMIN = 0.0000     energy-eigenvalue tresh-hold
   EBREAK =  0.99E-08  absolut break condition
   DEPER  =   0.30     relativ break condition  

   TIME   =   0.40     timestep for ELM

  volume/ion in A,a.u.               =      41.48       279.90
  Fermi-wavevector in a.u.,A,eV,Ry     =   1.050037  1.984281 15.001469  1.102577
  Thomas-Fermi vector in A             =   2.185024
 
 Write flags
   LWAVE        =      F    write WAVECAR
   LDOWNSAMPLE  =      F    k-point downsampling of WAVECAR
   LCHARG       =      F    write CHGCAR
   LVTOT        =      F    write LOCPOT, total local potential
   LVHAR        =      F    write LOCPOT, Hartree potential only
   LELF         =      F    write electronic localiz. function (ELF)
   LORBIT       =     10    0 simple, 1 ext, 2 COOP (PROOUT), +10 PAW based schemes


 Dipole corrections
   LMONO  =      F    monopole corrections only (constant potential shift)
   LDIPOL =      F    correct potential (dipole corrections)
   IDIPOL =      0    1-x, 2-y, 3-z, 4-all directions 
   EPSILON=  1.0000000 bulk dielectric constant

 Exchange correlation treatment:
   GGA     =    --    GGA type
   LEXCH   =     8    internal setting for exchange type
   VOSKOWN=      0    Vosko Wilk Nusair interpolation
   LHFCALC =     F    Hartree Fock is set to
   LHFONE  =     F    Hartree Fock one center treatment
   AEXX    =    0.0000 exact exchange contribution

 Linear response parameters
   LEPSILON=     F    determine dielectric tensor
   LRPA    =     F    only Hartree local field effects (RPA)
   LNABLA  =     F    use nabla operator in PAW spheres
   LVEL    =     F    velocity operator in full k-point grid
   LINTERFAST=   F  fast interpolation
   KINTER  =     0    interpolate to denser k-point grid
   CSHIFT  =0.1000    complex shift for real part using Kramers Kronig
   OMEGAMAX=  -1.0    maximum frequency
   DEG_THRESHOLD= 0.2000000E-02 threshold for treating states as degnerate
   RTIME   =   -0.100 relaxation time in fs
  (WPLASMAI=    0.000 imaginary part of plasma frequency in eV, 0.658/RTIME)
   DFIELD  = 0.0000000 0.0000000 0.0000000 field for delta impulse in time
 
 Orbital magnetization related:
   ORBITALMAG=     F  switch on orbital magnetization
   LCHIMAG   =     F  perturbation theory with respect to B field
   DQ        =  0.001000  dq finite difference perturbation B field
   LLRAUG    =     F  two centre corrections for induced B field



--------------------------------------------------------------------------------------------------------


 Static calculation
 charge density and potential remain constant during run
 non-spin polarized calculation
 RMM-DIIS sequential band-by-band and
  variant of blocked Davidson during initial phase
 perform sub-space diagonalisation
    before iterative eigenvector-optimisation
 no mixing
 using additional bands           55
 real space projection scheme for non local part
 use partial core corrections
 calculate Harris-corrections to forces 
   (improved forces if not selfconsistent)
 use gradient corrections 
 WARNING: stress and forces are not correct
  (second derivative of E(xc) not defined)
 use of overlap-Matrix (Vanderbilt PP)
 Fermi weights with tetrahedron method with Bloechl corrections


--------------------------------------------------------------------------------------------------------


  energy-cutoff  :      500.00
  volume of cell :     1493.16
      direct lattice vectors                 reciprocal lattice vectors
     8.813512802  0.000000000  0.000000000     0.113462137 -0.065507406  0.000000000
     4.406756909  7.632725690  0.000000000     0.000000000  0.131014796  0.000000000
     0.000000000  0.000000000 22.196203232     0.000000000  0.000000000  0.045052750

  length of vectors
     8.813512802  8.813512802 22.196203232     0.131014796  0.131014796  0.045052750


 
 k-points in units of 2pi/SCALE and weight: Automatic mesh                          
   0.00000000  0.00000000  0.00000000       0.016
   0.01418277 -0.00818843  0.00000000       0.094
   0.02836553 -0.01637685  0.00000000       0.094
   0.04254830 -0.02456528  0.00000000       0.094
   0.05673107 -0.03275370  0.00000000       0.047
   0.02836553 -0.00000000  0.00000000       0.094
   0.04254830 -0.00818843  0.00000000       0.188
   0.05673107 -0.01637685  0.00000000       0.188
   0.05673107 -0.00000000  0.00000000       0.094
  -0.04254830  0.05731898  0.00000000       0.094
 
 k-points in reciprocal lattice and weights: Automatic mesh                          
   0.00000000  0.00000000  0.00000000       0.016
   0.12500000 -0.00000000  0.00000000       0.094
   0.25000000 -0.00000000  0.00000000       0.094
   0.37500000  0.00000000  0.00000000       0.094
   0.50000000 -0.00000000  0.00000000       0.047
   0.25000000  0.12500000  0.00000000       0.094
   0.37500000  0.12500000  0.00000000       0.188
   0.50000000  0.12500000  0.00000000       0.188
   0.50000000  0.25000000  0.00000000       0.094
  -0.37500000  0.25000000  0.00000000       0.094
 
 position of ions in fractional coordinates (direct lattice) 
   0.00000000  0.00000000  0.23789564
   0.33333334  0.00000000  0.23789564
   0.66666669  0.00000000  0.23789564
   0.00000000  0.33333334  0.23789564
   0.33333331  0.33333334  0.23789564
   0.66666669  0.33333334  0.23789564
   0.00000000  0.66666669  0.23789564
   0.33333334  0.66666669  0.23789564
   0.66666663  0.66666669  0.23789564
   0.11111112  0.11111111  0.34596521
   0.44444442  0.11111111  0.34596521
   0.77777779  0.11111111  0.34596521
   0.11111113  0.44444445  0.34596521
   0.44444448  0.44444445  0.34596521
   0.77777773  0.44444445  0.34596521
   0.11111109  0.77777779  0.34596521
   0.44444445  0.77777779  0.34596521
   0.77777785  0.77777779  0.34596521
   0.88861264  0.22277473  0.45418961
   0.22166488  0.22166487  0.45224747
   0.55667030  0.22166487  0.45224747
   0.88669359  0.55665324  0.45328661
   0.22166484  0.55667030  0.45224747
   0.55665324  0.55665324  0.45328661
   0.88861264  0.88861264  0.45418961
   0.22277476  0.88861264  0.45418961
   0.55665318  0.88669359  0.45328661
   0.00000000  0.00000000  0.56298766
   0.33331419  0.00525366  0.56239718
   0.66143219  0.00525366  0.56239718
   0.00525366  0.33331419  0.56239718
   0.66143219  0.33331419  0.56239718
   0.00525366  0.66143219  0.56239718
   0.33331419  0.66143219  0.56239718
   0.66666663  0.66666669  0.56278609
   0.33333331  0.33333334  0.55128684
 
 position of ions in cartesian coordinates  (Angst):
   0.00000000  0.00000000  5.28037993
   2.93783769  0.00000000  5.28037993
   5.87567538  0.00000000  5.28037993
   1.46891901  2.54424197  5.28037993
   4.40675643  2.54424197  5.28037993
   7.34459439  2.54424197  5.28037993
   2.93783803  5.08848395  5.28037993
   5.87567571  5.08848395  5.28037993
   8.81351288  5.08848395  5.28037993
   1.46891893  0.84808064  7.67911405
   4.40675623  0.84808064  7.67911405
   7.34459418  0.84808064  7.67911405
   2.93783798  3.39232256  7.67911405
   5.87567574  3.39232256  7.67911405
   8.81351263  3.39232256  7.67911405
   4.40675667  5.93656453  7.67911405
   7.34459449  5.93656453  7.67911405
  10.28243270  5.93656453  7.67911405
   8.81351299  1.70037842 10.08128487
   2.93046944  1.69190711 10.03817665
   5.88304398  1.69190711 10.03817665
  10.26792078  4.24878146 10.06124176
   4.40675655  4.24891169 10.03817665
   7.35910592  4.24878146 10.06124176
  11.74769880  6.78253654 10.08128487
   5.87932811  6.78253654 10.08128487
   8.81351299  6.76788893 10.06124176
   0.00000000  0.00000000 12.49618859
   2.96082043  0.04009971 12.48308208
   5.85269264  0.04009971 12.48308208
   1.51513775  2.54409576 12.48308208
   7.29837565  2.54409576 12.48308208
   2.96107402  5.04853045 12.48308208
   5.85243972  5.04853045 12.48308208
   8.81351288  5.08848395 12.49171444
   4.40675643  2.54424197 12.23647475
 


--------------------------------------------------------------------------------------------------------


 k-point   1 :   0.0000 0.0000 0.0000  plane waves:   37827
 k-point   2 :   0.1250-0.0000 0.0000  plane waves:   37876
 k-point   3 :   0.2500-0.0000 0.0000  plane waves:   37924
 k-point   4 :   0.3750 0.0000 0.0000  plane waves:   37904
 k-point   5 :   0.5000-0.0000 0.0000  plane waves:   37912
 k-point   6 :   0.2500 0.1250 0.0000  plane waves:   37858
 k-point   7 :   0.3750 0.1250 0.0000  plane waves:   37928
 k-point   8 :   0.5000 0.1250 0.0000  plane waves:   37924
 k-point   9 :   0.5000 0.2500 0.0000  plane waves:   37926
 k-point  10 :  -0.3750 0.2500 0.0000  plane waves:   37916

 maximum and minimum number of plane-waves per node :     37928    37827

 maximum number of plane-waves:     37928
 maximum index in each direction: 
   IXMAX=   16   IYMAX=   16   IZMAX=   40
   IXMIN=  -16   IYMIN=  -16   IZMIN=  -40


 serial   3D FFT for wavefunctions
 parallel 3D FFT for charge:
    minimum data exchange during FFTs selected (reduces bandwidth)


 total amount of memory used by VASP MPI-rank0   121489. kBytes
=======================================================================

   base      :      30000. kBytes
   nonlr-proj:      13901. kBytes
   fftplans  :       4330. kBytes
   grid      :      17098. kBytes
   one-center:        559. kBytes
   wavefun   :      55601. kBytes
 
     INWAV:  cpu time    0.0000: real time    0.0001
 initial charge density was supplied:
 number of electron     393.9999939 magnetization 
 keeping initial charge density in first step


--------------------------------------------------------------------------------------------------------


 Maximum index for non-local projection operator         2759
 Maximum index for augmentation-charges          861 (set IRDMAX)


--------------------------------------------------------------------------------------------------------


 First call to EWALD:  gamma=   0.155
 Maximum number of real-space cells 4x 4x 2
 Maximum number of reciprocal cells 2x 2x 5

    FEWALD:  cpu time    0.0015: real time    0.0015


--------------------------------------- Iteration      1(   1)  ---------------------------------------


    POTLOK:  cpu time    0.0779: real time    0.0784
    SETDIJ:  cpu time    0.0056: real time    0.0058
     EDDAV:  cpu time   12.3113: real time   12.3433
 BZINTS: Fermi energy:   11.420030;  394.000000 electrons
         Band energy: 0.154476E+04;  BLOECHL correction:   -0.018702
       DOS:  cpu time    0.0105: real time    0.0106
    --------------------------------------------
      LOOP:  cpu time   12.4054: real time   12.4381

 eigenvalue-minimisations  :  5040
 total energy-change (2. order) : 0.2612356E+04  (-0.1782159E+05)
 number of electron     393.9999939 magnetization 
 augmentation part      393.9999939 magnetization 

 Free energy of the ion-electron system (eV)
  ---------------------------------------------------
  alpha Z        PSCENC =      1011.37438709
  Ewald energy   TEWEN  =     96959.83451995
  -Hartree energ DENC   =   -131144.88482333
  -exchange      EXHF   =         0.00000000
  -V(xc)+E(xc)   XCENC  =       499.96171413
  PAW double counting   =     35854.03372607   -35085.79518766
  entropy T*S    EENTRO =         0.00000000
  eigenvalues    EBANDS =      1544.76398483
  atomic energy  EATOM  =     32973.06771690
  Solvation  Ediel_sol  =         0.00000000
  ---------------------------------------------------
  free energy    TOTEN  =      2612.35603798 eV

  energy without entropy =     2612.35603798  energy(sigma->0) =     2612.35603798


--------------------------------------------------------------------------------------------------------




--------------------------------------- Iteration      1(   2)  ---------------------------------------


     EDDAV:  cpu time   13.2443: real time   13.3105
 BZINTS: Fermi energy:    1.318608;  394.000000 electrons
         Band energy:-0.105465E+04;  BLOECHL correction:   -0.068806
       DOS:  cpu time    0.0101: real time    0.0101
    --------------------------------------------
      LOOP:  cpu time   13.2544: real time   13.3206

 eigenvalue-minimisations  :  5600
 total energy-change (2. order) :-0.2599417E+04  (-0.2381274E+04)
 number of electron     393.9999939 magnetization 
 augmentation part      393.9999939 magnetization 

 Free energy of the ion-electron system (eV)
  ---------------------------------------------------
  alpha Z        PSCENC =      1011.37438709
  Ewald energy   TEWEN  =     96959.83451995
  -Hartree energ DENC   =   -131144.88482333
  -exchange      EXHF   =         0.00000000
  -V(xc)+E(xc)   XCENC  =       499.96171413
  PAW double counting   =     35854.03372607   -35085.79518766
  entropy T*S    EENTRO =         0.00000000
  eigenvalues    EBANDS =     -1054.65259199
  atomic energy  EATOM  =     32973.06771690
  Solvation  Ediel_sol  =         0.00000000
  ---------------------------------------------------
  free energy    TOTEN  =        12.93946116 eV

  energy without entropy =       12.93946116  energy(sigma->0) =       12.93946116


--------------------------------------------------------------------------------------------------------




--------------------------------------- Iteration      1(   3)  ---------------------------------------


     EDDAV:  cpu time   11.3436: real time   11.3626
 BZINTS: Fermi energy:    0.677564;  394.000000 electrons
         Band energy:-0.117899E+04;  BLOECHL correction:   -0.098357
       DOS:  cpu time    0.0101: real time    0.0101
    --------------------------------------------
      LOOP:  cpu time   11.3537: real time   11.3727

 eigenvalue-minimisations  :  5852
 total energy-change (2. order) :-0.1243398E+03  (-0.1200070E+03)
 number of electron     393.9999939 magnetization 
 augmentation part      393.9999939 magnetization 

 Free energy of the ion-electron system (eV)
  ---------------------------------------------------
  alpha Z        PSCENC =      1011.37438709
  Ewald energy   TEWEN  =     96959.83451995
  -Hartree energ DENC   =   -131144.88482333
  -exchange      EXHF   =         0.00000000
  -V(xc)+E(xc)   XCENC  =       499.96171413
  PAW double counting   =     35854.03372607   -35085.79518766
  entropy T*S    EENTRO =         0.00000000
  eigenvalues    EBANDS =     -1178.99235918
  atomic energy  EATOM  =     32973.06771690
  Solvation  Ediel_sol  =         0.00000000
  ---------------------------------------------------
  free energy    TOTEN  =      -111.40030603 eV

  energy without entropy =     -111.40030603  energy(sigma->0) =     -111.40030603


--------------------------------------------------------------------------------------------------------




--------------------------------------- Iteration      1(   4)  ---------------------------------------


     EDDAV:  cpu time    9.9736: real time    9.9783
 BZINTS: Fermi energy:    0.663698;  394.000000 electrons
         Band energy:-0.118137E+04;  BLOECHL correction:   -0.096971
       DOS:  cpu time    0.0106: real time    0.0106
    --------------------------------------------
      LOOP:  cpu time    9.9842: real time    9.9888

 eigenvalue-minimisations  :  6020
 total energy-change (2. order) :-0.2379876E+01  (-0.2377428E+01)
 number of electron     393.9999939 magnetization 
 augmentation part      393.9999939 magnetization 

 Free energy of the ion-electron system (eV)
  ---------------------------------------------------
  alpha Z        PSCENC =      1011.37438709
  Ewald energy   TEWEN  =     96959.83451995
  -Hartree energ DENC   =   -131144.88482333
  -exchange      EXHF   =         0.00000000
  -V(xc)+E(xc)   XCENC  =       499.96171413
  PAW double counting   =     35854.03372607   -35085.79518766
  entropy T*S    EENTRO =         0.00000000
  eigenvalues    EBANDS =     -1181.37223551
  atomic energy  EATOM  =     32973.06771690
  Solvation  Ediel_sol  =         0.00000000
  ---------------------------------------------------
  free energy    TOTEN  =      -113.78018237 eV

  energy without entropy =     -113.78018237  energy(sigma->0) =     -113.78018237


--------------------------------------------------------------------------------------------------------




--------------------------------------- Iteration      1(   5)  ---------------------------------------


     EDDAV:  cpu time   12.8695: real time   12.9354
 BZINTS: Fermi energy:    0.663357;  394.000000 electrons
         Band energy:-0.118143E+04;  BLOECHL correction:   -0.096881
       DOS:  cpu time    0.0115: real time    0.0115
    --------------------------------------------
      LOOP:  cpu time   12.8810: real time   12.9469

 eigenvalue-minimisations  :  6048
 total energy-change (2. order) :-0.5508101E-01  (-0.5513729E-01)
 number of electron     393.9999939 magnetization 
 augmentation part      393.9999939 magnetization 

 Free energy of the ion-electron system (eV)
  ---------------------------------------------------
  alpha Z        PSCENC =      1011.37438709
  Ewald energy   TEWEN  =     96959.83451995
  -Hartree energ DENC   =   -131144.88482333
  -exchange      EXHF   =         0.00000000
  -V(xc)+E(xc)   XCENC  =       499.96171413
  PAW double counting   =     35854.03372607   -35085.79518766
  entropy T*S    EENTRO =         0.00000000
  eigenvalues    EBANDS =     -1181.42731652
  atomic energy  EATOM  =     32973.06771690
  Solvation  Ediel_sol  =         0.00000000
  ---------------------------------------------------
  free energy    TOTEN  =      -113.83526338 eV

  energy without entropy =     -113.83526338  energy(sigma->0) =     -113.83526338


--------------------------------------------------------------------------------------------------------




--------------------------------------- Iteration      1(   6)  ---------------------------------------


    EDDIAG:  cpu time    2.0997: real time    2.1007
  RMM-DIIS:  cpu time    6.5247: real time    6.5312
    ORTHCH:  cpu time    0.3534: real time    0.3535
 BZINTS: Fermi energy:    0.663349;  394.000000 electrons
         Band energy:-0.118143E+04;  BLOECHL correction:   -0.096875
       DOS:  cpu time    0.0118: real time    0.0118
    --------------------------------------------
      LOOP:  cpu time    8.9897: real time    8.9972

 eigenvalue-minimisations  :  5058
 total energy-change (2. order) :-0.1724630E-02  (-0.1729970E-02)
 number of electron     393.9999939 magnetization 
 augmentation part      393.9999939 magnetization 

 Free energy of the ion-electron system (eV)
  ---------------------------------------------------
  alpha Z        PSCENC =      1011.37438709
  Ewald energy   TEWEN  =     96959.83451995
  -Hartree energ DENC   =   -131144.88482333
  -exchange      EXHF   =         0.00000000
  -V(xc)+E(xc)   XCENC  =       499.96171413
  PAW double counting   =     35854.03372607   -35085.79518766
  entropy T*S    EENTRO =         0.00000000
  eigenvalues    EBANDS =     -1181.42904115
  atomic energy  EATOM  =     32973.06771690
  Solvation  Ediel_sol  =         0.00000000
  ---------------------------------------------------
  free energy    TOTEN  =      -113.83698801 eV

  energy without entropy =     -113.83698801  energy(sigma->0) =     -113.83698801


--------------------------------------------------------------------------------------------------------




--------------------------------------- Iteration      1(   7)  ---------------------------------------


    EDDIAG:  cpu time    2.0809: real time    2.0832
  RMM-DIIS:  cpu time    9.0862: real time    9.0895
    ORTHCH:  cpu time    0.3750: real time    0.3750
 BZINTS: Fermi energy:    0.663347;  394.000000 electrons
         Band energy:-0.118143E+04;  BLOECHL correction:   -0.096873
       DOS:  cpu time    0.0118: real time    0.0118
    --------------------------------------------
      LOOP:  cpu time   11.5539: real time   11.5595

 eigenvalue-minimisations  :  7177
 total energy-change (2. order) :-0.5631662E-03  (-0.5627321E-03)
 number of electron     393.9999939 magnetization 
 augmentation part      393.9999939 magnetization 

 Free energy of the ion-electron system (eV)
  ---------------------------------------------------
  alpha Z        PSCENC =      1011.37438709
  Ewald energy   TEWEN  =     96959.83451995
  -Hartree energ DENC   =   -131144.88482333
  -exchange      EXHF   =         0.00000000
  -V(xc)+E(xc)   XCENC  =       499.96171413
  PAW double counting   =     35854.03372607   -35085.79518766
  entropy T*S    EENTRO =         0.00000000
  eigenvalues    EBANDS =     -1181.42960432
  atomic energy  EATOM  =     32973.06771690
  Solvation  Ediel_sol  =         0.00000000
  ---------------------------------------------------
  free energy    TOTEN  =      -113.83755117 eV

  energy without entropy =     -113.83755117  energy(sigma->0) =     -113.83755117


--------------------------------------------------------------------------------------------------------




--------------------------------------- Iteration      1(   8)  ---------------------------------------


    EDDIAG:  cpu time    2.0636: real time    2.0664
  RMM-DIIS:  cpu time    6.9700: real time    7.0299
    ORTHCH:  cpu time    0.3885: real time    0.3894
 BZINTS: Fermi energy:    0.663347;  394.000000 electrons
         Band energy:-0.118143E+04;  BLOECHL correction:   -0.096873
       DOS:  cpu time    0.0127: real time    0.0127
    --------------------------------------------
      LOOP:  cpu time    9.4348: real time    9.4984

 eigenvalue-minimisations  :  5448
 total energy-change (2. order) :-0.1770354E-04  (-0.1725106E-04)
 number of electron     393.9999939 magnetization 
 augmentation part      393.9999939 magnetization 

 Free energy of the ion-electron system (eV)
  ---------------------------------------------------
  alpha Z        PSCENC =      1011.37438709
  Ewald energy   TEWEN  =     96959.83451995
  -Hartree energ DENC   =   -131144.88482333
  -exchange      EXHF   =         0.00000000
  -V(xc)+E(xc)   XCENC  =       499.96171413
  PAW double counting   =     35854.03372607   -35085.79518766
  entropy T*S    EENTRO =         0.00000000
  eigenvalues    EBANDS =     -1181.42962202
  atomic energy  EATOM  =     32973.06771690
  Solvation  Ediel_sol  =         0.00000000
  ---------------------------------------------------
  free energy    TOTEN  =      -113.83756888 eV

  energy without entropy =     -113.83756888  energy(sigma->0) =     -113.83756888


--------------------------------------------------------------------------------------------------------




--------------------------------------- Iteration      1(   9)  ---------------------------------------


    EDDIAG:  cpu time    2.0799: real time    2.0814
  RMM-DIIS:  cpu time    5.6061: real time    5.6090
    ORTHCH:  cpu time    0.3703: real time    0.3709
 BZINTS: Fermi energy:    0.663347;  394.000000 electrons
         Band energy:-0.118143E+04;  BLOECHL correction:   -0.096873
       DOS:  cpu time    0.0096: real time    0.0096
    --------------------------------------------
      LOOP:  cpu time    8.0660: real time    8.0709

 eigenvalue-minimisations  :  3700
 total energy-change (2. order) :-0.4556496E-05  (-0.4538682E-05)
 number of electron     393.9999939 magnetization 
 augmentation part      393.9999939 magnetization 

 Free energy of the ion-electron system (eV)
  ---------------------------------------------------
  alpha Z        PSCENC =      1011.37438709
  Ewald energy   TEWEN  =     96959.83451995
  -Hartree energ DENC   =   -131144.88482333
  -exchange      EXHF   =         0.00000000
  -V(xc)+E(xc)   XCENC  =       499.96171413
  PAW double counting   =     35854.03372607   -35085.79518766
  entropy T*S    EENTRO =         0.00000000
  eigenvalues    EBANDS =     -1181.42962658
  atomic energy  EATOM  =     32973.06771690
  Solvation  Ediel_sol  =         0.00000000
  ---------------------------------------------------
  free energy    TOTEN  =      -113.83757343 eV

  energy without entropy =     -113.83757343  energy(sigma->0) =     -113.83757343


--------------------------------------------------------------------------------------------------------




 average (electrostatic) potential at core
  the test charge radii are     1.2098  1.2793
  (the norm of the test charge is              1.0000)
       1 -72.4032       2 -72.3603       3 -72.3602       4 -72.3603       5 -72.3713
       6 -72.3600       7 -72.3602       8 -72.3600       9 -72.3609      10 -72.7289
      11 -72.6812      12 -72.7285      13 -72.6812      14 -72.6809      15 -72.6999
      16 -72.7285      17 -72.6999      18 -72.6999      19 -72.6387      20 -72.6923
      21 -72.6919      22 -72.6605      23 -72.6919      24 -72.6603      25 -72.6385
      26 -72.6387      27 -72.6605      28 -72.2671      29 -72.2988      30 -72.2987
      31 -72.2988      32 -72.2986      33 -72.2987      34 -72.2986      35 -72.2720
      36 -56.7135
 
 
 
 E-fermi :   0.6633     XC(G=0):  -6.0939     alpha+bet : -5.7146

 Fermi energy:         0.6633465626

 k-point     1 :       0.0000    0.0000    0.0000
  band No.  band energies     occupation 
      1      -8.1497      2.00000
      2      -6.9780      2.00000
      3      -6.0257      2.00000
      4      -6.0057      2.00000
      5      -5.9896      2.00000
      6      -5.9896      2.00000
      7      -5.9634      2.00000
      8      -5.9630      2.00000
      9      -5.9630      2.00000
     10      -5.8993      2.00000
     11      -5.5050      2.00000
     12      -5.4921      2.00000
     13      -5.4921      2.00000
     14      -5.4858      2.00000
     15      -5.4766      2.00000
     16      -5.4766      2.00000
     17      -5.1185      2.00000
     18      -5.1158      2.00000
     19      -5.1158      2.00000
     20      -5.1072      2.00000
     21      -5.0892      2.00000
     22      -5.0892      2.00000
     23      -4.9422      2.00000
     24      -4.9357      2.00000
     25      -4.9354      2.00000
     26      -4.9353      2.00000
     27      -4.9163      2.00000
     28      -4.9162      2.00000
     29      -4.7744      2.00000
     30      -4.7744      2.00000
     31      -4.7628      2.00000
     32      -4.7628      2.00000
     33      -4.7489      2.00000
     34      -4.7380      2.00000
     35      -4.7361      2.00000
     36      -4.7361      2.00000
     37      -4.7305      2.00000
     38      -4.7007      2.00000
     39      -4.6670      2.00000
     40      -4.6670      2.00000
     41      -4.2727      2.00000
     42      -4.2727      2.00000
     43      -4.2263      2.00000
     44      -4.2019      2.00000
     45      -4.2019      2.00000
     46      -4.1943      2.00000
     47      -4.1943      2.00000
     48      -4.1921      2.00000
     49      -4.1790      2.00000
     50      -4.1790      2.00000
     51      -4.1156      2.00000
     52      -4.1091      2.00000
     53      -4.0383      2.00000
     54      -4.0219      2.00000
     55      -3.6782      2.00000
     56      -3.6756      2.00000
     57      -3.6647      2.00000
     58      -3.6647      2.00000
     59      -3.6543      2.00000
     60      -3.6430      2.00000
     61      -3.6430      2.00000
     62      -3.6142      2.00000
     63      -3.6142      2.00000
     64      -3.5401      2.00000
     65      -3.5401      2.00000
     66      -3.5070      2.00000
     67      -3.4969      2.00000
     68      -3.4969      2.00000
     69      -3.4362      2.00000
     70      -3.4362      2.00000
     71      -3.4249      2.00000
     72      -3.4158      2.00000
     73      -3.4101      2.00000
     74      -3.4101      2.00000
     75      -3.3982      2.00000
     76      -3.3982      2.00000
     77      -3.3935      2.00000
     78      -3.3772      2.00000
     79      -3.3772      2.00000
     80      -3.3255      2.00000
     81      -3.3254      2.00000
     82      -3.3061      2.00000
     83      -3.2970      2.00000
     84      -3.2969      2.00000
     85      -3.2764      2.00000
     86      -3.2764      2.00000
     87      -3.2754      2.00000
     88      -3.2669      2.00000
     89      -3.1945      2.00000
     90      -3.1945      2.00000
     91      -3.0383      2.00000
     92      -3.0382      2.00000
     93      -3.0068      2.00000
     94      -3.0068      2.00000
     95      -2.9988      2.00000
     96      -2.9988      2.00000
     97      -2.8998      2.00000
     98      -2.8997      2.00000
     99      -2.8136      2.00000
    100      -2.8072      2.00000
    101      -2.8072      2.00000
    102      -2.7756      2.00000
    103      -2.7538      2.00000
    104      -2.7537      2.00000
    105      -2.6722      2.00000
    106      -2.6721      2.00000
    107      -2.6256      2.00000
    108      -2.5928      2.00000
    109      -2.5823      2.00000
    110      -2.5823      2.00000
    111      -2.5636      2.00000
    112      -2.5403      2.00000
    113      -2.5403      2.00000
    114      -2.4790      2.00000
    115      -2.4701      2.00000
    116      -2.3383      2.00000
    117      -2.3223      2.00000
    118      -2.3223      2.00000
    119      -2.3022      2.00000
    120      -2.3022      2.00000
    121      -2.2732      2.00000
    122      -2.2462      2.00000
    123      -2.2462      2.00000
    124      -2.2289      2.00000
    125      -2.2288      2.00000
    126      -2.1493      2.00000
    127      -2.1493      2.00000
    128      -2.0475      2.00000
    129      -2.0378      2.00000
    130      -2.0378      2.00000
    131      -2.0279      2.00000
    132      -2.0240      2.00000
    133      -2.0235      2.00000
    134      -2.0235      2.00000
    135      -2.0173      2.00000
    136      -2.0173      2.00000
    137      -1.9940      2.00000
    138      -1.9940      2.00000
    139      -1.9236      2.00000
    140      -1.9048      2.00000
    141      -1.9047      2.00000
    142      -1.7873      2.00000
    143      -1.7756      2.00000
    144      -1.7756      2.00000
    145      -1.7542      2.00000
    146      -1.7542      2.00000
    147      -1.7466      2.00000
    148      -1.7422      2.00000
    149      -1.7421      2.00000
    150      -1.7145      2.00000
    151      -1.7086      2.00000
    152      -1.7086      2.00000
    153      -1.7085      2.00000
    154      -1.6013      2.00000
    155      -1.5865      2.00000
    156      -1.5804      2.00000
    157      -1.5804      2.00000
    158      -1.5777      2.00000
    159      -1.5596      2.00000
    160      -1.5596      2.00000
    161      -1.5583      2.00000
    162      -1.5156      2.00000
    163      -1.5156      2.00000
    164      -1.5024      2.00000
    165      -1.5024      2.00000
    166      -1.4994      2.00000
    167      -1.4994      2.00000
    168      -1.4746      2.00000
    169      -1.4746      2.00000
    170      -1.4739      2.00000
    171      -1.4677      2.00000
    172      -1.4624      2.00000
    173      -1.4571      2.00000
    174      -1.4571      2.00000
    175      -1.4535      2.00000
    176      -1.4186      2.00000
    177      -1.3929      2.00000
    178      -1.3875      2.00000
    179      -1.3874      2.00000
    180      -1.3596      2.00000
    181      -1.3596      2.00000
    182      -1.3396      2.00000
    183      -1.2910      2.00000
    184      -1.2909      2.00000
    185      -1.1981      2.00000
    186      -1.1981      2.00000
    187      -1.1513      2.00000
    188      -1.1512      2.00000
    189      -1.1401      2.00000
    190      -1.1230      2.00000
    191      -0.3662      2.00000
    192      -0.2888      2.00000
    193      -0.1636      2.00000
    194      -0.1636      2.00000
    195       0.0298      2.00000
    196       0.0299      2.00000
    197       0.1229      2.00000
    198       0.2355      2.00000
    199       0.2355      2.00000
    200       0.3711      2.00000
    201       0.3711      2.00000
    202       0.6427      0.17167
    203       1.0858      0.00000
    204       2.2504      0.00000
    205       2.2959      0.00000
    206       2.2959      0.00000
    207       2.4766      0.00000
    208       2.5001      0.00000
    209       2.5002      0.00000
    210       3.4708      0.00000
    211       3.4708      0.00000
    212       3.5156      0.00000
    213       3.5548      0.00000
    214       3.5548      0.00000
    215       3.5964      0.00000
    216       4.1086      0.00000
    217       4.3118      0.00000
    218       5.2921      0.00000
    219       5.3315      0.00000
    220       5.3612      0.00000
    221       5.3612      0.00000
    222       5.4002      0.00000
    223       5.4003      0.00000
    224       5.4886      0.00000
    225       5.4886      0.00000
    226       5.4892      0.00000
    227       5.5598      0.00000
    228       5.5599      0.00000
    229       5.6499      0.00000
    230       6.1434      0.00000
    231       6.2062      0.00000
    232       6.9238      0.00000
    233       6.9893      0.00000
    234       7.0623      0.00000
    235       7.0624      0.00000
    236       7.0664      0.00000
    237       7.0744      0.00000
    238       7.0745      0.00000
    239       7.1464      0.00000
    240       7.1553      0.00000
    241       7.1556      0.00000
    242       7.2104      0.00000
    243       7.2106      0.00000
    244       7.4056      0.00000
    245       7.4063      0.00000
    246       7.4321      0.00000
    247       7.4528      0.00000
    248       7.4545      0.00000
    249       7.5414      0.00000
    250       7.8386      0.00000
    251       7.8934      0.00000
    252       8.0662      0.00000

 k-point     2 :       0.1250   -0.0000    0.0000
  band No.  band energies     occupation 
      1      -8.0987      2.00000
      2      -6.9279      2.00000
      3      -6.2355      2.00000
      4      -6.0591      2.00000
      5      -6.0534      2.00000
      6      -5.9766      2.00000
      7      -5.8710      2.00000
      8      -5.8609      2.00000
      9      -5.8532      2.00000
     10      -5.8442      2.00000
     11      -5.5293      2.00000
     12      -5.5182      2.00000
     13      -5.4733      2.00000
     14      -5.4688      2.00000
     15      -5.4591      2.00000
     16      -5.4515      2.00000
     17      -5.1668      2.00000
     18      -5.1145      2.00000
     19      -5.1113      2.00000
     20      -5.0800      2.00000
     21      -5.0614      2.00000
     22      -5.0583      2.00000
     23      -5.0210      2.00000
     24      -4.9656      2.00000
     25      -4.9555      2.00000
     26      -4.8868      2.00000
     27      -4.8845      2.00000
     28      -4.8438      2.00000
     29      -4.8384      2.00000
     30      -4.8223      2.00000
     31      -4.8151      2.00000
     32      -4.8072      2.00000
     33      -4.7742      2.00000
     34      -4.7299      2.00000
     35      -4.7167      2.00000
     36      -4.6456      2.00000
     37      -4.6356      2.00000
     38      -4.6279      2.00000
     39      -4.6211      2.00000
     40      -4.6158      2.00000
     41      -4.3386      2.00000
     42      -4.3378      2.00000
     43      -4.2854      2.00000
     44      -4.2556      2.00000
     45      -4.2428      2.00000
     46      -4.2361      2.00000
     47      -4.2330      2.00000
     48      -4.1532      2.00000
     49      -4.1423      2.00000
     50      -4.0997      2.00000
     51      -4.0695      2.00000
     52      -4.0608      2.00000
     53      -4.0339      2.00000
     54      -4.0202      2.00000
     55      -3.7281      2.00000
     56      -3.7052      2.00000
     57      -3.6988      2.00000
     58      -3.6938      2.00000
     59      -3.6840      2.00000
     60      -3.6667      2.00000
     61      -3.6518      2.00000
     62      -3.6478      2.00000
     63      -3.6227      2.00000
     64      -3.5901      2.00000
     65      -3.5811      2.00000
     66      -3.5755      2.00000
     67      -3.5690      2.00000
     68      -3.5258      2.00000
     69      -3.5246      2.00000
     70      -3.5131      2.00000
     71      -3.4828      2.00000
     72      -3.4551      2.00000
     73      -3.4515      2.00000
     74      -3.4410      2.00000
     75      -3.4312      2.00000
     76      -3.4159      2.00000
     77      -3.3594      2.00000
     78      -3.3517      2.00000
     79      -3.3506      2.00000
     80      -3.3322      2.00000
     81      -3.3076      2.00000
     82      -3.2909      2.00000
     83      -3.2564      2.00000
     84      -3.2556      2.00000
     85      -3.2395      2.00000
     86      -3.2310      2.00000
     87      -3.2189      2.00000
     88      -3.2122      2.00000
     89      -3.1661      2.00000
     90      -3.1220      2.00000
     91      -3.1152      2.00000
     92      -3.1069      2.00000
     93      -3.0476      2.00000
     94      -3.0287      2.00000
     95      -2.9395      2.00000
     96      -2.9168      2.00000
     97      -2.9154      2.00000
     98      -2.8955      2.00000
     99      -2.8746      2.00000
    100      -2.8572      2.00000
    101      -2.8511      2.00000
    102      -2.7882      2.00000
    103      -2.7773      2.00000
    104      -2.7169      2.00000
    105      -2.6902      2.00000
    106      -2.6779      2.00000
    107      -2.6407      2.00000
    108      -2.6256      2.00000
    109      -2.6054      2.00000
    110      -2.5940      2.00000
    111      -2.5929      2.00000
    112      -2.5857      2.00000
    113      -2.5481      2.00000
    114      -2.5374      2.00000
    115      -2.5258      2.00000
    116      -2.5133      2.00000
    117      -2.4970      2.00000
    118      -2.4940      2.00000
    119      -2.4461      2.00000
    120      -2.3434      2.00000
    121      -2.3393      2.00000
    122      -2.2726      2.00000
    123      -2.2664      2.00000
    124      -2.2550      2.00000
    125      -2.2156      2.00000
    126      -2.2140      2.00000
    127      -2.1971      2.00000
    128      -2.1922      2.00000
    129      -2.1626      2.00000
    130      -2.1384      2.00000
    131      -2.1162      2.00000
    132      -2.1060      2.00000
    133      -2.0821      2.00000
    134      -2.0261      2.00000
    135      -2.0223      2.00000
    136      -1.9865      2.00000
    137      -1.9629      2.00000
    138      -1.9562      2.00000
    139      -1.9434      2.00000
    140      -1.9409      2.00000
    141      -1.8912      2.00000
    142      -1.8855      2.00000
    143      -1.8512      2.00000
    144      -1.8313      2.00000
    145      -1.7617      2.00000
    146      -1.7494      2.00000
    147      -1.7484      2.00000
    148      -1.7176      2.00000
    149      -1.7176      2.00000
    150      -1.6972      2.00000
    151      -1.6967      2.00000
    152      -1.6755      2.00000
    153      -1.6307      2.00000
    154      -1.6020      2.00000
    155      -1.5982      2.00000
    156      -1.5821      2.00000
    157      -1.5756      2.00000
    158      -1.5587      2.00000
    159      -1.5526      2.00000
    160      -1.5272      2.00000
    161      -1.5192      2.00000
    162      -1.5152      2.00000
    163      -1.4979      2.00000
    164      -1.4920      2.00000
    165      -1.4763      2.00000
    166      -1.4754      2.00000
    167      -1.4601      2.00000
    168      -1.4406      2.00000
    169      -1.4405      2.00000
    170      -1.4084      2.00000
    171      -1.4066      2.00000
    172      -1.3950      2.00000
    173      -1.3613      2.00000
    174      -1.3413      2.00000
    175      -1.3354      2.00000
    176      -1.3176      2.00000
    177      -1.2762      2.00000
    178      -1.2496      2.00000
    179      -1.2375      2.00000
    180      -1.2311      2.00000
    181      -1.2147      2.00000
    182      -1.1975      2.00000
    183      -1.1806      2.00000
    184      -1.1679      2.00000
    185      -1.1506      2.00000
    186      -1.1286      2.00000
    187      -1.1040      2.00000
    188      -1.0222      2.00000
    189      -1.0214      2.00000
    190      -0.9341      2.00000
    191      -0.3886      2.00000
    192      -0.3107      2.00000
    193      -0.1887      2.00000
    194      -0.1823      2.00000
    195      -0.0228      2.00000
    196       0.0657      2.00000
    197       0.1573      2.00000
    198       0.2285      2.00000
    199       0.3243      2.00000
    200       0.5848      1.71846
    201       0.5945      1.12498
    202       0.8500     -0.01873
    203       1.2443      0.00000
    204       1.8930      0.00000
    205       2.1881      0.00000
    206       2.1919      0.00000
    207       2.6618      0.00000
    208       2.7048      0.00000
    209       2.8217      0.00000
    210       2.8236      0.00000
    211       2.9978      0.00000
    212       3.5725      0.00000
    213       3.5747      0.00000
    214       3.8104      0.00000
    215       3.8767      0.00000
    216       4.1404      0.00000
    217       4.2617      0.00000
    218       4.8193      0.00000
    219       5.0507      0.00000
    220       5.1036      0.00000
    221       5.1816      0.00000
    222       5.1817      0.00000
    223       5.3330      0.00000
    224       5.3582      0.00000
    225       5.5604      0.00000
    226       5.5877      0.00000
    227       5.6905      0.00000
    228       5.7404      0.00000
    229       5.7484      0.00000
    230       6.1880      0.00000
    231       6.3346      0.00000
    232       6.3767      0.00000
    233       6.6177      0.00000
    234       6.6348      0.00000
    235       6.7244      0.00000
    236       6.7473      0.00000
    237       6.7859      0.00000
    238       6.9487      0.00000
    239       6.9743      0.00000
    240       7.0270      0.00000
    241       7.0522      0.00000
    242       7.1573      0.00000
    243       7.4262      0.00000
    244       7.4551      0.00000
    245       7.4772      0.00000
    246       7.5234      0.00000
    247       7.6380      0.00000
    248       7.7780      0.00000
    249       7.7969      0.00000
    250       7.9106      0.00000
    251       7.9393      0.00000
    252       7.9440      0.00000

 k-point     3 :       0.2500   -0.0000    0.0000
  band No.  band energies     occupation 
      1      -7.9475      2.00000
      2      -6.7806      2.00000
      3      -6.5946      2.00000
      4      -6.1015      2.00000
      5      -6.0958      2.00000
      6      -5.8383      2.00000
      7      -5.8036      2.00000
      8      -5.7199      2.00000
      9      -5.7151      2.00000
     10      -5.7098      2.00000
     11      -5.6720      2.00000
     12      -5.5753      2.00000
     13      -5.4106      2.00000
     14      -5.4026      2.00000
     15      -5.3932      2.00000
     16      -5.3886      2.00000
     17      -5.2492      2.00000
     18      -5.1056      2.00000
     19      -5.0996      2.00000
     20      -5.0769      2.00000
     21      -5.0525      2.00000
     22      -5.0085      2.00000
     23      -5.0076      2.00000
     24      -4.9711      2.00000
     25      -4.9707      2.00000
     26      -4.9527      2.00000
     27      -4.9397      2.00000
     28      -4.9114      2.00000
     29      -4.9020      2.00000
     30      -4.8602      2.00000
     31      -4.7612      2.00000
     32      -4.7216      2.00000
     33      -4.7207      2.00000
     34      -4.6701      2.00000
     35      -4.6493      2.00000
     36      -4.6225      2.00000
     37      -4.6154      2.00000
     38      -4.5105      2.00000
     39      -4.5017      2.00000
     40      -4.4998      2.00000
     41      -4.4345      2.00000
     42      -4.4264      2.00000
     43      -4.3525      2.00000
     44      -4.2983      2.00000
     45      -4.2800      2.00000
     46      -4.2698      2.00000
     47      -4.2570      2.00000
     48      -4.1228      2.00000
     49      -4.1104      2.00000
     50      -4.0761      2.00000
     51      -4.0705      2.00000
     52      -4.0270      2.00000
     53      -4.0227      2.00000
     54      -4.0190      2.00000
     55      -3.9276      2.00000
     56      -3.8819      2.00000
[...]
  0.000   0.000   0.000   2.000   0.000   0.000   0.000   0.000   0.000   0.000   0.000   0.000   0.000   0.000   0.000   0.000
  0.000   0.000   0.000   0.000   2.000   0.000   0.000   0.000   0.000   0.000   0.000   0.000   0.000   0.000   0.000   0.000
  0.000   0.000   0.000   0.000   0.000   0.000   0.000   0.000   0.000   0.000   0.000   0.000   0.000   0.000   0.000   0.000
  0.000   0.000   0.000   0.000   0.000   0.000   0.000   0.000   0.000   0.000   0.000   0.000   0.000   0.000   0.000   0.000
  0.000   0.000   0.000   0.000   0.000   0.000   0.000   0.000   0.000   0.000   0.000   0.000   0.000   0.000   0.000   0.000
  0.000   0.000   0.000   0.000   0.000   0.000   0.000   0.000   0.000   0.000   0.000   0.000   0.000   0.000   0.000   0.000
  0.000   0.000   0.000   0.000   0.000   0.000   0.000   0.000   0.000   0.000   0.000   0.000   0.000   0.000   0.000   0.000
  0.000   0.000   0.000   0.000   0.000   0.000   0.000   0.000   0.000   0.000   1.000   0.000   0.000   0.000   0.000   0.000
  0.000   0.000   0.000   0.000   0.000   0.000   0.000   0.000   0.000   0.000   0.000   0.000   0.000   0.000   0.000   0.000
  0.000   0.000   0.000   0.000   0.000   0.000   0.000   0.000   0.000   0.000   0.000   0.000   0.000   0.000   0.000   0.000
  0.000   0.000   0.000   0.000   0.000   0.000   0.000   0.000   0.000   0.000   0.000   0.000   0.000   0.000   0.000   0.000
  0.000   0.000   0.000   0.000   0.000   0.000   0.000   0.000   0.000   0.000   0.000   0.000   0.000   0.000   0.000   0.000
  0.000   0.000   0.000   0.000   0.000   0.000   0.000   0.000   0.000   0.000   0.000   0.000   0.000   0.000   0.000   0.000
  0.000   0.000   0.000   0.000   0.000   0.000   0.000   0.000   0.000   0.000   0.000   0.000   0.000   0.000   0.000   0.000
  0.000   0.000   0.000   0.000   0.000   0.000   0.000   0.000   0.000   0.000   0.000   0.000   0.000   0.000   0.000   0.000


------------------------ aborting loop because EDIFF is reached ----------------------------------------





 total charge

# of ion       s       p       d       tot
------------------------------------------
    1        0.542   0.240   8.766   9.548
    2        0.545   0.240   8.765   9.551
    3        0.545   0.240   8.765   9.551
    4        0.545   0.240   8.765   9.551
    5        0.540   0.243   8.763   9.546
    6        0.545   0.240   8.765   9.551
    7        0.545   0.240   8.765   9.551
    8        0.545   0.240   8.765   9.551
    9        0.543   0.239   8.768   9.550
   10        0.522   0.310   8.766   9.598
   11        0.522   0.307   8.779   9.608
   12        0.522   0.310   8.766   9.598
   13        0.522   0.307   8.779   9.608
   14        0.522   0.307   8.779   9.608
   15        0.517   0.308   8.777   9.601
   16        0.522   0.310   8.766   9.598
   17        0.517   0.308   8.777   9.601
   18        0.517   0.308   8.777   9.601
   19        0.516   0.302   8.775   9.594
   20        0.534   0.329   8.755   9.618
   21        0.534   0.329   8.755   9.618
   22        0.510   0.308   8.778   9.596
   23        0.534   0.329   8.755   9.618
   24        0.510   0.308   8.778   9.596
   25        0.516   0.302   8.775   9.594
   26        0.516   0.302   8.775   9.594
   27        0.510   0.308   8.778   9.596
   28        0.537   0.229   8.769   9.535
   29        0.549   0.245   8.749   9.543
   30        0.549   0.245   8.749   9.543
   31        0.549   0.245   8.749   9.543
   32        0.549   0.245   8.749   9.543
   33        0.549   0.245   8.749   9.543
   34        0.549   0.245   8.749   9.543
   35        0.533   0.230   8.770   9.533
   36        0.532   0.306   6.979   7.817
--------------------------------------------------
tot         19.158   9.991 313.792 342.941
 
    CHARGE:  cpu time    0.5793: real time    0.5811
    FORLOC:  cpu time    0.0095: real time    0.0095
    FORNL :  cpu time    2.4353: real time    2.4370
    STRESS:  cpu time    7.2236: real time    7.2259
    FORCOR:  cpu time    0.0592: real time    0.0594
    FORHAR:  cpu time    0.0196: real time    0.0197
    OFIELD:  cpu time    0.0004: real time    0.0004

  FORCE on cell =-STRESS in cart. coord.  units (eV):
  Direction    XX          YY          ZZ          XY          YZ          ZX
  --------------------------------------------------------------------------------------
  Alpha Z  1011.37439  1011.37439  1011.37439
  Ewald  119661.17733119661.17773************    -0.00034    -0.00009    -0.00017
  Hartree128255.00586128255.00586************    -0.00000    -0.00002    -0.00004
  E(xc)   -1768.04427 -1768.04426 -1775.58333    -0.00001    -0.00000    -0.00000
  Local  ************************260575.41553     0.00173     0.00004     0.00009
  n-local   -98.90946   -42.48320   -45.69125    25.88045    -1.29152     1.64840
  augment  2406.08078  2406.08231  2423.44180    -0.00132     0.00002     0.00004
  Kinetic  5452.32928  5469.95144  5519.34078     7.56339    -0.39563     0.81214
  Fock        0.00000     0.00000     0.00000     0.00000     0.00000     0.00000
  -------------------------------------------------------------------------------------
  Total     -23.01665   -23.01665     3.27211    -0.00000    -0.00000     0.00000
  in kB     -24.69707   -24.69707     3.51100    -0.00000    -0.00000     0.00000
  external pressure =      -15.29 kB  Pullay stress =        0.00 kB


 VOLUME and BASIS-vectors are now :
 -----------------------------------------------------------------------------
  energy-cutoff  :      500.00
  volume of cell :     1493.16
      direct lattice vectors                 reciprocal lattice vectors
     8.813512802  0.000000000  0.000000000     0.113462137 -0.065507406  0.000000000
     4.406756909  7.632725690  0.000000000     0.000000000  0.131014796  0.000000000
     0.000000000  0.000000000 22.196203232     0.000000000  0.000000000  0.045052750

  length of vectors
     8.813512802  8.813512802 22.196203232     0.131014796  0.131014796  0.045052750


 FORCES acting on ions
    electron-ion (+dipol)            ewald-force                    non-local-force                 convergence-correction
 -----------------------------------------------------------------------------------------------
   -.198E-04 -.163E-04 0.248E+04   0.519E-04 0.433E-04 -.248E+04   0.141E-17 -.106E-17 -.875E+00   -.296E-03 -.184E-03 -.363E+00
   0.475E+00 0.245E+00 0.248E+04   -.447E+00 -.191E+00 -.248E+04   0.132E-01 -.265E-02 -.292E+00   -.384E-01 -.437E-01 -.342E+00
   -.475E+00 0.245E+00 0.248E+04   0.447E+00 -.191E+00 -.248E+04   -.132E-01 -.265E-02 -.292E+00   0.388E-01 -.418E-01 -.342E+00
   0.450E+00 0.289E+00 0.248E+04   -.389E+00 -.292E+00 -.248E+04   0.429E-02 0.127E-01 -.292E+00   -.570E-01 -.115E-01 -.343E+00
   0.698E-05 -.241E-04 0.248E+04   0.952E-04 0.174E-05 -.248E+04   -.287E-17 0.202E-17 -.242E+00   0.432E-02 0.262E-02 -.318E+00
   -.450E+00 0.289E+00 0.248E+04   0.389E+00 -.292E+00 -.248E+04   -.429E-02 0.127E-01 -.292E+00   0.554E-01 -.106E-01 -.342E+00
   -.254E-01 -.534E+00 0.248E+04   0.581E-01 0.483E+00 -.248E+04   -.887E-02 -.101E-01 -.292E+00   -.167E-01 0.545E-01 -.342E+00
   0.253E-01 -.534E+00 0.248E+04   -.583E-01 0.483E+00 -.248E+04   0.887E-02 -.101E-01 -.292E+00   0.186E-01 0.533E-01 -.342E+00
   0.198E-04 -.415E-04 0.248E+04   0.166E-03 -.200E-04 -.248E+04   -.522E-17 0.401E-18 -.435E+00   -.456E-02 -.236E-02 -.372E+00
   0.511E+01 0.295E+01 0.817E+03   -.473E+01 -.273E+01 -.816E+03   -.260E+00 -.150E+00 -.711E+00   -.729E-01 -.422E-01 0.228E+00
   0.139E-04 0.268E+01 0.820E+03   0.149E-03 -.272E+01 -.820E+03   -.134E-08 -.201E-01 -.375E+00   0.436E-02 0.150E-01 0.370E+00
   -.511E+01 0.295E+01 0.817E+03   0.473E+01 -.273E+01 -.816E+03   0.260E+00 -.150E+00 -.711E+00   0.711E-01 -.410E-01 0.228E+00
   0.232E+01 -.134E+01 0.820E+03   -.235E+01 0.136E+01 -.820E+03   -.174E-01 0.101E-01 -.375E+00   0.155E-01 -.346E-02 0.370E+00
   -.232E+01 -.134E+01 0.820E+03   0.235E+01 0.136E+01 -.820E+03   0.174E-01 0.101E-01 -.375E+00   -.777E-02 -.463E-02 0.369E+00
   0.316E-04 0.338E+01 0.819E+03   0.236E-03 -.339E+01 -.819E+03   -.279E-09 -.419E-02 -.431E+00   -.249E-02 -.190E-01 0.250E+00
   -.214E-04 -.590E+01 0.817E+03   0.163E-03 0.546E+01 -.816E+03   0.200E-07 0.300E+00 -.711E+00   -.176E-03 0.820E-01 0.228E+00
   0.292E+01 -.169E+01 0.819E+03   -.293E+01 0.169E+01 -.819E+03   -.363E-02 0.210E-02 -.431E+00   -.174E-01 0.776E-02 0.250E+00
   -.292E+01 -.169E+01 0.819E+03   0.293E+01 0.169E+01 -.819E+03   0.363E-02 0.210E-02 -.431E+00   0.180E-01 0.102E-01 0.252E+00
   -.411E-04 0.311E+01 -.873E+03   0.539E-04 -.308E+01 0.872E+03   -.407E-08 -.611E-01 0.401E+00   -.463E-02 0.279E-01 0.575E+00
   0.333E+01 0.192E+01 -.845E+03   -.335E+01 -.194E+01 0.844E+03   -.380E+00 -.219E+00 -.488E+00   0.402E+00 0.232E+00 0.115E+01
   -.333E+01 0.192E+01 -.845E+03   0.335E+01 -.194E+01 0.844E+03   0.380E+00 -.219E+00 -.488E+00   -.400E+00 0.232E+00 0.115E+01
   -.636E+01 0.367E+01 -.862E+03   0.579E+01 -.334E+01 0.861E+03   0.373E+00 -.215E+00 0.598E+00   0.203E+00 -.115E+00 0.652E+00
   -.131E-04 -.384E+01 -.845E+03   0.142E-03 0.387E+01 0.844E+03   0.292E-07 0.439E+00 -.488E+00   0.440E-03 -.462E+00 0.115E+01
   0.636E+01 0.367E+01 -.862E+03   -.579E+01 -.334E+01 0.861E+03   -.373E+00 -.215E+00 0.598E+00   -.203E+00 -.117E+00 0.651E+00
   -.269E+01 -.155E+01 -.873E+03   0.266E+01 0.154E+01 0.872E+03   0.529E-01 0.305E-01 0.401E+00   -.286E-01 -.165E-01 0.575E+00
   0.269E+01 -.155E+01 -.873E+03   -.266E+01 0.154E+01 0.872E+03   -.529E-01 0.305E-01 0.401E+00   0.222E-01 -.179E-01 0.575E+00
   0.762E-05 -.734E+01 -.862E+03   0.201E-03 0.668E+01 0.861E+03   0.286E-07 0.430E+00 0.598E+00   0.106E-02 0.233E+00 0.652E+00
   -.866E-05 -.105E-04 -.250E+04   0.265E-04 0.310E-04 0.249E+04   0.123E-16 0.218E-17 0.556E+00   -.339E-03 -.212E-03 0.551E+00
   -.179E+01 -.291E+01 -.250E+04   0.195E+01 0.301E+01 0.249E+04   -.488E+00 -.644E+00 0.214E+00   0.330E+00 0.541E+00 0.536E+00
   0.179E+01 -.291E+01 -.250E+04   -.195E+01 0.301E+01 0.249E+04   0.488E+00 -.644E+00 0.214E+00   -.329E+00 0.543E+00 0.535E+00
   -.341E+01 -.956E-01 -.250E+04   0.358E+01 0.185E+00 0.249E+04   -.802E+00 -.100E+00 0.214E+00   0.634E+00 0.151E-01 0.536E+00
   0.341E+01 -.956E-01 -.250E+04   -.358E+01 0.185E+00 0.249E+04   0.802E+00 -.100E+00 0.214E+00   -.635E+00 0.155E-01 0.536E+00
   -.162E+01 0.300E+01 -.250E+04   0.163E+01 -.320E+01 0.249E+04   -.314E+00 0.744E+00 0.214E+00   0.305E+00 -.556E+00 0.535E+00
   0.162E+01 0.300E+01 -.250E+04   -.163E+01 -.320E+01 0.249E+04   0.314E+00 0.744E+00 0.214E+00   -.304E+00 -.557E+00 0.536E+00
   0.299E-04 -.321E-04 -.250E+04   0.147E-03 -.464E-04 0.249E+04   -.138E-18 0.734E-18 0.637E+00   -.425E-02 -.216E-02 0.563E+00
   -.207E-04 -.860E-05 -.197E+04   0.926E-04 0.834E-05 0.197E+04   -.643E-18 0.226E-18 0.180E+01   0.215E-02 0.130E-02 0.661E+00
 -----------------------------------------------------------------------------------------------
   -.785E-03 -.772E-03 -.898E+01   -.126E-12 0.709E-13 -.102E-10   0.388E-15 -.221E-15 -.203E+01   -.361E-03 0.379E-03 0.116E+02
 
 
 POSITION                                       TOTAL-FORCE (eV/Angst)
 -----------------------------------------------------------------------------------
      0.00000      0.00000      5.28038         0.000000     -0.000000     -0.036268
      2.93784      0.00000      5.28038         0.003166      0.008738     -0.082786
      5.87568      0.00000      5.28038        -0.003166      0.008738     -0.082786
      1.46892      2.54424      5.28038         0.009150     -0.001627     -0.082786
      4.40676      2.54424      5.28038         0.000000     -0.000000     -0.116215
      7.34459      2.54424      5.28038        -0.009150     -0.001627     -0.082786
      2.93784      5.08848      5.28038         0.005984     -0.007111     -0.082786
      5.87568      5.08848      5.28038        -0.005984     -0.007111     -0.082786
      8.81351      5.08848      5.28038         0.000000     -0.000000     -0.076855
      1.46892      0.84808      7.67911         0.048677      0.028103      0.141428
      4.40676      0.84808      7.67911        -0.000000     -0.044261      0.023798
      7.34459      0.84808      7.67911        -0.048677      0.028103      0.141428
      2.93784      3.39232      7.67911        -0.038331      0.022130      0.023798
      5.87568      3.39232      7.67911         0.038331      0.022130      0.023798
      8.81351      3.39232      7.67911        -0.000000     -0.033131      0.099131
      4.40676      5.93656      7.67911        -0.000000     -0.056207      0.141428
      7.34459      5.93656      7.67911        -0.028693      0.016566      0.099131
     10.28243      5.93656      7.67911         0.028693      0.016566      0.099131
      8.81351      1.70038     10.08128         0.000000      0.000003     -0.011584
      2.93047      1.69191     10.03818        -0.004091     -0.002362     -0.022172
      5.88304      1.69191     10.03818         0.004091     -0.002362     -0.022172
     10.26792      4.24878     10.06124         0.003731     -0.002154     -0.015480
      4.40676      4.24891     10.03818         0.000000      0.004724     -0.022172
      7.35911      4.24878     10.06124        -0.003731     -0.002154     -0.015480
     11.74770      6.78254     10.08128        -0.000003     -0.000002     -0.011584
      5.87933      6.78254     10.08128         0.000003     -0.000002     -0.011584
      8.81351      6.76789     10.06124         0.000000      0.004309     -0.015480
      0.00000      0.00000     12.49619         0.000000     -0.000000     -0.000001
      2.96082      0.04010     12.48308         0.004246     -0.000808      0.008151
      5.85269      0.04010     12.48308        -0.004246     -0.000808      0.008151
      1.51514      2.54410     12.48308         0.001423      0.004081      0.008151
      7.29838      2.54410     12.48308        -0.001423      0.004081      0.008151
      2.96107      5.04853     12.48308        -0.002822     -0.003273      0.008151
      5.85244      5.04853     12.48308         0.002822     -0.003273      0.008151
      8.81351      5.08848     12.49171         0.000000     -0.000000      0.002703
      4.40676      2.54424     12.23647         0.000000     -0.000000      0.029084
 -----------------------------------------------------------------------------------
    total drift:                               -0.001145     -0.000393      0.538990


--------------------------------------------------------------------------------------------------------



  FREE ENERGIE OF THE ION-ELECTRON SYSTEM (eV)
  ---------------------------------------------------
  free  energy   TOTEN  =      -113.83757343 eV

  energy  without entropy=     -113.83757343  energy(sigma->0) =     -113.83757343
 


--------------------------------------------------------------------------------------------------------


    POTLOK:  cpu time    0.0574: real time    0.0574


--------------------------------------------------------------------------------------------------------


 stress matrix after NEB project (eV)
    -23.01665     -0.00000      0.00000
     -0.00000    -23.01665      0.00000
      0.00000     -0.00000      3.27211
  FORCES: max atom, RMS     0.029084    0.010649
  FORCE total and by dimension    0.063897    0.029084
  Stress total and by dimension   32.714513   23.016655
     LOOP+:  cpu time  108.3600: real time  108.6412
 -----------------------------------------------------------------------------
|                                                                             |
|           W    W    AA    RRRRR   N    N  II  N    N   GGGG   !!!           |
|           W    W   A  A   R    R  NN   N  II  NN   N  G    G  !!!           |
|           W    W  A    A  R    R  N N  N  II  N N  N  G       !!!           |
|           W WW W  AAAAAA  RRRRR   N  N N  II  N  N N  G  GGG   !            |
|           WW  WW  A    A  R   R   N   NN  II  N   NN  G    G                |
|           W    W  A    A  R    R  N    N  II  N    N   GGGG   !!!           |
|                                                                             |
|     Tetrahedron method does not include variations of the Fermi             |
|     occupations, so forces and stress will be inaccurate. We suggest        |
|     using a different smearing scheme ISMEAR = 1 or 2 for metals in         |
|     relaxations.                                                            |
|                                                                             |
 -----------------------------------------------------------------------------

    4ORBIT:  cpu time    0.0000: real time    0.0000



 total charge

# of ion       s       p       d       tot
------------------------------------------
    1        0.542   0.240   8.766   9.548
    2        0.545   0.240   8.765   9.551
    3        0.545   0.240   8.765   9.551
    4        0.545   0.240   8.765   9.551
    5        0.540   0.243   8.763   9.546
    6        0.545   0.240   8.765   9.551
    7        0.545   0.240   8.765   9.551
    8        0.545   0.240   8.765   9.551
    9        0.543   0.239   8.768   9.550
   10        0.522   0.310   8.766   9.598
   11        0.522   0.307   8.779   9.608
   12        0.522   0.310   8.766   9.598
   13        0.522   0.307   8.779   9.608
   14        0.522   0.307   8.779   9.608
   15        0.517   0.308   8.777   9.601
   16        0.522   0.310   8.766   9.598
   17        0.517   0.308   8.777   9.601
   18        0.517   0.308   8.777   9.601
   19        0.516   0.302   8.775   9.594
   20        0.534   0.329   8.755   9.618
   21        0.534   0.329   8.755   9.618
   22        0.510   0.308   8.778   9.596
   23        0.534   0.329   8.755   9.618
   24        0.510   0.308   8.778   9.596
   25        0.516   0.302   8.775   9.594
   26        0.516   0.302   8.775   9.594
   27        0.510   0.308   8.778   9.596
   28        0.537   0.229   8.769   9.535
   29        0.549   0.245   8.749   9.543
   30        0.549   0.245   8.749   9.543
   31        0.549   0.245   8.749   9.543
   32        0.549   0.245   8.749   9.543
   33        0.549   0.245   8.749   9.543
   34        0.549   0.245   8.749   9.543
   35        0.533   0.230   8.770   9.533
   36        0.532   0.306   6.979   7.817
--------------------------------------------------
tot         19.158   9.991 313.792 342.941
 
 BZINTS: Fermi energy:    0.663347;  394.000000 electrons
         Band energy:-0.118143E+04;  BLOECHL correction:   -0.096873

 total amount of memory used by VASP MPI-rank0   121489. kBytes
=======================================================================

   base      :      30000. kBytes
   nonlr-proj:      13901. kBytes
   fftplans  :       4330. kBytes
   grid      :      17098. kBytes
   one-center:        559. kBytes
   wavefun   :      55601. kBytes
 
  
  
 General timing and accounting informations for this job:
 ========================================================
  
                  Total CPU time used (sec):      117.067
                            User time (sec):      113.465
                          System time (sec):        3.602
                         Elapsed time (sec):      117.811
  
                   Maximum memory used (kb):      378252.
                   Average memory used (kb):          N/A
  
                          Minor page faults:        75821
                          Major page faults:            0
                 Voluntary context switches:         5531
