PROCAR new format
# of k-points:   10         # of bands:  252         # of ions:   36

 k-point     1 :    0.00000000 0.00000000 0.00000000     weight = 0.01562500

band     1 # energy   -8.14974017 # occ.  2.00000000
 
ion      s      p      d    tot
    1  0.007  0.001  0.000  0.007
    2  0.007  0.001  0.000  0.007
    3  0.007  0.001  0.000  0.007
    4  0.007  0.001  0.000  0.007
    5  0.007  0.001  0.000  0.007
    6  0.007  0.001  0.000  0.007
    7  0.007  0.001  0.000  0.007
    8  0.007  0.001  0.000  0.007
    9  0.007  0.001  0.000  0.007
   10  0.027  0.000  0.000  0.027
   11  0.027  0.000  0.000  0.027
   12  0.027  0.000  0.000  0.027
   13  0.027  0.000  0.000  0.027
   14  0.027  0.000  0.000  0.027
   15  0.027  0.000  0.000  0.027
   16  0.027  0.000  0.000  0.027
   17  0.027  0.000  0.000  0.027
   18  0.027  0.000  0.000  0.027
   19  0.023  0.000  0.000  0.024
   20  0.025  0.000  0.000  0.026
   21  0.025  0.000  0.000  0.026
   22  0.024  0.000  0.000  0.025
   23  0.025  0.000  0.000  0.026
   24  0.024  0.000  0.000  0.025
   25  0.023  0.000  0.000  0.024
   26  0.023  0.000  0.000  0.024
   27  0.024  0.000  0.000  0.025
   28  0.005  0.000  0.000  0.005
   29  0.005  0.000  0.000  0.005
   30  0.005  0.000  0.000  0.005
   31  0.005  0.000  0.000  0.005
   32  0.005  0.000  0.000  0.005
   33  0.005  0.000  0.000  0.005
   34  0.005  0.000  0.000  0.005
   35  0.005  0.000  0.000  0.005
   36  0.007  0.001  0.000  0.008
tot    0.567  0.012  0.003  0.582
 
band     2 # energy   -6.97803201 # occ.  2.00000000
 
ion      s      p      d    tot
    1  0.017  0.000  0.001  0.018
    2  0.016  0.000  0.001  0.018
    3  0.016  0.000  0.001  0.018
    4  0.016  0.000  0.001  0.018
    5  0.016  0.000  0.001  0.018
    6  0.016  0.000  0.001  0.018
    7  0.016  0.000  0.001  0.018
    8  0.016  0.000  0.001  0.018
    9  0.016  0.000  0.001  0.018
   10  0.010  0.001  0.002  0.014
   11  0.010  0.001  0.002  0.014
   12  0.010  0.001  0.002  0.014
   13  0.010  0.001  0.002  0.014
   14  0.010  0.001  0.002  0.014
   15  0.010  0.001  0.002  0.014
   16  0.010  0.001  0.002  0.014
   17  0.010  0.001  0.002  0.014
   18  0.010  0.001  0.002  0.014
   19  0.014  0.001  0.003  0.018
   20  0.014  0.001  0.003  0.018
   21  0.014  0.001  0.003  0.018
   22  0.014  0.001  0.003  0.018
   23  0.014  0.001  0.003  0.018
   24  0.014  0.001  0.003  0.018
   25  0.014  0.001  0.003  0.018
   26  0.014  0.001  0.003  0.018
   27  0.014  0.001  0.003  0.018
   28  0.014  0.001  0.001  0.015
   29  0.015  0.001  0.001  0.016
   30  0.015  0.001  0.001  0.016
   31  0.015  0.001  0.001  0.016
   32  0.015  0.001  0.001  0.016
   33  0.015  0.001  0.001  0.016
   34  0.015  0.001  0.001  0.016
   35  0.015  0.001  0.001  0.016
   36  0.018  0.001  0.000  0.019
tot    0.501  0.032  0.065  0.598
 
band     3 # energy   -6.02571848 # occ.  2.00000000
 
ion      s      p      d    tot
    1  0.017  0.000  0.023  0.041
    2  0.021  0.000  0.020  0.041
    3  0.021  0.000  0.020  0.041
    4  0.021  0.000  0.020  0.041
    5  0.016  0.000  0.020  0.036
    6  0.021  0.000  0.020  0.041
    7  0.021  0.000  0.020  0.041
    8  0.021  0.000  0.020  0.041
    9  0.030  0.000  0.017  0.046
   10  0.010  0.001  0.022  0.033
   11  0.014  0.001  0.020  0.035
   12  0.010  0.001  0.022  0.033
   13  0.014  0.001  0.020  0.035
   14  0.013  0.001  0.020  0.034
   15  0.002  0.001  0.025  0.028
   16  0.010  0.001  0.022  0.033
   17  0.002  0.001  0.025  0.028
   18  0.002  0.001  0.025  0.028
   19  0.000  0.001  0.002  0.003
   20  0.001  0.001  0.003  0.005
   21  0.001  0.001  0.003  0.005
   22  0.001  0.001  0.001  0.003
   23  0.001  0.001  0.003  0.005
   24  0.001  0.001  0.001  0.003
   25  0.000  0.001  0.002  0.003
   26  0.000  0.001  0.002  0.003
   27  0.001  0.001  0.001  0.003
   28  0.004  0.000  0.000  0.004
   29  0.002  0.000  0.001  0.004
   30  0.002  0.000  0.001  0.004
   31  0.002  0.000  0.001  0.004
   32  0.002  0.000  0.001  0.004
   33  0.002  0.000  0.001  0.004
   34  0.002  0.000  0.001  0.004
   35  0.004  0.000  0.001  0.005
   36  0.000  0.000  0.001  0.001
tot    0.294  0.014  0.406  0.713
 
band     4 # energy   -6.00571741 # occ.  2.00000000
 
ion      s      p      d    tot
    1  0.014  0.001  0.000  0.015
    2  0.001  0.001  0.006  0.008
    3  0.001  0.001  0.006  0.008
    4  0.001  0.001  0.006  0.008
    5  0.004  0.000  0.002  0.006
    6  0.001  0.001  0.006  0.008
    7  0.001  0.001  0.006  0.008
    8  0.001  0.001  0.006  0.008
    9  0.007  0.002  0.004  0.013
   10  0.007  0.000  0.032  0.038
   11  0.002  0.002  0.015  0.019
   12  0.007  0.000  0.032  0.038
   13  0.002  0.002  0.015  0.019
   14  0.002  0.002  0.015  0.019
   15  0.036  0.003  0.004  0.043
   16  0.007  0.000  0.032  0.038
   17  0.036  0.003  0.004  0.043
   18  0.036  0.003  0.004  0.043
   19  0.000  0.001  0.020  0.021
   20  0.019  0.000  0.019  0.038
   21  0.019  0.000  0.019  0.038
   22  0.022  0.003  0.003  0.028
   23  0.019  0.000  0.019  0.038
   24  0.022  0.003  0.003  0.028
   25  0.000  0.001  0.020  0.021
   26  0.000  0.001  0.020  0.021
   27  0.022  0.003  0.003  0.028
   28  0.000  0.000  0.001  0.001
   29  0.000  0.000  0.004  0.005
   30  0.000  0.000  0.004  0.005
   31  0.000  0.000  0.004  0.005
   32  0.000  0.000  0.004  0.005
   33  0.000  0.000  0.004  0.005
   34  0.000  0.000  0.004  0.005
   35  0.004  0.001  0.001  0.005
   36  0.018  0.002  0.001  0.021
tot    0.312  0.042  0.349  0.702
 
band     5 # energy   -5.98958336 # occ.  2.00000000
 
ion      s      p      d    tot
    1  0.000  0.000  0.008  0.009
    2  0.003  0.001  0.003  0.006
    3  0.001  0.000  0.004  0.005
    4  0.003  0.001  0.003  0.007
    5  0.000  0.001  0.008  0.009
    6  0.008  0.001  0.004  0.013
    7  0.001  0.000  0.004  0.005
    8  0.008  0.001  0.004  0.013
    9  0.000  0.000  0.001  0.002
   10  0.033  0.002  0.004  0.040
   11  0.014  0.003  0.024  0.041
   12  0.009  0.001  0.031  0.040
   13  0.015  0.003  0.024  0.041
   14  0.058  0.001  0.011  0.070
   15  0.001  0.003  0.006  0.010
   16  0.008  0.001  0.031  0.040
   17  0.001  0.003  0.006  0.010
   18  0.004  0.000  0.015  0.019
   19  0.002  0.003  0.006  0.010
   20  0.055  0.001  0.009  0.066
   21  0.014  0.002  0.023  0.040
   22  0.005  0.001  0.022  0.028
   23  0.014  0.002  0.024  0.039
   24  0.020  0.002  0.004  0.026
   25  0.007  0.000  0.013  0.020
   26  0.002  0.003  0.006  0.010
   27  0.005  0.001  0.023  0.028
   28  0.000  0.000  0.001  0.001
   29  0.006  0.001  0.003  0.010
   30  0.001  0.000  0.003  0.004
   31  0.006  0.001  0.003  0.010
   32  0.001  0.000  0.002  0.004
   33  0.001  0.000  0.003  0.004
   34  0.001  0.000  0.002  0.004
   35  0.000  0.000  0.004  0.005
   36  0.000  0.002  0.005  0.007
tot    0.306  0.043  0.346  0.695
 
band     6 # energy   -5.98955649 # occ.  2.00000000
 
ion      s      p      d    tot
    1  0.000  0.000  0.008  0.009
    2  0.005  0.001  0.004  0.010
    3  0.007  0.001  0.003  0.011
    4  0.005  0.001  0.004  0.010
    5  0.000  0.001  0.008  0.009
    6  0.000  0.000  0.003  0.004
    7  0.007  0.001  0.003  0.011
    8  0.000  0.000  0.003  0.004
    9  0.000  0.000  0.001  0.002
   10  0.000  0.000  0.039  0.039
   11  0.044  0.001  0.015  0.060
   12  0.025  0.002  0.013  0.040
   13  0.043  0.002  0.015  0.060
   14  0.000  0.003  0.029  0.032
   15  0.003  0.001  0.012  0.016
   16  0.025  0.002  0.013  0.040
   17  0.003  0.001  0.012  0.016
   18  0.000  0.004  0.003  0.007
   19  0.005  0.001  0.011  0.017
   20  0.000  0.002  0.028  0.031
   21  0.041  0.002  0.014  0.057
   22  0.015  0.001  0.010  0.027
   23  0.042  0.002  0.014  0.057
   24  0.000  0.000  0.029  0.029
   25  0.000  0.004  0.003  0.007
   26  0.005  0.001  0.011  0.017
   27  0.016  0.001  0.010  0.027
   28  0.000  0.000  0.001  0.001
   29  0.000  0.000  0.002  0.002
   30  0.004  0.001  0.002  0.007
   31  0.000  0.000  0.002  0.002
   32  0.004  0.001  0.003  0.008
   33  0.004  0.001  0.002  0.007
   34  0.004  0.001  0.003  0.008
   35  0.000  0.000  0.004  0.005
   36  0.000  0.002  0.005  0.007
tot    0.306  0.043  0.346  0.695
 
band     7 # energy   -5.96336867 # occ.  2.00000000
 
ion      s      p      d    tot
    1  0.007  0.001  0.001  0.009
    2  0.000  0.001  0.007  0.008
    3  0.001  0.001  0.006  0.007
    4  0.000  0.001  0.007  0.008
    5  0.018  0.002  0.001  0.021
    6  0.000  0.001  0.005  0.006
    7  0.001  0.001  0.006  0.007
    8  0.000  0.001  0.005  0.006
    9  0.000  0.000  0.002  0.003
   10  0.030  0.003  0.004  0.037
   11  0.025  0.001  0.022  0.048
   12  0.019  0.003  0.002  0.025
   13  0.025  0.001  0.022  0.048
   14  0.021  0.001  0.017  0.039
   15  0.002  0.001  0.027  0.029
   16  0.019  0.003  0.002  0.025
   17  0.002  0.001  0.027  0.029
   18  0.000  0.001  0.028  0.028
   19  0.030  0.002  0.006  0.039
   20  0.005  0.003  0.015  0.023
   21  0.006  0.002  0.011  0.019
   22  0.008  0.000  0.024  0.032
   23  0.006  0.002  0.011  0.019
   24  0.003  0.000  0.030  0.033
   25  0.018  0.002  0.006  0.026
   26  0.030  0.002  0.006  0.039
   27  0.008  0.000  0.024  0.032
   28  0.009  0.001  0.001  0.012
   29  0.000  0.000  0.004  0.005
   30  0.000  0.000  0.003  0.004
   31  0.000  0.000  0.004  0.005
   32  0.000  0.000  0.004  0.005
   33  0.000  0.000  0.003  0.004
   34  0.000  0.000  0.004  0.005
   35  0.005  0.001  0.001  0.007
   36  0.002  0.000  0.000  0.002
tot    0.301  0.041  0.352  0.694
 
band     8 # energy   -5.96297240 # occ.  2.00000000
 
ion      s      p      d    tot
    1  0.000  0.001  0.004  0.005
    2  0.003  0.001  0.003  0.007
    3  0.001  0.000  0.004  0.005
    4  0.003  0.001  0.003  0.007
    5  0.000  0.000  0.004  0.004
    6  0.008  0.001  0.004  0.014
    7  0.001  0.001  0.004  0.006
    8  0.008  0.001  0.004  0.014
    9  0.000  0.001  0.011  0.012
   10  0.000  0.005  0.006  0.011
   11  0.004  0.001  0.012  0.017
   12  0.023  0.001  0.014  0.038
   13  0.003  0.001  0.012  0.017
   14  0.000  0.002  0.021  0.022
   15  0.046  0.001  0.014  0.062
   16  0.024  0.001  0.014  0.039
   17  0.045  0.001  0.015  0.062
   18  0.000  0.001  0.046  0.046
   19  0.034  0.002  0.011  0.046
   20  0.000  0.002  0.012  0.013
   21  0.001  0.001  0.011  0.013
   22  0.024  0.001  0.013  0.038
   23  0.001  0.001  0.011  0.013
   24  0.000  0.004  0.013  0.017
   25  0.000  0.000  0.036  0.037
   26  0.033  0.002  0.012  0.046
   27  0.024  0.001  0.013  0.038
   28  0.000  0.001  0.007  0.007
   29  0.005  0.001  0.002  0.008
   30  0.002  0.000  0.003  0.005
   31  0.005  0.001  0.002  0.008
   32  0.001  0.000  0.002  0.003
   33  0.001  0.000  0.003  0.004
   34  0.001  0.000  0.002  0.003
   35  0.000  0.001  0.003  0.004
   36  0.000  0.000  0.001  0.001
tot    0.302  0.042  0.350  0.693
 
band     9 # energy   -5.96295210 # occ.  2.00000000
 
ion      s      p      d    tot
    1  0.000  0.001  0.004  0.005
    2  0.005  0.001  0.003  0.010
    3  0.007  0.001  0.004  0.012
    4  0.005  0.001  0.003  0.010
    5  0.000  0.000  0.004  0.004
    6  0.000  0.000  0.004  0.005
    7  0.007  0.001  0.004  0.012
    8  0.000  0.000  0.004  0.005
    9  0.000  0.001  0.011  0.012
   10  0.024  0.000  0.015  0.040
   11  0.000  0.002  0.016  0.018
   12  0.012  0.003  0.009  0.025
   13  0.000  0.002  0.016  0.018
   14  0.008  0.001  0.012  0.021
   15  0.014  0.001  0.036  0.050
   16  0.011  0.004  0.009  0.024
   17  0.015  0.001  0.035  0.051
   18  0.062  0.002  0.004  0.067
   19  0.007  0.001  0.028  0.035
   20  0.002  0.001  0.008  0.011
   21  0.000  0.002  0.013  0.015
   22  0.007  0.003  0.015  0.025
   23  0.000  0.002  0.013  0.014
   24  0.035  0.000  0.010  0.045
   25  0.052  0.002  0.004  0.058
   26  0.007  0.001  0.027  0.036
   27  0.006  0.003  0.015  0.024
   28  0.000  0.001  0.007  0.007
   29  0.000  0.000  0.002  0.002
   30  0.003  0.001  0.002  0.006
   31  0.000  0.000  0.002  0.002
   32  0.004  0.001  0.002  0.007
   33  0.003  0.001  0.002  0.006
   34  0.004  0.001  0.002  0.007
   35  0.000  0.001  0.003  0.004
   36  0.000  0.000  0.001  0.001
tot    0.302  0.042  0.350  0.693
 
band    10 # energy   -5.89932278 # occ.  2.00000000
 
ion      s      p      d    tot
    1  0.000  0.000  0.000  0.000
    2  0.000  0.000  0.000  0.000
    3  0.000  0.000  0.000  0.000
    4  0.000  0.000  0.000  0.000
    5  0.000  0.000  0.000  0.000
    6  0.000  0.000  0.000  0.000
    7  0.000  0.000  0.000  0.000
    8  0.000  0.000  0.000  0.000
    9  0.000  0.000  0.000  0.000
   10  0.000  0.000  0.005  0.006
   11  0.000  0.000  0.005  0.006
   12  0.000  0.000  0.005  0.006
   13  0.000  0.000  0.005  0.006
   14  0.000  0.000  0.005  0.006
   15  0.001  0.000  0.004  0.005
   16  0.000  0.000  0.005  0.006
   17  0.001  0.000  0.004  0.005
   18  0.001  0.000  0.004  0.005
   19  0.007  0.001  0.025  0.032
   20  0.008  0.001  0.027  0.036
   21  0.008  0.001  0.027  0.036
   22  0.006  0.001  0.027  0.034
   23  0.008  0.001  0.027  0.036
   24  0.006  0.001  0.027  0.034
   25  0.007  0.001  0.025  0.032
   26  0.007  0.001  0.025  0.032
   27  0.006  0.001  0.027  0.034
   28  0.024  0.000  0.019  0.043
   29  0.023  0.000  0.020  0.043
   30  0.023  0.000  0.020  0.043
   31  0.023  0.000  0.020  0.043
   32  0.023  0.000  0.020  0.043
   33  0.023  0.000  0.020  0.043
   34  0.023  0.000  0.020  0.043
   35  0.024  0.000  0.020  0.045
   36  0.018  0.000  0.013  0.031
tot    0.269  0.009  0.455  0.733
 
band    11 # energy   -5.50499831 # occ.  2.00000000
 
ion      s      p      d    tot
    1  0.020  0.002  0.001  0.022
    2  0.000  0.001  0.008  0.009
    3  0.000  0.001  0.008  0.009
    4  0.000  0.001  0.008  0.009
    5  0.004  0.001  0.002  0.007
    6  0.000  0.001  0.008  0.009
    7  0.000  0.001  0.008  0.009
    8  0.000  0.001  0.008  0.009
    9  0.006  0.000  0.000  0.006
   10  0.006  0.002  0.014  0.021
   11  0.008  0.001  0.023  0.031
   12  0.006  0.002  0.013  0.021
   13  0.008  0.001  0.023  0.031
   14  0.008  0.001  0.023  0.031
   15  0.000  0.000  0.041  0.042
   16  0.006  0.002  0.013  0.021
   17  0.000  0.000  0.041  0.042
   18  0.000  0.000  0.042  0.042
   19  0.012  0.002  0.006  0.020
   20  0.000  0.000  0.033  0.034
   21  0.000  0.000  0.033  0.034
   22  0.008  0.001  0.039  0.048
   23  0.000  0.000  0.033  0.034
   24  0.008  0.001  0.039  0.048
   25  0.012  0.002  0.006  0.020
   26  0.012  0.002  0.006  0.020
   27  0.008  0.001  0.039  0.048
   28  0.016  0.002  0.001  0.019
   29  0.000  0.001  0.007  0.007
   30  0.000  0.001  0.007  0.007
   31  0.000  0.001  0.007  0.007
   32  0.000  0.001  0.007  0.007
   33  0.000  0.001  0.007  0.007
   34  0.000  0.001  0.007  0.007
   35  0.002  0.000  0.002  0.005
   36  0.008  0.001  0.000  0.009
tot    0.157  0.030  0.564  0.751
 
band    12 # energy   -5.49206258 # occ.  2.00000000
 
ion      s      p      d    tot
    1  0.000  0.001  0.003  0.004
    2  0.001  0.001  0.005  0.007
    3  0.009  0.001  0.005  0.015
    4  0.001  0.001  0.005  0.006
    5  0.000  0.001  0.011  0.012
    6  0.005  0.001  0.004  0.010
    7  0.009  0.001  0.005  0.015
    8  0.005  0.001  0.004  0.010
    9  0.000  0.000  0.010  0.011
   10  0.000  0.001  0.045  0.046
   11  0.014  0.001  0.022  0.037
   12  0.005  0.002  0.020  0.026
   13  0.014  0.001  0.022  0.037
   14  0.000  0.000  0.058  0.058
   15  0.002  0.000  0.021  0.024
   16  0.005  0.002  0.019  0.026
   17  0.002  0.000  0.021  0.024
   18  0.000  0.001  0.012  0.014
   19  0.005  0.000  0.019  0.025
   20  0.000  0.000  0.061  0.061
   21  0.019  0.001  0.021  0.041
   22  0.005  0.001  0.019  0.024
   23  0.019  0.001  0.020  0.041
   24  0.000  0.001  0.044  0.045
   25  0.000  0.001  0.010  0.011
   26  0.005  0.000  0.019  0.025
   27  0.005  0.001  0.019  0.024
   28  0.000  0.000  0.007  0.007
   29  0.002  0.000  0.003  0.006
   30  0.009  0.001  0.004  0.014
   31  0.002  0.000  0.003  0.006
   32  0.002  0.001  0.004  0.007
   33  0.009  0.001  0.004  0.014
   34  0.002  0.001  0.004  0.007
   35  0.000  0.000  0.003  0.004
   36  0.000  0.002  0.005  0.008
tot    0.155  0.031  0.564  0.750
 
band    13 # energy   -5.49205986 # occ.  2.00000000
 
ion      s      p      d    tot
    1  0.000  0.001  0.003  0.004
    2  0.009  0.001  0.004  0.014
    3  0.001  0.000  0.005  0.006
    4  0.009  0.001  0.004  0.014
    5  0.000  0.001  0.011  0.012
    6  0.005  0.001  0.005  0.011
    7  0.001  0.000  0.005  0.006
    8  0.005  0.001  0.005  0.011
    9  0.000  0.000  0.010  0.011
   10  0.006  0.002  0.011  0.020
   11  0.005  0.000  0.046  0.051
   12  0.002  0.001  0.036  0.039
   13  0.005  0.000  0.046  0.051
   14  0.019  0.001  0.010  0.030
   15  0.001  0.001  0.015  0.017
   16  0.002  0.001  0.036  0.039
   17  0.001  0.001  0.015  0.017
   18  0.003  0.000  0.024  0.027
   19  0.002  0.001  0.013  0.016
   20  0.026  0.001  0.007  0.034
   21  0.006  0.000  0.047  0.054
   22  0.002  0.001  0.035  0.038
   23  0.006  0.000  0.048  0.054
   24  0.006  0.001  0.010  0.018
   25  0.007  0.000  0.022  0.029
   26  0.002  0.001  0.013  0.016
   27  0.001  0.001  0.036  0.038
   28  0.000  0.000  0.007  0.007
   29  0.006  0.001  0.004  0.012
   30  0.000  0.000  0.004  0.004
   31  0.006  0.001  0.004  0.012
   32  0.006  0.001  0.004  0.011
   33  0.000  0.000  0.004  0.004
   34  0.006  0.001  0.004  0.011
   35  0.000  0.000  0.003  0.004
   36  0.000  0.002  0.005  0.008
tot    0.155  0.031  0.564  0.750
 
band    14 # energy   -5.48576902 # occ.  2.00000000
 
ion      s      p      d    tot
    1  0.000  0.000  0.002  0.002
    2  0.000  0.001  0.009  0.009
    3  0.000  0.001  0.009  0.009
    4  0.000  0.001  0.009  0.009
    5  0.015  0.001  0.000  0.017
    6  0.000  0.001  0.008  0.009
    7  0.000  0.001  0.009  0.009
    8  0.000  0.001  0.009  0.009
    9  0.014  0.002  0.002  0.018
   10  0.004  0.000  0.041  0.045
   11  0.001  0.001  0.030  0.032
   12  0.004  0.000  0.041  0.045
   13  0.001  0.001  0.030  0.032
   14  0.002  0.001  0.030  0.032
   15  0.010  0.002  0.009  0.021
   16  0.004  0.000  0.041  0.045
   17  0.010  0.002  0.009  0.021
   18  0.010  0.002  0.009  0.021
   19  0.002  0.000  0.041  0.043
   20  0.012  0.001  0.020  0.034
   21  0.012  0.001  0.020  0.034
   22  0.005  0.001  0.015  0.021
   23  0.012  0.001  0.020  0.034
   24  0.005  0.001  0.015  0.021
   25  0.002  0.000  0.042  0.043
   26  0.002  0.000  0.041  0.043
   27  0.005  0.001  0.015  0.021
   28  0.000  0.000  0.001  0.001
   29  0.000  0.001  0.006  0.006
   30  0.000  0.001  0.006  0.006
   31  0.000  0.001  0.006  0.006
   32  0.000  0.001  0.006  0.006
   33  0.000  0.001  0.006  0.006
   34  0.000  0.001  0.006  0.006
   35  0.014  0.001  0.000  0.015
   36  0.013  0.002  0.002  0.017
tot    0.160  0.032  0.562  0.754
 
band    15 # energy   -5.47656128 # occ.  2.00000000
 
ion      s      p      d    tot
    1  0.000  0.001  0.015  0.015
    2  0.010  0.001  0.004  0.015
    3  0.001  0.000  0.005  0.006
    4  0.010  0.001  0.004  0.015
    5  0.000  0.000  0.006  0.006
    6  0.004  0.001  0.005  0.011
    7  0.001  0.000  0.005  0.006
    8  0.004  0.001  0.005  0.011
    9  0.000  0.001  0.006  0.007
   10  0.000  0.001  0.035  0.035
   11  0.000  0.001  0.020  0.021
   12  0.008  0.000  0.023  0.031
   13  0.000  0.001  0.020  0.021
   14  0.000  0.001  0.017  0.018
   15  0.011  0.002  0.020  0.033
   16  0.008  0.000  0.023  0.031
   17  0.010  0.002  0.020  0.033
   18  0.000  0.000  0.062  0.062
   19  0.015  0.001  0.020  0.036
   20  0.000  0.002  0.019  0.021
   21  0.000  0.001  0.020  0.021
   22  0.016  0.001  0.021  0.038
   23  0.000  0.001  0.020  0.021
   24  0.000  0.001  0.030  0.030
   25  0.000  0.000  0.067  0.067
   26  0.015  0.001  0.020  0.036
   27  0.016  0.001  0.021  0.038
   28  0.000  0.001  0.005  0.006
   29  0.005  0.001  0.004  0.010
   30  0.000  0.000  0.004  0.004
   31  0.005  0.001  0.004  0.010
   32  0.005  0.001  0.003  0.009
   33  0.000  0.000  0.004  0.004
   34  0.005  0.001  0.003  0.009
   35  0.000  0.001  0.009  0.009
   36  0.000  0.000  0.002  0.002
tot    0.151  0.029  0.570  0.750
 
band    16 # energy   -5.47655225 # occ.  2.00000000
 
ion      s      p      d    tot
    1  0.000  0.001  0.015  0.015
    2  0.000  0.001  0.005  0.006
    3  0.009  0.001  0.005  0.015
    4  0.000  0.001  0.005  0.006
    5  0.000  0.000  0.006  0.006
    6  0.006  0.001  0.005  0.011
    7  0.009  0.001  0.005  0.015
    8  0.006  0.001  0.005  0.011
    9  0.000  0.001  0.006  0.007
   10  0.011  0.000  0.019  0.030
   11  0.000  0.001  0.018  0.019
   12  0.003  0.001  0.031  0.034
   13  0.000  0.001  0.018  0.019
   14  0.000  0.001  0.021  0.022
   15  0.004  0.001  0.048  0.052
   16  0.003  0.001  0.031  0.034
   17  0.004  0.001  0.048  0.052
   18  0.014  0.002  0.006  0.023
   19  0.005  0.001  0.051  0.057
   20  0.000  0.000  0.021  0.021
   21  0.000  0.001  0.020  0.021
   22  0.005  0.001  0.027  0.033
   23  0.000  0.001  0.020  0.021
   24  0.021  0.001  0.018  0.040
   25  0.021  0.001  0.004  0.026
   26  0.005  0.001  0.051  0.057
   27  0.005  0.001  0.027  0.033
   28  0.000  0.001  0.005  0.006
   29  0.002  0.000  0.003  0.005
   30  0.007  0.001  0.003  0.011
   31  0.002  0.000  0.003  0.005
   32  0.002  0.001  0.004  0.007
   33  0.007  0.001  0.003  0.011
   34  0.002  0.001  0.004  0.007
   35  0.000  0.001  0.009  0.009
   36  0.000  0.000  0.002  0.002
tot    0.151  0.029  0.570  0.750
 
band    17 # energy   -5.11846841 # occ.  2.00000000
 
ion      s      p      d    tot
    1  0.003  0.000  0.014  0.017
    2  0.000  0.001  0.021  0.022
    3  0.000  0.001  0.021  0.022
    4  0.000  0.001  0.021  0.022
    5  0.009  0.001  0.001  0.011
    6  0.000  0.001  0.021  0.022
    7  0.000  0.001  0.021  0.022
    8  0.000  0.001  0.021  0.022
    9  0.026  0.001  0.008  0.034
   10  0.000  0.000  0.040  0.040
   11  0.000  0.000  0.029  0.030
   12  0.000  0.000  0.039  0.039
   13  0.000  0.000  0.029  0.030
   14  0.000  0.000  0.029  0.029
   15  0.000  0.000  0.033  0.034
   16  0.000  0.000  0.039  0.039
   17  0.000  0.000  0.033  0.034
   18  0.000  0.000  0.032  0.033
   19  0.001  0.000  0.024  0.025
   20  0.000  0.000  0.031  0.031
   21  0.000  0.000  0.030  0.030
   22  0.000  0.000  0.019  0.020
   23  0.000  0.000  0.030  0.030
   24  0.000  0.000  0.020  0.020
   25  0.001  0.000  0.024  0.025
   26  0.001  0.000  0.024  0.025
   27  0.000  0.000  0.019  0.020
   28  0.003  0.000  0.006  0.009
   29  0.000  0.001  0.011  0.012
   30  0.000  0.001  0.011  0.012
   31  0.000  0.001  0.011  0.012
   32  0.000  0.001  0.011  0.012
   33  0.000  0.001  0.011  0.012
   34  0.000  0.001  0.011  0.012
   35  0.003  0.000  0.001  0.004
   36  0.014  0.000  0.003  0.018
tot    0.064  0.016  0.749  0.829
 
band    18 # energy   -5.11583274 # occ.  2.00000000
 
ion      s      p      d    tot
    1  0.000  0.000  0.023  0.024
    2  0.001  0.001  0.013  0.014
    3  0.007  0.000  0.017  0.024
    4  0.001  0.001  0.013  0.014
    5  0.000  0.001  0.032  0.032
    6  0.011  0.001  0.011  0.023
    7  0.007  0.000  0.017  0.024
    8  0.011  0.001  0.011  0.023
    9  0.000  0.002  0.006  0.008
   10  0.000  0.000  0.020  0.021
   11  0.000  0.000  0.049  0.049
   12  0.000  0.000  0.011  0.012
   13  0.000  0.000  0.049  0.049
   14  0.000  0.001  0.042  0.043
   15  0.000  0.000  0.037  0.037
   16  0.000  0.000  0.012  0.012
   17  0.000  0.000  0.037  0.037
   18  0.000  0.000  0.047  0.048
   19  0.000  0.000  0.009  0.010
   20  0.002  0.000  0.044  0.046
   21  0.000  0.000  0.026  0.026
   22  0.000  0.000  0.031  0.031
   23  0.000  0.000  0.026  0.026
   24  0.000  0.000  0.033  0.033
   25  0.001  0.000  0.010  0.011
   26  0.000  0.000  0.009  0.010
   27  0.000  0.000  0.031  0.031
   28  0.000  0.000  0.010  0.010
   29  0.006  0.000  0.010  0.017
   30  0.000  0.000  0.007  0.007
   31  0.006  0.000  0.010  0.017
   32  0.006  0.001  0.006  0.012
   33  0.000  0.000  0.007  0.007
   34  0.006  0.001  0.006  0.012
   35  0.000  0.000  0.018  0.018
   36  0.000  0.002  0.003  0.005
tot    0.065  0.016  0.744  0.825
 
band    19 # energy   -5.11582511 # occ.  2.00000000
 
ion      s      p      d    tot
    1  0.000  0.000  0.023  0.024
    2  0.012  0.001  0.014  0.027
    3  0.006  0.001  0.010  0.017
    4  0.012  0.001  0.014  0.027
    5  0.000  0.001  0.032  0.032
    6  0.001  0.000  0.017  0.018
    7  0.006  0.001  0.010  0.017
    8  0.001  0.000  0.017  0.018
    9  0.000  0.002  0.006  0.008
   10  0.000  0.000  0.008  0.008
   11  0.000  0.001  0.045  0.045
   12  0.000  0.000  0.018  0.018
   13  0.000  0.001  0.045  0.045
   14  0.000  0.000  0.051  0.051
   15  0.000  0.000  0.043  0.044
   16  0.000  0.000  0.018  0.018
   17  0.000  0.000  0.043  0.044
   18  0.000  0.000  0.034  0.034
   19  0.001  0.000  0.010  0.011
   20  0.000  0.000  0.019  0.020
   21  0.001  0.000  0.038  0.040
   22  0.000  0.000  0.033  0.033
   23  0.001  0.000  0.038  0.039
   24  0.000  0.001  0.030  0.031
   25  0.000  0.000  0.009  0.009
   26  0.001  0.000  0.010  0.011
   27  0.000  0.000  0.033  0.033
   28  0.000  0.000  0.010  0.010
   29  0.002  0.000  0.005  0.008
   30  0.008  0.001  0.008  0.017
   31  0.002  0.000  0.005  0.008
   32  0.002  0.000  0.009  0.012
   33  0.008  0.001  0.008  0.017
   34  0.002  0.000  0.009  0.012
   35  0.000  0.000  0.018  0.018
   36  0.000  0.002  0.003  0.005
tot    0.065  0.016  0.744  0.825
 
band    20 # energy   -5.10716307 # occ.  2.00000000
 
ion      s      p      d    tot
    1  0.021  0.001  0.001  0.023
    2  0.000  0.001  0.020  0.021
    3  0.000  0.001  0.020  0.021
    4  0.000  0.001  0.020  0.021
    5  0.014  0.000  0.014  0.029
    6  0.000  0.001  0.020  0.021
    7  0.000  0.001  0.020  0.021
    8  0.000  0.001  0.020  0.021
    9  0.001  0.000  0.007  0.008
   10  0.000  0.000  0.029  0.029
   11  0.000  0.000  0.036  0.037
   12  0.000  0.000  0.029  0.029
   13  0.000  0.000  0.036  0.037
   14  0.000  0.000  0.037  0.037
   15  0.000  0.000  0.037  0.037
   16  0.000  0.000  0.029  0.029
   17  0.000  0.000  0.037  0.037
   18  0.000  0.000  0.036  0.037
   19  0.000  0.000  0.022  0.022
   20  0.001  0.000  0.019  0.019
   21  0.001  0.000  0.019  0.019
   22  0.001  0.000  0.028  0.029
   23  0.001  0.000  0.019  0.019
   24  0.001  0.000  0.028  0.029
   25  0.000  0.000  0.022  0.022
   26  0.000  0.000  0.022  0.022
   27  0.001  0.000  0.028  0.029
   28  0.012  0.000  0.001  0.014
   29  0.000  0.001  0.013  0.014
   30  0.000  0.001  0.013  0.014
   31  0.000  0.001  0.013  0.014
   32  0.000  0.001  0.013  0.014
   33  0.000  0.001  0.013  0.014
   34  0.000  0.001  0.013  0.014
   35  0.012  0.000  0.005  0.017
   36  0.000  0.000  0.002  0.002
tot    0.065  0.014  0.743  0.823
 
band    21 # energy   -5.08923932 # occ.  2.00000000
 
ion      s      p      d    tot
    1  0.000  0.002  0.020  0.021
    2  0.001  0.001  0.015  0.016
    3  0.008  0.001  0.019  0.028
    4  0.001  0.001  0.015  0.016
    5  0.000  0.001  0.011  0.012
    6  0.013  0.001  0.012  0.026
    7  0.008  0.001  0.019  0.028
    8  0.013  0.001  0.012  0.026
    9  0.000  0.000  0.038  0.038
   10  0.000  0.000  0.058  0.058
   11  0.000  0.000  0.030  0.030
   12  0.000  0.001  0.058  0.058
   13  0.000  0.000  0.030  0.030
   14  0.000  0.000  0.019  0.019
   15  0.000  0.001  0.026  0.027
   16  0.000  0.001  0.058  0.058
   17  0.000  0.001  0.026  0.027
   18  0.000  0.000  0.030  0.030
   19  0.001  0.000  0.034  0.035
   20  0.000  0.001  0.016  0.016
   21  0.000  0.000  0.019  0.019
   22  0.002  0.000  0.016  0.019
   23  0.000  0.000  0.019  0.019
   24  0.000  0.000  0.008  0.008
   25  0.000  0.000  0.022  0.022
   26  0.001  0.000  0.034  0.035
   27  0.002  0.000  0.016  0.019
   28  0.000  0.001  0.012  0.012
   29  0.005  0.000  0.006  0.011
   30  0.000  0.000  0.007  0.008
   31  0.005  0.000  0.006  0.011
   32  0.004  0.000  0.004  0.008
   33  0.000  0.000  0.007  0.008
   34  0.004  0.000  0.004  0.008
   35  0.000  0.001  0.005  0.006
   36  0.000  0.000  0.007  0.007
tot    0.066  0.016  0.739  0.822
 
band    22 # energy   -5.08923836 # occ.  2.00000000
 
ion      s      p      d    tot
    1  0.000  0.002  0.020  0.021
    2  0.014  0.001  0.016  0.031
    3  0.007  0.001  0.012  0.019
    4  0.013  0.001  0.016  0.031
    5  0.000  0.001  0.011  0.012
    6  0.001  0.000  0.019  0.020
    7  0.007  0.001  0.012  0.019
    8  0.001  0.000  0.019  0.020
    9  0.000  0.000  0.038  0.038
   10  0.000  0.001  0.057  0.058
   11  0.000  0.000  0.022  0.022
   12  0.000  0.000  0.058  0.058
   13  0.000  0.000  0.022  0.022
   14  0.000  0.000  0.034  0.034
   15  0.000  0.000  0.028  0.029
   16  0.000  0.000  0.058  0.058