 vasp.6.2.0 18Jan21 (build Jun 12 2021 23:27:24) complex                        
  
 executed on             LinuxIFC date 2022.05.26  20:12:00
 running on   28 total cores
 distrk:  each k-point on   28 cores,    1 groups
 distr:  one band on NCORE=   1 cores,   28 groups


--------------------------------------------------------------------------------------------------------


 INCAR:
   ISMEAR = -5
   SIGMA = 0.1
   ISPIN = 1
   EDIFF = 1.d-5
   EDIFFG = -0.01
   NSW = 0
   NELM = 150
   ENCUT = 500
   ISIF = 2
   IBRION = 2
   LREAL = Auto
   ALGO = Fast
   ICHARG = 11
   LORBIT = 10
   LCHARG = .F.
   LWAVE = .F.

 POTCAR:    PAW_PBE Au 04Oct2007                  
 POTCAR:    PAW_PBE Co 02Aug2007                  
 -----------------------------------------------------------------------------
|                                                                             |
|           W    W    AA    RRRRR   N    N  II  N    N   GGGG   !!!           |
|           W    W   A  A   R    R  NN   N  II  NN   N  G    G  !!!           |
|           W    W  A    A  R    R  N N  N  II  N N  N  G       !!!           |
|           W WW W  AAAAAA  RRRRR   N  N N  II  N  N N  G  GGG   !            |
|           WW  WW  A    A  R   R   N   NN  II  N   NN  G    G                |
|           W    W  A    A  R    R  N    N  II  N    N   GGGG   !!!           |
|                                                                             |
|     For optimal performance we recommend to set                             |
|       NCORE = 2 up to number-of-cores-per-socket                            |
|     NCORE specifies how many cores store one orbital (NPAR=cpu/NCORE).      |
|     This setting can greatly improve the performance of VASP for DFT.       |
|     The default, NCORE=1 might be grossly inefficient on modern             |
|     multi-core architectures or massively parallel machines. Do your        |
|     own testing! More info at https://www.vasp.at/wiki/index.php/NCORE      |
|     Unfortunately you need to use the default for GW and RPA                |
|     calculations (for HF NCORE is supported but not extensively tested      |
|     yet).                                                                   |
|                                                                             |
 -----------------------------------------------------------------------------

 POTCAR:    PAW_PBE Au 04Oct2007                  
   VRHFIN =Au: s1d10                                                                                
   LEXCH  = PE                                                                                      
   EATOM  =   926.0867 eV,   68.0654 Ry                                                             
                                                                                                    
   TITEL  = PAW_PBE Au 04Oct2007                                                                    
   LULTRA =        F    use ultrasoft PP ?                                                          
   IUNSCR =        1    unscreen: 0-lin 1-nonlin 2-no                                               
   RPACOR =    2.330    partial core radius                                                         
   POMASS =  196.966; ZVAL   =   11.000    mass and valenz                                          
   RCORE  =    2.500    outmost cutoff radius                                                       
   RWIGS  =    2.840; RWIGS  =    1.503    wigner-seitz radius (au A)                               
   ENMAX  =  229.943; ENMIN  =  172.457 eV                                                          
   ICORE  =        3    local potential                                                             
   LCOR   =        T    correct aug charges                                                         
   LPAW   =        T    paw PP                                                                      
   EAUG   =  356.670                                                                                
   DEXC   =    0.000                                                                                
   RMAX   =    2.562    core radius for proj-oper                                                   
   RAUG   =    1.300    factor for augmentation sphere                                              
   RDEP   =    2.598    radius for radial grids                                                     
   RDEPT  =    2.193    core radius for aug-charge                                                  
                                                                                                    
   Atomic configuration                                                                             
   16 entries                                                                                       
     n  l   j            E        occ.                                                              
     1  0  0.50    -80748.5001   2.0000                                                             
     2  0  0.50    -14244.7466   2.0000                                                             
     2  1  1.50    -12310.9591   6.0000                                                             
     3  0  0.50     -3362.1768   2.0000                                                             
     3  1  1.50     -2801.5463   6.0000                                                             
     3  2  2.50     -2203.8206  10.0000                                                             
     4  0  0.50      -729.8168   2.0000                                                             
     4  1  1.50      -546.0527   6.0000                                                             
     4  2  2.50      -325.7302  10.0000                                                             
     4  3  3.50       -81.1472  14.0000                                                             
     5  0  0.50      -108.3201   2.0000                                                             
     5  1  1.50       -59.7479   6.0000                                                             
     5  2  2.50        -6.8783  10.0000                                                             
     6  0  0.50        -5.7602   1.0000                                                             
     6  1  1.50        -6.8029   0.0000                                                             
     5  3  2.50        -1.3606   0.0000                                                             
   Description                                                                                      
     l       E           TYP  RCUT    TYP  RCUT                                                     
     2     -6.8782861     23  2.500                                                                 
     2     -8.2388687     23  2.500                                                                 
     0     -5.7601759     23  2.500                                                                 
     0     -0.8493231     23  2.500                                                                 
     1     -2.7211652     23  2.500                                                                 
     1     27.2116520     23  2.500                                                                 
     3     -1.3605826     23  2.500                                                                 
  local pseudopotential read in
  partial core-charges read in
  partial kinetic energy density read in
  atomic valenz-charges read in
  non local Contribution for L=           2  read in
    real space projection operators read in
  non local Contribution for L=           2  read in
    real space projection operators read in
  non local Contribution for L=           0  read in
    real space projection operators read in
  non local Contribution for L=           0  read in
    real space projection operators read in
  non local Contribution for L=           1  read in
    real space projection operators read in
  non local Contribution for L=           1  read in
    real space projection operators read in
    PAW grid and wavefunctions read in
 
   number of l-projection  operators is LMAX  =           6
   number of lm-projection operators is LMMAX =          18
 
 POTCAR:    PAW_PBE Co 02Aug2007                  
   VRHFIN =Co: d8 s1                                                                                
   LEXCH  = PE                                                                                      
   EATOM  =   813.3670 eV,   59.7808 Ry                                                             
                                                                                                    
   TITEL  = PAW_PBE Co 02Aug2007                                                                    
   LULTRA =        F    use ultrasoft PP ?                                                          
   IUNSCR =        1    unscreen: 0-lin 1-nonlin 2-no                                               
   RPACOR =    2.000    partial core radius                                                         
   POMASS =   58.933; ZVAL   =    9.000    mass and valenz                                          
   RCORE  =    2.300    outmost cutoff radius                                                       
   RWIGS  =    2.460; RWIGS  =    1.302    wigner-seitz radius (au A)                               
   ENMAX  =  267.968; ENMIN  =  200.976 eV                                                          
   RCLOC  =    1.203    cutoff for local pot                                                        
   LCOR   =        T    correct aug charges                                                         
   LPAW   =        T    paw PP                                                                      
   EAUG   =  477.818                                                                                
   DEXC   =    0.000                                                                                
   RMAX   =    2.360    core radius for proj-oper                                                   
   RAUG   =    1.300    factor for augmentation sphere                                              
   RDEP   =    2.393    radius for radial grids                                                     
   RDEPT  =    1.864    core radius for aug-charge                                                  
                                                                                                    
   Atomic configuration                                                                             
    9 entries                                                                                       
     n  l   j            E        occ.                                                              
     1  0  0.50     -7587.6674   2.0000                                                             
     2  0  0.50      -893.6084   2.0000                                                             
     2  1  1.50      -764.5805   6.0000                                                             
     3  0  0.50       -97.5973   2.0000                                                             
     3  1  1.50       -60.9648   6.0000                                                             
     3  2  2.50        -4.2382   8.0000                                                             
     4  0  0.50        -4.3746   1.0000                                                             
     4  1  1.50        -4.0817   0.0000                                                             
     4  3  2.50        -1.3606   0.0000                                                             
   Description                                                                                      
     l       E           TYP  RCUT    TYP  RCUT                                                     
     2     -4.2382362     23  2.300                                                                 
     2     -5.5988188     23  2.300                                                                 
     0     -4.3745797     23  2.300                                                                 
     0      5.7660125     23  2.300                                                                 
     1     -2.7211652     23  2.300                                                                 
     1     16.9860234     23  2.300                                                                 
  local pseudopotential read in
  partial core-charges read in
  partial kinetic energy density read in
  atomic valenz-charges read in
  non local Contribution for L=           2  read in
    real space projection operators read in
  non local Contribution for L=           2  read in
    real space projection operators read in
  non local Contribution for L=           0  read in
    real space projection operators read in
  non local Contribution for L=           0  read in
    real space projection operators read in
  non local Contribution for L=           1  read in
    real space projection operators read in
  non local Contribution for L=           1  read in
    real space projection operators read in
    PAW grid and wavefunctions read in
 
   number of l-projection  operators is LMAX  =           6
   number of lm-projection operators is LMMAX =          18
 
 Optimization of the real space projectors (new method)

 maximal supplied QI-value         = 15.12
 optimisation between [QCUT,QGAM] = [ 11.34, 22.83] = [ 36.00,145.93] Ry 
 Optimized for a Real-space Cutoff    1.39 Angstroem

   l    n(q)    QCUT    max X(q) W(low)/X(q) W(high)/X(q)  e(spline) 
   2      9    11.338    60.898    0.39E-03    0.42E-03    0.21E-06
   2      9    11.338    58.894    0.40E-03    0.42E-03    0.22E-06
   0      9    11.338   109.617    0.13E-03    0.20E-04    0.13E-06
   0      9    11.338    75.026    0.13E-03    0.20E-04    0.13E-06
   1      9    11.338    16.344    0.33E-04    0.24E-03    0.18E-06
   1      9    11.338    10.160    0.26E-04    0.19E-03    0.15E-06
 Optimization of the real space projectors (new method)

 maximal supplied QI-value         = 16.25
 optimisation between [QCUT,QGAM] = [ 11.38, 22.75] = [ 36.24,144.96] Ry 
 Optimized for a Real-space Cutoff    1.39 Angstroem

   l    n(q)    QCUT    max X(q) W(low)/X(q) W(high)/X(q)  e(spline) 
   2      8    11.376    65.824    0.20E-03    0.32E-04    0.13E-06
   2      8    11.376    61.429    0.20E-03    0.33E-04    0.14E-06
   0      9    11.376    56.174    0.76E-04    0.11E-03    0.19E-06
   0      9    11.376    31.263    0.69E-04    0.99E-04    0.17E-06
   1      9    11.376    19.828    0.35E-03    0.11E-03    0.12E-06
   1      9    11.376    15.139    0.29E-03    0.94E-04    0.10E-06
  PAW_PBE Au 04Oct2007                  :
 energy of atom  1       EATOM= -926.0867
 kinetic energy error for atom=    0.0042 (will be added to EATOM!!)
  PAW_PBE Co 02Aug2007                  :
 energy of atom  2       EATOM= -813.3670
 kinetic energy error for atom=    0.0028 (will be added to EATOM!!)
 
 
 POSCAR: Au-Co
  positions in direct lattice
  velocities in cartesian coordinates
 exchange correlation table for  LEXCH =        8
   RHO(1)=    0.500       N(1)  =     2000
   RHO(2)=  100.500       N(2)  =     4000

 VTST: version 3.2, (02/03/18)

 CHAIN: initializing optimizer
 
 OPT: Using VASP Conjugate-Gradient optimizer
 CHAIN: Read ICHAIN            0
 
 POSCAR: Au-Co
  positions in direct lattice
  velocities in cartesian coordinates
 


--------------------------------------------------------------------------------------------------------


 ion  position               nearest neighbor table
   1  0.000  0.000  0.238-  16 2.94  12 2.94   6 2.94   8 2.94   7 2.94   3 2.94  10 2.94   4 2.94
                             2 2.94
   2  0.333  0.000  0.238-   9 2.94  11 2.94  17 2.94  10 2.94   8 2.94   4 2.94   5 2.94   1 2.94
                             3 2.94
   3  0.667  0.000  0.238-   7 2.94  18 2.94  12 2.94   1 2.94  11 2.94   5 2.94   6 2.94   9 2.94
                             2 2.94
   4  0.000  0.333  0.238-  10 2.94   6 2.94   5 2.94  13 2.94   2 2.94  15 2.94   9 2.94   1 2.94
                             7 2.94
   5  0.333  0.333  0.238-  13 2.94   7 2.94  11 2.94   4 2.94   2 2.94  14 2.94   3 2.94   8 2.94
                             6 2.94
   6  0.667  0.333  0.238-  15 2.94  14 2.94   1 2.94  12 2.94   4 2.94   9 2.94   8 2.94   3 2.94
                             5 2.94
   7  0.000  0.667  0.238-  18 2.94   3 2.94  16 2.94   5 2.94   1 2.94  13 2.94   8 2.94   4 2.94
                             9 2.94
   8  0.333  0.667  0.238-   9 2.94  17 2.94   1 2.94   2 2.94  14 2.94  16 2.94   6 2.94   7 2.94
                             5 2.94
   9  0.667  0.667  0.238-   2 2.94   8 2.94  17 2.94   6 2.94  15 2.94   4 2.94   3 2.94  18 2.94
                             7 2.94
  10  0.111  0.111  0.346-  20 2.92  26 2.93  19 2.93  11 2.94  17 2.94   2 2.94   4 2.94   1 2.94
                            12 2.94  16 2.94  13 2.94  15 2.94
  11  0.444  0.111  0.346-  20 2.91  21 2.91  27 2.93  13 2.94   2 2.94  10 2.94  17 2.94   5 2.94
                             3 2.94  18 2.94  14 2.94  12 2.94
  12  0.778  0.111  0.346-  21 2.92  25 2.93  19 2.93  16 2.94  18 2.94   1 2.94  14 2.94  15 2.94
                             3 2.94   6 2.94  10 2.94  11 2.94
  13  0.111  0.444  0.346-  23 2.91  20 2.91  22 2.93   5 2.94  18 2.94  11 2.94   7 2.94   4 2.94
                            16 2.94  10 2.94  14 2.94  15 2.94
  14  0.444  0.444  0.346-  21 2.91  23 2.91  24 2.93  15 2.94   6 2.94  12 2.94   8 2.94  17 2.94
                             5 2.94  16 2.94  13 2.94  11 2.94
  15  0.778  0.444  0.346-  24 2.92  22 2.92  19 2.93  14 2.94   6 2.94  17 2.94  12 2.94   9 2.94
                             4 2.94  10 2.94  13 2.94  18 2.94
  16  0.111  0.778  0.346-  23 2.92  25 2.93  26 2.93  18 2.94  12 2.94   7 2.94   1 2.94   8 2.94
                            13 2.94  10 2.94  14 2.94  17 2.94
  17  0.444  0.778  0.346-  27 2.92  24 2.92  26 2.93   9 2.94  15 2.94   2 2.94  10 2.94  11 2.94
                             8 2.94  14 2.94  16 2.94  18 2.94
  18  0.778  0.778  0.346-  22 2.92  27 2.92  25 2.93  16 2.94   7 2.94  13 2.94  12 2.94   3 2.94
                            11 2.94   9 2.94  15 2.94  17 2.94
  19  0.889  0.222  0.454-  10 2.93  12 2.93  15 2.93  26 2.94  25 2.94  24 2.94  22 2.94  28 2.94
                            21 2.95  20 2.95  32 2.96  31 2.96
  20  0.223  0.223  0.453-  36 2.69  29 2.91  31 2.91  11 2.91  13 2.91  23 2.91  21 2.91  10 2.92
                            27 2.95  22 2.95  26 2.95  19 2.95
  21  0.554  0.223  0.453-  36 2.69  30 2.91  32 2.91  14 2.91  11 2.91  20 2.91  23 2.91  12 2.92
                            27 2.95  24 2.95  25 2.95  19 2.95
  22  0.887  0.557  0.453-  24 2.91  27 2.91  18 2.92  15 2.92  13 2.93  25 2.94  19 2.94  33 2.94
                            31 2.94  23 2.95  20 2.95  35 2.96
  23  0.223  0.554  0.453-  36 2.69  33 2.91  34 2.91  13 2.91  14 2.91  20 2.91  21 2.91  16 2.92
                            22 2.95  24 2.95  25 2.95  26 2.95
  24  0.557  0.557  0.453-  27 2.91  22 2.91  15 2.92  17 2.92  14 2.93  26 2.94  19 2.94  32 2.94
                            34 2.94  21 2.95  23 2.95  35 2.96
  25  0.889  0.889  0.454-  16 2.93  12 2.93  18 2.93  19 2.94  26 2.94  22 2.94  27 2.94  28 2.94
                            23 2.95  21 2.95  33 2.96  30 2.96
  26  0.222  0.889  0.454-  10 2.93  16 2.93  17 2.93  19 2.94  25 2.94  27 2.94  24 2.94  28 2.94
                            20 2.95  23 2.95  29 2.96  34 2.96
  27  0.557  0.887  0.453-  24 2.91  22 2.91  17 2.92  18 2.92  11 2.93  26 2.94  25 2.94  29 2.94
                            30 2.94  20 2.95  21 2.95  35 2.96
  28  0.000  0.000  0.562-  25 2.94  19 2.94  26 2.94  34 2.98  32 2.98  33 2.98  30 2.98  31 2.98
                            29 2.98
  29  0.334  0.008  0.561-  30 2.86  31 2.87  36 2.88  20 2.91  27 2.94  26 2.96  35 2.98  28 2.98
                            34 3.09
  30  0.658  0.008  0.561-  29 2.86  32 2.87  36 2.88  21 2.91  27 2.94  25 2.96  35 2.98  28 2.98
                            33 3.09
  31  0.008  0.334  0.561-  33 2.86  29 2.87  36 2.88  20 2.91  22 2.94  19 2.96  35 2.98  28 2.98
                            32 3.09
  32  0.658  0.334  0.561-  34 2.86  30 2.87  36 2.88  21 2.91  24 2.94  19 2.96  35 2.98  28 2.98
                            31 3.09
  33  0.008  0.658  0.561-  31 2.86  34 2.87  36 2.88  23 2.91  22 2.94  25 2.96  35 2.98  28 2.98
                            30 3.09
  34  0.334  0.658  0.561-  32 2.86  33 2.87  36 2.88  23 2.91  24 2.94  26 2.96  35 2.98  28 2.98
                            29 3.09
  35  0.667  0.667  0.563-  24 2.96  27 2.96  22 2.96  29 2.98  34 2.98  32 2.98  31 2.98  30 2.98
                            33 2.98
  36  0.333  0.333  0.547-  20 2.69  23 2.69  21 2.69  33 2.88  31 2.88  29 2.88  30 2.88  34 2.88
                            32 2.88
 
  LATTYP: Found a hexagonal cell.
 ALAT       =     8.8135128021
 C/A-ratio  =     2.5184286595
  
  Lattice vectors:
  
 A1 = (  -4.4067569092,  -7.6327256898,   0.0000000000)
 A2 = (   8.8135128021,   0.0000000000,   0.0000000000)
 A3 = (   0.0000000000,   0.0000000000,  22.1962032318)


Analysis of symmetry for initial positions (statically):
=====================================================================
 Subroutine PRICEL returns:
 Original cell was already a primitive cell.
 

 Routine SETGRP: Setting up the symmetry group for a 
 hexagonal supercell.


 Subroutine GETGRP returns: Found  6 space group operations
 (whereof  6 operations were pure point group operations)
 out of a pool of 24 trial point group operations.


The static configuration has the point symmetry C_3v.


Analysis of symmetry for dynamics (positions and initial velocities):
=====================================================================
 Subroutine PRICEL returns:
 Original cell was already a primitive cell.
 

 Routine SETGRP: Setting up the symmetry group for a 
 hexagonal supercell.


 Subroutine GETGRP returns: Found  6 space group operations
 (whereof  6 operations were pure point group operations)
 out of a pool of 24 trial point group operations.


The dynamic configuration has the point symmetry C_3v.


Analysis of constrained symmetry for selective dynamics:
=====================================================================
 Subroutine PRICEL returns:
 Original cell was already a primitive cell.
 

 Routine SETGRP: Setting up the symmetry group for a 
 hexagonal supercell.


 Subroutine GETGRP returns: Found  6 space group operations
 (whereof  6 operations were pure point group operations)
 out of a pool of 24 trial point group operations.


The constrained configuration has the point symmetry C_3v.


 Subroutine INISYM returns: Found  6 space group operations
 (whereof  6 operations are pure point group operations),
 and found     1 'primitive' translations


----------------------------------------------------------------------------------------

                                     Primitive cell                                     

  volume of cell :    1493.1636

  direct lattice vectors                    reciprocal lattice vectors
     8.813512802  0.000000000  0.000000000     0.113462137 -0.065507406  0.000000000
     4.406756909  7.632725690  0.000000000     0.000000000  0.131014796  0.000000000
     0.000000000  0.000000000 22.196203232     0.000000000  0.000000000  0.045052750

  length of vectors
     8.813512802  8.813512802 22.196203232     0.131014796  0.131014796  0.045052750

  position of ions in fractional coordinates (direct lattice)
     0.000000000  0.000000000  0.237895638
     0.333333343  0.000000000  0.237895638
     0.666666687  0.000000000  0.237895638
     1.000000000  0.333333343  0.237895638
     0.333333313  0.333333343  0.237895638
     0.666666687  0.333333343  0.237895638
     1.000000000  0.666666687  0.237895638
     0.333333343  0.666666687  0.237895638
     0.666666627  0.666666687  0.237895638
     0.111111119  0.111111112  0.345965207
     0.444444418  0.111111112  0.345965207
     0.777777791  0.111111112  0.345965207
     0.111111127  0.444444448  0.345965207
     0.444444478  0.444444448  0.345965207
     0.777777731  0.444444448  0.345965207
     0.111111090  0.777777791  0.345965207
     0.444444448  0.777777791  0.345965207
     0.777777851  0.777777791  0.345965207
     0.888949268  0.222101481  0.453758974
     0.223217136  0.223217121  0.452814058
     0.553565788  0.223217121  0.452814058
     0.886972908  0.556513576  0.453083897
     0.223217091  0.553565788  0.452814058
     0.556513576  0.556513576  0.453083897
     0.888949268  0.888949268  0.453758974
     0.222101511  0.888949268  0.453758974
     0.556513516  0.886972908  0.453083897
     0.000000000  0.000000000  0.562107223
     0.333506134  0.008416363  0.561167432
     0.658077533  0.008416363  0.561167432
     0.008416363  0.333506134  0.561167432
     0.658077533  0.333506134  0.561167432
     0.008416363  0.658077533  0.561167432
     0.333506134  0.658077533  0.561167432
     0.666666627  0.666666687  0.562744170
     0.333333313  0.333333343  0.547432793

  ion indices of the primitive-cell ions
   primitive index   ion index
                 1           1
                 2           2
                 3           3
                 4           4
                 5           5
                 6           6
                 7           7
                 8           8
                 9           9
                10          10
                11          11
                12          12
                13          13
                14          14
                15          15
                16          16
                17          17
                18          18
                19          19
                20          20
                21          21
                22          22
                23          23
                24          24
                25          25
                26          26
                27          27
                28          28
                29          29
                30          30
                31          31
                32          32
                33          33
                34          34
                35          35
                36          36

----------------------------------------------------------------------------------------

 
 
 KPOINTS: Automatic mesh                          

Automatic generation of k-mesh.
 Grid dimensions read from file:
 generate k-points for:    8    8    1

 Generating k-lattice:

  Cartesian coordinates                     Fractional coordinates (reciprocal lattice)
     0.014182767 -0.008188426  0.000000000     0.125000000 -0.000000000  0.000000000
     0.000000000  0.016376850  0.000000000     0.000000000  0.125000000  0.000000000
     0.000000000  0.000000000  0.045052750     0.000000000  0.000000000  1.000000000

  Length of vectors
     0.016376850  0.016376850  0.045052750

  Shift w.r.t. Gamma in fractional coordinates (k-lattice)
     0.000000000  0.000000000  0.000000000

 TETIRR: Found     36 inequivalent tetrahedra from      384
 
 Subroutine IBZKPT returns following result:
 ===========================================
 
 Found     10 irreducible k-points:
 
 Following reciprocal coordinates:
            Coordinates               Weight
  0.000000  0.000000  0.000000      1.000000
  0.125000 -0.000000  0.000000      6.000000
  0.250000 -0.000000  0.000000      6.000000
  0.375000  0.000000  0.000000      6.000000
  0.500000 -0.000000  0.000000      3.000000
  0.250000  0.125000  0.000000      6.000000
  0.375000  0.125000  0.000000     12.000000
  0.500000  0.125000  0.000000     12.000000
  0.500000  0.250000  0.000000      6.000000
 -0.375000  0.250000  0.000000      6.000000
 
 Following cartesian coordinates:
            Coordinates               Weight
  0.000000  0.000000  0.000000      1.000000
  0.014183 -0.008188  0.000000      6.000000
  0.028366 -0.016377  0.000000      6.000000
  0.042548 -0.024565  0.000000      6.000000
  0.056731 -0.032754  0.000000      3.000000
  0.028366 -0.000000  0.000000      6.000000
  0.042548 -0.008188  0.000000     12.000000
  0.056731 -0.016377  0.000000     12.000000
  0.056731 -0.000000  0.000000      6.000000
 -0.042548  0.057319  0.000000      6.000000
 


--------------------------------------------------------------------------------------------------------




 Dimension of arrays:
   k-points           NKPTS =     10   k-points in BZ     NKDIM =     10   number of bands    NBANDS=    252
   number of dos      NEDOS =    301   number of ions     NIONS =     36
   non local maximal  LDIM  =      6   non local SUM 2l+1 LMDIM =     18
   total plane-waves  NPLWV = 290304
   max r-space proj   IRMAX =   2236   max aug-charges    IRDMAX=  12088
   dimension x,y,z NGX =    48 NGY =   48 NGZ =  126
   dimension x,y,z NGXF=    96 NGYF=   96 NGZF=  252
   support grid    NGXF=    96 NGYF=   96 NGZF=  252
   ions per type =              35   1
   NGX,Y,Z   is equivalent  to a cutoff of   9.05,  9.05,  9.44 a.u.
   NGXF,Y,Z  is equivalent  to a cutoff of  18.11, 18.11, 18.87 a.u.

 SYSTEM =  unknown system                          
 POSCAR =  Au-Co                                   

 Startparameter for this run:
   NWRITE =      2    write-flag & timer
   PREC   = normal    normal or accurate (medium, high low for compatibility)
   ISTART =      0    job   : 0-new  1-cont  2-samecut
   ICHARG =     11    charge: 1-file 2-atom 10-const
   ISPIN  =      1    spin polarized calculation?
   LNONCOLLINEAR =      F non collinear calculations
   LSORBIT =      F    spin-orbit coupling
   INIWAV =      1    electr: 0-lowe 1-rand  2-diag
   LASPH  =      F    aspherical Exc in radial PAW
   METAGGA=      F    non-selfconsistent MetaGGA calc.

 Electronic Relaxation 1
   ENCUT  =  500.0 eV  36.75 Ry    6.06 a.u.  16.07 16.07 40.47*2*pi/ulx,y,z
   ENINI  =  500.0     initial cutoff
   ENAUG  =  477.8 eV  augmentation charge cutoff
   NELM   =    150;   NELMIN=  2; NELMDL= -5     # of ELM steps 
   EDIFF  = 0.1E-04   stopping-criterion for ELM
   LREAL  =      T    real-space projection
   NLSPLINE    = F    spline interpolate recip. space projectors
   LCOMPAT=      F    compatible to vasp.4.4
   GGA_COMPAT  = T    GGA compatible to vasp.4.4-vasp.4.6
   LMAXPAW     = -100 max onsite density
   LMAXMIX     =    2 max onsite mixed and CHGCAR
   VOSKOWN=      0    Vosko Wilk Nusair interpolation
   ROPT   =   -0.00050  -0.00050
 Ionic relaxation
   EDIFFG = -.1E-01   stopping-criterion for IOM
   NSW    =      0    number of steps for IOM
   NBLOCK =      1;   KBLOCK =      1    inner block; outer block 
   IBRION =     -1    ionic relax: 0-MD 1-quasi-New 2-CG
   NFREE  =      1    steps in history (QN), initial steepest desc. (CG)
   ISIF   =      2    stress and relaxation
   IWAVPR =     10    prediction:  0-non 1-charg 2-wave 3-comb
   ISYM   =      2    0-nonsym 1-usesym 2-fastsym
   LCORR  =      T    Harris-Foulkes like correction to forces

   POTIM  = 0.5000    time-step for ionic-motion
   TEIN   =    0.0    initial temperature
   TEBEG  =    0.0;   TEEND  =   0.0 temperature during run
   SMASS  =  -3.00    Nose mass-parameter (am)
   estimated Nose-frequenzy (Omega)   =  0.10E-29 period in steps = 0.13E+47 mass=  -0.178E-26a.u.
   SCALEE = 1.0000    scale energy and forces
   NPACO  =    256;   APACO  = 16.0  distance and # of slots for P.C.
   PSTRESS=    0.0 pullay stress

  Mass of Ions in am
   POMASS = 196.97 58.93
  Ionic Valenz
   ZVAL   =  11.00  9.00
  Atomic Wigner-Seitz radii
   RWIGS  =  -1.00 -1.00
  virtual crystal weights 
   VCA    =   1.00  1.00
   NELECT =     394.0000    total number of electrons
   NUPDOWN=      -1.0000    fix difference up-down

 DOS related values:
   EMIN   =  10.00;   EMAX   =-10.00  energy-range for DOS
   EFERMI =   0.00
   ISMEAR =    -5;   SIGMA  =   0.10  broadening in eV -4-tet -1-fermi 0-gaus

 Electronic relaxation 2 (details)
   IALGO  =     68    algorithm
   LDIAG  =      T    sub-space diagonalisation (order eigenvalues)
   LSUBROT=      F    optimize rotation matrix (better conditioning)
   TURBO    =      0    0=normal 1=particle mesh
   IRESTART =      0    0=no restart 2=restart with 2 vectors
   NREBOOT  =      0    no. of reboots
   NMIN     =      0    reboot dimension
   EREF     =   0.00    reference energy to select bands
   IMIX   =      4    mixing-type and parameters
     AMIX     =   0.40;   BMIX     =  1.00
     AMIX_MAG =   1.60;   BMIX_MAG =  1.00
     AMIN     =   0.10
     WC   =   100.;   INIMIX=   1;  MIXPRE=   1;  MAXMIX= -45

 Intra band minimization:
   WEIMIN = 0.0000     energy-eigenvalue tresh-hold
   EBREAK =  0.99E-08  absolut break condition
   DEPER  =   0.30     relativ break condition  

   TIME   =   0.40     timestep for ELM

  volume/ion in A,a.u.               =      41.48       279.90
  Fermi-wavevector in a.u.,A,eV,Ry     =   1.050037  1.984281 15.001469  1.102577
  Thomas-Fermi vector in A             =   2.185024
 
 Write flags
   LWAVE        =      F    write WAVECAR
   LDOWNSAMPLE  =      F    k-point downsampling of WAVECAR
   LCHARG       =      F    write CHGCAR
   LVTOT        =      F    write LOCPOT, total local potential
   LVHAR        =      F    write LOCPOT, Hartree potential only
   LELF         =      F    write electronic localiz. function (ELF)
   LORBIT       =     10    0 simple, 1 ext, 2 COOP (PROOUT), +10 PAW based schemes


 Dipole corrections
   LMONO  =      F    monopole corrections only (constant potential shift)
   LDIPOL =      F    correct potential (dipole corrections)
   IDIPOL =      0    1-x, 2-y, 3-z, 4-all directions 
   EPSILON=  1.0000000 bulk dielectric constant

 Exchange correlation treatment:
   GGA     =    --    GGA type
   LEXCH   =     8    internal setting for exchange type
   VOSKOWN=      0    Vosko Wilk Nusair interpolation
   LHFCALC =     F    Hartree Fock is set to
   LHFONE  =     F    Hartree Fock one center treatment
   AEXX    =    0.0000 exact exchange contribution

 Linear response parameters
   LEPSILON=     F    determine dielectric tensor
   LRPA    =     F    only Hartree local field effects (RPA)
   LNABLA  =     F    use nabla operator in PAW spheres
   LVEL    =     F    velocity operator in full k-point grid
   LINTERFAST=   F  fast interpolation
   KINTER  =     0    interpolate to denser k-point grid
   CSHIFT  =0.1000    complex shift for real part using Kramers Kronig
   OMEGAMAX=  -1.0    maximum frequency
   DEG_THRESHOLD= 0.2000000E-02 threshold for treating states as degnerate
   RTIME   =   -0.100 relaxation time in fs
  (WPLASMAI=    0.000 imaginary part of plasma frequency in eV, 0.658/RTIME)
   DFIELD  = 0.0000000 0.0000000 0.0000000 field for delta impulse in time
 
 Orbital magnetization related:
   ORBITALMAG=     F  switch on orbital magnetization
   LCHIMAG   =     F  perturbation theory with respect to B field
   DQ        =  0.001000  dq finite difference perturbation B field
   LLRAUG    =     F  two centre corrections for induced B field



--------------------------------------------------------------------------------------------------------


 Static calculation
 charge density and potential remain constant during run
 non-spin polarized calculation
 RMM-DIIS sequential band-by-band and
  variant of blocked Davidson during initial phase
 perform sub-space diagonalisation
    before iterative eigenvector-optimisation
 no mixing
 using additional bands           55
 real space projection scheme for non local part
 use partial core corrections
 calculate Harris-corrections to forces 
   (improved forces if not selfconsistent)
 use gradient corrections 
 WARNING: stress and forces are not correct
  (second derivative of E(xc) not defined)
 use of overlap-Matrix (Vanderbilt PP)
 Fermi weights with tetrahedron method with Bloechl corrections


--------------------------------------------------------------------------------------------------------


  energy-cutoff  :      500.00
  volume of cell :     1493.16
      direct lattice vectors                 reciprocal lattice vectors
     8.813512802  0.000000000  0.000000000     0.113462137 -0.065507406  0.000000000
     4.406756909  7.632725690  0.000000000     0.000000000  0.131014796  0.000000000
     0.000000000  0.000000000 22.196203232     0.000000000  0.000000000  0.045052750

  length of vectors
     8.813512802  8.813512802 22.196203232     0.131014796  0.131014796  0.045052750


 
 k-points in units of 2pi/SCALE and weight: Automatic mesh                          
   0.00000000  0.00000000  0.00000000       0.016
   0.01418277 -0.00818843  0.00000000       0.094
   0.02836553 -0.01637685  0.00000000       0.094
   0.04254830 -0.02456528  0.00000000       0.094
   0.05673107 -0.03275370  0.00000000       0.047
   0.02836553 -0.00000000  0.00000000       0.094
   0.04254830 -0.00818843  0.00000000       0.188
   0.05673107 -0.01637685  0.00000000       0.188
   0.05673107 -0.00000000  0.00000000       0.094
  -0.04254830  0.05731898  0.00000000       0.094
 
 k-points in reciprocal lattice and weights: Automatic mesh                          
   0.00000000  0.00000000  0.00000000       0.016
   0.12500000 -0.00000000  0.00000000       0.094
   0.25000000 -0.00000000  0.00000000       0.094
   0.37500000  0.00000000  0.00000000       0.094
   0.50000000 -0.00000000  0.00000000       0.047
   0.25000000  0.12500000  0.00000000       0.094
   0.37500000  0.12500000  0.00000000       0.188
   0.50000000  0.12500000  0.00000000       0.188
   0.50000000  0.25000000  0.00000000       0.094
  -0.37500000  0.25000000  0.00000000       0.094
 
 position of ions in fractional coordinates (direct lattice) 
   0.00000000  0.00000000  0.23789564
   0.33333334  0.00000000  0.23789564
   0.66666669  0.00000000  0.23789564
   0.00000000  0.33333334  0.23789564
   0.33333331  0.33333334  0.23789564
   0.66666669  0.33333334  0.23789564
   0.00000000  0.66666669  0.23789564
   0.33333334  0.66666669  0.23789564
   0.66666663  0.66666669  0.23789564
   0.11111112  0.11111111  0.34596521
   0.44444442  0.11111111  0.34596521
   0.77777779  0.11111111  0.34596521
   0.11111113  0.44444445  0.34596521
   0.44444448  0.44444445  0.34596521
   0.77777773  0.44444445  0.34596521
   0.11111109  0.77777779  0.34596521
   0.44444445  0.77777779  0.34596521
   0.77777785  0.77777779  0.34596521
   0.88894927  0.22210148  0.45375897
   0.22321714  0.22321712  0.45281406
   0.55356579  0.22321712  0.45281406
   0.88697291  0.55651358  0.45308390
   0.22321709  0.55356579  0.45281406
   0.55651358  0.55651358  0.45308390
   0.88894927  0.88894927  0.45375897
   0.22210151  0.88894927  0.45375897
   0.55651352  0.88697291  0.45308390
   0.00000000  0.00000000  0.56210722
   0.33350613  0.00841636  0.56116743
   0.65807753  0.00841636  0.56116743
   0.00841636  0.33350613  0.56116743
   0.65807753  0.33350613  0.56116743
   0.00841636  0.65807753  0.56116743
   0.33350613  0.65807753  0.56116743
   0.66666663  0.66666669  0.56274417
   0.33333331  0.33333334  0.54743279
 
 position of ions in cartesian coordinates  (Angst):
   0.00000000  0.00000000  5.28037993
   2.93783769  0.00000000  5.28037993
   5.87567538  0.00000000  5.28037993
   1.46891901  2.54424197  5.28037993
   4.40675643  2.54424197  5.28037993
   7.34459439  2.54424197  5.28037993
   2.93783803  5.08848395  5.28037993
   5.87567571  5.08848395  5.28037993
   8.81351288  5.08848395  5.28037993
   1.46891893  0.84808064  7.67911405
   4.40675623  0.84808064  7.67911405
   7.34459418  0.84808064  7.67911405
   2.93783798  3.39232256  7.67911405
   5.87567574  3.39232256  7.67911405
   8.81351263  3.39232256  7.67911405
   4.40675667  5.93656453  7.67911405
   7.34459449  5.93656453  7.67911405
  10.28243270  5.93656453  7.67911405
   8.81351299  1.69523968 10.07172640
   2.95099067  1.70375505 10.05075287
   5.86252275  1.70375505 10.05075287
  10.26976713  4.24771547 10.05674227
   4.40675655  4.22521581 10.05075287
   7.35725957  4.24771547 10.05674227
  11.75214908  6.78510591 10.07172640
   5.87487783  6.78510591 10.07172640
   8.81351299  6.77002090 10.05674227
   0.00000000  0.00000000 12.47664615
   2.97644944  0.06423979 12.45578638
   5.83706363  0.06423979 12.45578638
   1.54385818  2.54556083 12.45578638
   7.26965522  2.54556083 12.45578638
   2.97416544  5.02292529 12.45578638
   5.83934829  5.02292529 12.45578638
   8.81351288  5.08848395 12.49078397
   4.40675643  2.54424197 12.15092953
 


--------------------------------------------------------------------------------------------------------


 k-point   1 :   0.0000 0.0000 0.0000  plane waves:   37827
 k-point   2 :   0.1250-0.0000 0.0000  plane waves:   37876
 k-point   3 :   0.2500-0.0000 0.0000  plane waves:   37924
 k-point   4 :   0.3750 0.0000 0.0000  plane waves:   37904
 k-point   5 :   0.5000-0.0000 0.0000  plane waves:   37912
 k-point   6 :   0.2500 0.1250 0.0000  plane waves:   37858
 k-point   7 :   0.3750 0.1250 0.0000  plane waves:   37928
 k-point   8 :   0.5000 0.1250 0.0000  plane waves:   37924
 k-point   9 :   0.5000 0.2500 0.0000  plane waves:   37926
 k-point  10 :  -0.3750 0.2500 0.0000  plane waves:   37916

 maximum and minimum number of plane-waves per node :     37928    37827

 maximum number of plane-waves:     37928
 maximum index in each direction: 
   IXMAX=   16   IYMAX=   16   IZMAX=   40
   IXMIN=  -16   IYMIN=  -16   IZMIN=  -40


 serial   3D FFT for wavefunctions
 parallel 3D FFT for charge:
    minimum data exchange during FFTs selected (reduces bandwidth)


 total amount of memory used by VASP MPI-rank0   120975. kBytes
=======================================================================

   base      :      30000. kBytes
   nonlr-proj:      13387. kBytes
   fftplans  :       4330. kBytes
   grid      :      17098. kBytes
   one-center:        559. kBytes
   wavefun   :      55601. kBytes
 
     INWAV:  cpu time    0.0000: real time    0.0000
 initial charge density was supplied:
 number of electron     394.0000026 magnetization 
 keeping initial charge density in first step


--------------------------------------------------------------------------------------------------------


 Maximum index for non-local projection operator         2121
 Maximum index for augmentation-charges          855 (set IRDMAX)


--------------------------------------------------------------------------------------------------------


 First call to EWALD:  gamma=   0.155
 Maximum number of real-space cells 4x 4x 2
 Maximum number of reciprocal cells 2x 2x 5

    FEWALD:  cpu time    0.0015: real time    0.0015


--------------------------------------- Iteration      1(   1)  ---------------------------------------


    POTLOK:  cpu time    0.0600: real time    0.0605
    SETDIJ:  cpu time    0.0055: real time    0.0056
     EDDAV:  cpu time   11.3735: real time   11.4058
 BZINTS: Fermi energy:   11.174531;  394.000000 electrons
         Band energy: 0.155196E+04;  BLOECHL correction:   -0.020053
       DOS:  cpu time    0.0123: real time    0.0124
    --------------------------------------------
      LOOP:  cpu time   11.4513: real time   11.4843

 eigenvalue-minimisations  :  5040
 total energy-change (2. order) : 0.2615157E+04  (-0.1780898E+05)
 number of electron     394.0000026 magnetization 
 augmentation part      394.0000026 magnetization 

 Free energy of the ion-electron system (eV)
  ---------------------------------------------------
  alpha Z        PSCENC =       990.36298836
  Ewald energy   TEWEN  =     97596.12323625
  -Hartree energ DENC   =   -131959.26675299
  -exchange      EXHF   =         0.00000000
  -V(xc)+E(xc)   XCENC  =       532.85022734
  PAW double counting   =     35947.30386589   -35270.42509176
  entropy T*S    EENTRO =         0.00000000
  eigenvalues    EBANDS =      1551.95850903
  atomic energy  EATOM  =     33226.25038448
  Solvation  Ediel_sol  =         0.00000000
  ---------------------------------------------------
  free energy    TOTEN  =      2615.15736661 eV

  energy without entropy =     2615.15736661  energy(sigma->0) =     2615.15736661


--------------------------------------------------------------------------------------------------------




--------------------------------------- Iteration      1(   2)  ---------------------------------------


     EDDAV:  cpu time   12.0974: real time   12.1217
 BZINTS: Fermi energy:    1.413410;  394.000000 electrons
         Band energy:-0.104669E+04;  BLOECHL correction:   -0.029112
       DOS:  cpu time    0.0110: real time    0.0110
    --------------------------------------------
      LOOP:  cpu time   12.1084: real time   12.1327

 eigenvalue-minimisations  :  5600
 total energy-change (2. order) :-0.2598652E+04  (-0.2383027E+04)
 number of electron     394.0000026 magnetization 
 augmentation part      394.0000026 magnetization 

 Free energy of the ion-electron system (eV)
  ---------------------------------------------------
  alpha Z        PSCENC =       990.36298836
  Ewald energy   TEWEN  =     97596.12323625
  -Hartree energ DENC   =   -131959.26675299
  -exchange      EXHF   =         0.00000000
  -V(xc)+E(xc)   XCENC  =       532.85022734
  PAW double counting   =     35947.30386589   -35270.42509176
  entropy T*S    EENTRO =         0.00000000
  eigenvalues    EBANDS =     -1046.69360646
  atomic energy  EATOM  =     33226.25038448
  Solvation  Ediel_sol  =         0.00000000
  ---------------------------------------------------
  free energy    TOTEN  =        16.50525112 eV

  energy without entropy =       16.50525112  energy(sigma->0) =       16.50525112


--------------------------------------------------------------------------------------------------------




--------------------------------------- Iteration      1(   3)  ---------------------------------------


     EDDAV:  cpu time   12.4647: real time   12.4746
 BZINTS: Fermi energy:    0.674749;  394.000000 electrons
         Band energy:-0.117277E+04;  BLOECHL correction:   -0.074335
       DOS:  cpu time    0.0105: real time    0.0105
    --------------------------------------------
      LOOP:  cpu time   12.4752: real time   12.4850

 eigenvalue-minimisations  :  5796
 total energy-change (2. order) :-0.1260736E+03  (-0.1216243E+03)
 number of electron     394.0000026 magnetization 
 augmentation part      394.0000026 magnetization 

 Free energy of the ion-electron system (eV)
  ---------------------------------------------------
  alpha Z        PSCENC =       990.36298836
  Ewald energy   TEWEN  =     97596.12323625
  -Hartree energ DENC   =   -131959.26675299
  -exchange      EXHF   =         0.00000000
  -V(xc)+E(xc)   XCENC  =       532.85022734
  PAW double counting   =     35947.30386589   -35270.42509176
  entropy T*S    EENTRO =         0.00000000
  eigenvalues    EBANDS =     -1172.76718633
  atomic energy  EATOM  =     33226.25038448
  Solvation  Ediel_sol  =         0.00000000
  ---------------------------------------------------
  free energy    TOTEN  =      -109.56832875 eV

  energy without entropy =     -109.56832875  energy(sigma->0) =     -109.56832875


--------------------------------------------------------------------------------------------------------




--------------------------------------- Iteration      1(   4)  ---------------------------------------


     EDDAV:  cpu time   13.0959: real time   13.1081
 BZINTS: Fermi energy:    0.658877;  394.000000 electrons
         Band energy:-0.117523E+04;  BLOECHL correction:   -0.074947
       DOS:  cpu time    0.0138: real time    0.0139
    --------------------------------------------
      LOOP:  cpu time   13.1097: real time   13.1219

 eigenvalue-minimisations  :  6020
 total energy-change (2. order) :-0.2458487E+01  (-0.2454124E+01)
 number of electron     394.0000026 magnetization 
 augmentation part      394.0000026 magnetization 

 Free energy of the ion-electron system (eV)
  ---------------------------------------------------
  alpha Z        PSCENC =       990.36298836
  Ewald energy   TEWEN  =     97596.12323625
  -Hartree energ DENC   =   -131959.26675299
  -exchange      EXHF   =         0.00000000
  -V(xc)+E(xc)   XCENC  =       532.85022734
  PAW double counting   =     35947.30386589   -35270.42509176
  entropy T*S    EENTRO =         0.00000000
  eigenvalues    EBANDS =     -1175.22567340
  atomic energy  EATOM  =     33226.25038448
  Solvation  Ediel_sol  =         0.00000000
  ---------------------------------------------------
  free energy    TOTEN  =      -112.02681582 eV

  energy without entropy =     -112.02681582  energy(sigma->0) =     -112.02681582


--------------------------------------------------------------------------------------------------------




--------------------------------------- Iteration      1(   5)  ---------------------------------------


     EDDAV:  cpu time   13.2847: real time   13.2979
 BZINTS: Fermi energy:    0.658468;  394.000000 electrons
         Band energy:-0.117528E+04;  BLOECHL correction:   -0.074956
       DOS:  cpu time    0.0119: real time    0.0119
    --------------------------------------------
      LOOP:  cpu time   13.2966: real time   13.3097

 eigenvalue-minimisations  :  6244
 total energy-change (2. order) :-0.5797418E-01  (-0.5797172E-01)
 number of electron     394.0000026 magnetization 
 augmentation part      394.0000026 magnetization 

 Free energy of the ion-electron system (eV)
  ---------------------------------------------------
  alpha Z        PSCENC =       990.36298836
  Ewald energy   TEWEN  =     97596.12323625
  -Hartree energ DENC   =   -131959.26675299
  -exchange      EXHF   =         0.00000000
  -V(xc)+E(xc)   XCENC  =       532.85022734
  PAW double counting   =     35947.30386589   -35270.42509176
  entropy T*S    EENTRO =         0.00000000
  eigenvalues    EBANDS =     -1175.28364758
  atomic energy  EATOM  =     33226.25038448
  Solvation  Ediel_sol  =         0.00000000
  ---------------------------------------------------
  free energy    TOTEN  =      -112.08479001 eV

  energy without entropy =     -112.08479001  energy(sigma->0) =     -112.08479001


--------------------------------------------------------------------------------------------------------




--------------------------------------- Iteration      1(   6)  ---------------------------------------


    EDDIAG:  cpu time    2.3310: real time    2.3329
  RMM-DIIS:  cpu time    7.0534: real time    7.0773
    ORTHCH:  cpu time    0.3715: real time    0.3716
 BZINTS: Fermi energy:    0.658459;  394.000000 electrons
         Band energy:-0.117529E+04;  BLOECHL correction:   -0.074955
       DOS:  cpu time    0.0131: real time    0.0131
    --------------------------------------------
      LOOP:  cpu time    9.7690: real time    9.7949

 eigenvalue-minimisations  :  5077
 total energy-change (2. order) :-0.1771417E-02  (-0.1772923E-02)
 number of electron     394.0000026 magnetization 
 augmentation part      394.0000026 magnetization 

 Free energy of the ion-electron system (eV)
  ---------------------------------------------------
  alpha Z        PSCENC =       990.36298836
  Ewald energy   TEWEN  =     97596.12323625
  -Hartree energ DENC   =   -131959.26675299
  -exchange      EXHF   =         0.00000000
  -V(xc)+E(xc)   XCENC  =       532.85022734
  PAW double counting   =     35947.30386589   -35270.42509176
  entropy T*S    EENTRO =         0.00000000
  eigenvalues    EBANDS =     -1175.28541900
  atomic energy  EATOM  =     33226.25038448
  Solvation  Ediel_sol  =         0.00000000
  ---------------------------------------------------
  free energy    TOTEN  =      -112.08656142 eV

  energy without entropy =     -112.08656142  energy(sigma->0) =     -112.08656142


--------------------------------------------------------------------------------------------------------




--------------------------------------- Iteration      1(   7)  ---------------------------------------


    EDDIAG:  cpu time    2.3585: real time    2.3674
  RMM-DIIS:  cpu time   10.2003: real time   10.2104
    ORTHCH:  cpu time    0.3797: real time    0.3799
 BZINTS: Fermi energy:    0.658456;  394.000000 electrons
         Band energy:-0.117529E+04;  BLOECHL correction:   -0.074954
       DOS:  cpu time    0.0102: real time    0.0102
    --------------------------------------------
      LOOP:  cpu time   12.9488: real time   12.9679

 eigenvalue-minimisations  :  7079
 total energy-change (2. order) :-0.6147807E-03  (-0.6075158E-03)
 number of electron     394.0000026 magnetization 
 augmentation part      394.0000026 magnetization 

 Free energy of the ion-electron system (eV)
  ---------------------------------------------------
  alpha Z        PSCENC =       990.36298836
  Ewald energy   TEWEN  =     97596.12323625
  -Hartree energ DENC   =   -131959.26675299
  -exchange      EXHF   =         0.00000000
  -V(xc)+E(xc)   XCENC  =       532.85022734
  PAW double counting   =     35947.30386589   -35270.42509176
  entropy T*S    EENTRO =         0.00000000
  eigenvalues    EBANDS =     -1175.28603378
  atomic energy  EATOM  =     33226.25038448
  Solvation  Ediel_sol  =         0.00000000
  ---------------------------------------------------
  free energy    TOTEN  =      -112.08717620 eV

  energy without entropy =     -112.08717620  energy(sigma->0) =     -112.08717620


--------------------------------------------------------------------------------------------------------




--------------------------------------- Iteration      1(   8)  ---------------------------------------


    EDDIAG:  cpu time    2.3218: real time    2.3236
  RMM-DIIS:  cpu time    8.2071: real time    8.2148
    ORTHCH:  cpu time    0.3757: real time    0.3759
 BZINTS: Fermi energy:    0.658456;  394.000000 electrons
         Band energy:-0.117529E+04;  BLOECHL correction:   -0.074954
       DOS:  cpu time    0.0126: real time    0.0126
    --------------------------------------------
      LOOP:  cpu time   10.9173: real time   10.9270

 eigenvalue-minimisations  :  5526
 total energy-change (2. order) :-0.2703039E-04  (-0.2650483E-04)
 number of electron     394.0000026 magnetization 
 augmentation part      394.0000026 magnetization 

 Free energy of the ion-electron system (eV)
  ---------------------------------------------------
  alpha Z        PSCENC =       990.36298836
  Ewald energy   TEWEN  =     97596.12323625
  -Hartree energ DENC   =   -131959.26675299
  -exchange      EXHF   =         0.00000000
  -V(xc)+E(xc)   XCENC  =       532.85022734
  PAW double counting   =     35947.30386589   -35270.42509176
  entropy T*S    EENTRO =         0.00000000
  eigenvalues    EBANDS =     -1175.28606081
  atomic energy  EATOM  =     33226.25038448
  Solvation  Ediel_sol  =         0.00000000
  ---------------------------------------------------
  free energy    TOTEN  =      -112.08720323 eV

  energy without entropy =     -112.08720323  energy(sigma->0) =     -112.08720323


--------------------------------------------------------------------------------------------------------




--------------------------------------- Iteration      1(   9)  ---------------------------------------


    EDDIAG:  cpu time    2.2375: real time    2.2402
  RMM-DIIS:  cpu time    7.5972: real time    7.6160
    ORTHCH:  cpu time    0.3557: real time    0.3559
 BZINTS: Fermi energy:    0.658456;  394.000000 electrons
         Band energy:-0.117529E+04;  BLOECHL correction:   -0.074954
       DOS:  cpu time    0.0121: real time    0.0121
    --------------------------------------------
      LOOP:  cpu time   10.2026: real time   10.2242

 eigenvalue-minimisations  :  4569
 total energy-change (2. order) :-0.9095209E-05  (-0.8986395E-05)
 number of electron     394.0000026 magnetization 
 augmentation part      394.0000026 magnetization 

 Free energy of the ion-electron system (eV)
  ---------------------------------------------------
  alpha Z        PSCENC =       990.36298836
  Ewald energy   TEWEN  =     97596.12323625
  -Hartree energ DENC   =   -131959.26675299
  -exchange      EXHF   =         0.00000000
  -V(xc)+E(xc)   XCENC  =       532.85022734
  PAW double counting   =     35947.30386589   -35270.42509176
  entropy T*S    EENTRO =         0.00000000
  eigenvalues    EBANDS =     -1175.28606991
  atomic energy  EATOM  =     33226.25038448
  Solvation  Ediel_sol  =         0.00000000
  ---------------------------------------------------
  free energy    TOTEN  =      -112.08721233 eV

  energy without entropy =     -112.08721233  energy(sigma->0) =     -112.08721233


--------------------------------------------------------------------------------------------------------




 average (electrostatic) potential at core
  the test charge radii are     1.2098  1.0452
  (the norm of the test charge is              1.0000)
       1 -72.3809       2 -72.3565       3 -72.3564       4 -72.3565       5 -72.3676
       6 -72.3562       7 -72.3564       8 -72.3562       9 -72.3559      10 -72.7182
      11 -72.6897      12 -72.7181      13 -72.6897      14 -72.6894      15 -72.7063
      16 -72.7181      17 -72.7064      18 -72.7065      19 -72.6485      20 -72.7296
      21 -72.7296      22 -72.6756      23 -72.7295      24 -72.6752      25 -72.6488
      26 -72.6485      27 -72.6757      28 -72.2805      29 -72.2983      30 -72.2984
      31 -72.2982      32 -72.2981      33 -72.2983      34 -72.2981      35 -72.2629
      36 -86.9902
 
 
 
 E-fermi :   0.6585     XC(G=0):  -6.0604     alpha+bet : -5.6947

 Fermi energy:         0.6584559712

 k-point     1 :       0.0000    0.0000    0.0000
  band No.  band energies     occupation 
      1      -8.1522      2.00000
      2      -6.9577      2.00000
      3      -6.0219      2.00000
      4      -6.0021      2.00000
      5      -5.9944      2.00000
      6      -5.9943      2.00000
      7      -5.9862      2.00000
      8      -5.9652      2.00000
      9      -5.9651      2.00000
     10      -5.8261      2.00000
     11      -5.5173      2.00000
     12      -5.5007      2.00000
     13      -5.5007      2.00000
     14      -5.4825      2.00000
     15      -5.4753      2.00000
     16      -5.4753      2.00000
     17      -5.1240      2.00000
     18      -5.1240      2.00000
     19      -5.1124      2.00000
     20      -5.0981      2.00000
     21      -5.0797      2.00000
     22      -5.0797      2.00000
     23      -4.9437      2.00000
     24      -4.9437      2.00000
     25      -4.9403      2.00000
     26      -4.9165      2.00000
     27      -4.9113      2.00000
     28      -4.9112      2.00000
     29      -4.7861      2.00000
     30      -4.7861      2.00000
     31      -4.7645      2.00000
     32      -4.7639      2.00000
     33      -4.7639      2.00000
     34      -4.7405      2.00000
     35      -4.7372      2.00000
     36      -4.7372      2.00000
     37      -4.7329      2.00000
     38      -4.6058      2.00000
     39      -4.5549      2.00000
     40      -4.5549      2.00000
     41      -4.2753      2.00000
     42      -4.2753      2.00000
     43      -4.2350      2.00000
     44      -4.2112      2.00000
     45      -4.2111      2.00000
     46      -4.1939      2.00000
     47      -4.1907      2.00000
     48      -4.1907      2.00000
     49      -4.1323      2.00000
     50      -4.1322      2.00000
     51      -4.1213      2.00000
     52      -4.1093      2.00000
     53      -4.0611      2.00000
     54      -4.0408      2.00000
     55      -3.6788      2.00000
     56      -3.6769      2.00000
     57      -3.6525      2.00000
     58      -3.6525      2.00000
     59      -3.6497      2.00000
     60      -3.6370      2.00000
     61      -3.6370      2.00000
     62      -3.6084      2.00000
     63      -3.6084      2.00000
     64      -3.5540      2.00000
     65      -3.5540      2.00000
     66      -3.5031      2.00000
     67      -3.5031      2.00000
     68      -3.4974      2.00000
     69      -3.4487      2.00000
     70      -3.4403      2.00000
     71      -3.4402      2.00000
     72      -3.4255      2.00000
     73      -3.4094      2.00000
     74      -3.4094      2.00000
     75      -3.4022      2.00000
     76      -3.4012      2.00000
     77      -3.4012      2.00000
     78      -3.3812      2.00000
     79      -3.3811      2.00000
     80      -3.3451      2.00000
     81      -3.3451      2.00000
     82      -3.3299      2.00000
     83      -3.2903      2.00000
     84      -3.2903      2.00000
     85      -3.2826      2.00000
     86      -3.2610      2.00000
     87      -3.2610      2.00000
     88      -3.1873      2.00000
     89      -3.1873      2.00000
     90      -3.1852      2.00000
     91      -3.0064      2.00000
     92      -3.0064      2.00000
     93      -3.0009      2.00000
     94      -3.0009      2.00000
     95      -2.9898      2.00000
     96      -2.9898      2.00000
     97      -2.8582      2.00000
     98      -2.8581      2.00000
     99      -2.8161      2.00000
    100      -2.8060      2.00000
    101      -2.8059      2.00000
    102      -2.7600      2.00000
    103      -2.7510      2.00000
    104      -2.7510      2.00000
    105      -2.6182      2.00000
    106      -2.5932      2.00000
    107      -2.5932      2.00000
    108      -2.5797      2.00000
    109      -2.5797      2.00000
    110      -2.5783      2.00000
    111      -2.5712      2.00000
    112      -2.4790      2.00000
    113      -2.4789      2.00000
    114      -2.4691      2.00000
    115      -2.4691      2.00000
    116      -2.3459      2.00000
    117      -2.3059      2.00000
    118      -2.3059      2.00000
    119      -2.2894      2.00000
    120      -2.2894      2.00000
    121      -2.2764      2.00000
    122      -2.2382      2.00000
    123      -2.2382      2.00000
    124      -2.2043      2.00000
    125      -2.2043      2.00000
    126      -2.1486      2.00000
    127      -2.1485      2.00000
    128      -2.0514      2.00000
    129      -2.0514      2.00000
    130      -2.0448      2.00000
    131      -2.0327      2.00000
    132      -2.0327      2.00000
    133      -2.0288      2.00000
    134      -2.0174      2.00000
    135      -2.0160      2.00000
    136      -2.0159      2.00000
    137      -1.9538      2.00000
    138      -1.9538      2.00000
    139      -1.8958      2.00000
    140      -1.8681      2.00000
    141      -1.8681      2.00000
    142      -1.7885      2.00000
    143      -1.7754      2.00000
    144      -1.7754      2.00000
    145      -1.7601      2.00000
    146      -1.7601      2.00000
    147      -1.7498      2.00000
    148      -1.7498      2.00000
    149      -1.7344      2.00000
    150      -1.7162      2.00000
    151      -1.7117      2.00000
    152      -1.7117      2.00000
    153      -1.7089      2.00000
    154      -1.5959      2.00000
    155      -1.5820      2.00000
    156      -1.5788      2.00000
    157      -1.5788      2.00000
    158      -1.5692      2.00000
    159      -1.5568      2.00000
    160      -1.5568      2.00000
    161      -1.5556      2.00000
    162      -1.5220      2.00000
    163      -1.5220      2.00000
    164      -1.5077      2.00000
    165      -1.5077      2.00000
    166      -1.4946      2.00000
    167      -1.4946      2.00000
    168      -1.4766      2.00000
    169      -1.4766      2.00000
    170      -1.4601      2.00000
    171      -1.4581      2.00000
    172      -1.4564      2.00000
    173      -1.4564      2.00000
    174      -1.4537      2.00000
    175      -1.4097      2.00000
    176      -1.4012      2.00000
    177      -1.3880      2.00000
    178      -1.3880      2.00000
    179      -1.3803      2.00000
    180      -1.3539      2.00000
    181      -1.3539      2.00000
    182      -1.3127      2.00000
    183      -1.2747      2.00000
    184      -1.2746      2.00000
    185      -1.1904      2.00000
    186      -1.1904      2.00000
    187      -1.1490      2.00000
    188      -1.1489      2.00000
    189      -1.1263      2.00000
    190      -1.1042      2.00000
    191      -0.3290      2.00000
    192      -0.0160      2.00000
    193       0.0303      2.00000
    194       0.0304      2.00000
    195       0.1274      2.00000
    196       0.1275      2.00000
    197       0.1422      2.00000
    198       0.4138      2.00000
    199       0.4138      2.00000
    200       0.4852      2.00000
    201       0.4852      2.00000
    202       0.6903      0.00000
    203       1.0913      0.00000
    204       2.2686      0.00000
    205       2.3196      0.00000
    206       2.3197      0.00000
    207       2.3732      0.00000
    208       2.3732      0.00000
    209       2.4126      0.00000
    210       3.4464      0.00000
    211       3.4464      0.00000
    212       3.4752      0.00000
    213       3.4752      0.00000
    214       3.5367      0.00000
    215       3.6046      0.00000
    216       4.1422      0.00000
    217       4.3856      0.00000
    218       5.2600      0.00000
    219       5.2801      0.00000
    220       5.2801      0.00000
    221       5.3312      0.00000
    222       5.3827      0.00000
    223       5.3827      0.00000
    224       5.4148      0.00000
    225       5.4149      0.00000
    226       5.4499      0.00000
    227       5.4499      0.00000
    228       5.4652      0.00000
    229       5.6188      0.00000
    230       6.1663      0.00000
    231       6.1963      0.00000
    232       6.8935      0.00000
    233       6.9557      0.00000
    234       6.9558      0.00000
    235       6.9762      0.00000
    236       7.0148      0.00000
    237       7.0148      0.00000
    238       7.0518      0.00000
    239       7.0876      0.00000
    240       7.0877      0.00000
    241       7.1089      0.00000
    242       7.1359      0.00000
    243       7.1361      0.00000
    244       7.3879      0.00000
    245       7.3883      0.00000
    246       7.3923      0.00000
    247       7.4118      0.00000
    248       7.4125      0.00000
    249       7.5396      0.00000
    250       7.8112      0.00000
    251       7.8647      0.00000
    252       8.0070      0.00000

 k-point     2 :       0.1250   -0.0000    0.0000
  band No.  band energies     occupation 
      1      -8.1012      2.00000
      2      -6.9080      2.00000
      3      -6.2408      2.00000
      4      -6.0661      2.00000
      5      -6.0569      2.00000
      6      -5.9717      2.00000
      7      -5.8790      2.00000
      8      -5.8648      2.00000
      9      -5.8508      2.00000
     10      -5.7819      2.00000
     11      -5.5392      2.00000
     12      -5.5140      2.00000
     13      -5.4842      2.00000
     14      -5.4766      2.00000
     15      -5.4545      2.00000
     16      -5.4516      2.00000
     17      -5.1722      2.00000
     18      -5.1174      2.00000
     19      -5.1169      2.00000
     20      -5.0768      2.00000
     21      -5.0570      2.00000
     22      -5.0565      2.00000
     23      -5.0052      2.00000
     24      -4.9539      2.00000
     25      -4.9504      2.00000
     26      -4.9033      2.00000
     27      -4.8839      2.00000
     28      -4.8455      2.00000
     29      -4.8418      2.00000
     30      -4.8298      2.00000
     31      -4.8178      2.00000
     32      -4.8128      2.00000
     33      -4.7360      2.00000
     34      -4.7163      2.00000
     35      -4.7053      2.00000
     36      -4.6489      2.00000
     37      -4.6279      2.00000
     38      -4.5680      2.00000
     39      -4.5410      2.00000
     40      -4.5309      2.00000
     41      -4.3426      2.00000
     42      -4.3380      2.00000
     43      -4.2842      2.00000
     44      -4.2576      2.00000
     45      -4.2449      2.00000
     46      -4.2407      2.00000
     47      -4.2171      2.00000
     48      -4.1477      2.00000
     49      -4.1110      2.00000
     50      -4.0845      2.00000
     51      -4.0710      2.00000
     52      -4.0605      2.00000
     53      -4.0469      2.00000
     54      -4.0342      2.00000
     55      -3.7371      2.00000
     56      -3.7028      2.00000
     57      -3.6922      2.00000
     58      -3.6851      2.00000
     59      -3.6842      2.00000
     60      -3.6687      2.00000
     61      -3.6426      2.00000
     62      -3.6408      2.00000
     63      -3.6313      2.00000
     64      -3.5922      2.00000
     65      -3.5877      2.00000
     66      -3.5724      2.00000
     67      -3.5624      2.00000
     68      -3.5319      2.00000
     69      -3.5291      2.00000
     70      -3.5215      2.00000
     71      -3.4824      2.00000
     72      -3.4535      2.00000
     73      -3.4460      2.00000
     74      -3.4410      2.00000
     75      -3.4316      2.00000
     76      -3.4023      2.00000
     77      -3.3697      2.00000
     78      -3.3645      2.00000
     79      -3.3541      2.00000
     80      -3.3289      2.00000
     81      -3.3141      2.00000
     82      -3.2800      2.00000
     83      -3.2674      2.00000
     84      -3.2639      2.00000
     85      -3.2490      2.00000
     86      -3.2140      2.00000
     87      -3.2099      2.00000
     88      -3.1924      2.00000
     89      -3.1589      2.00000
     90      -3.1115      2.00000
     91      -3.1079      2.00000
     92      -3.1014      2.00000
     93      -3.0063      2.00000
     94      -2.9987      2.00000
     95      -2.9246      2.00000
     96      -2.9120      2.00000
     97      -2.8917      2.00000
     98      -2.8619      2.00000
     99      -2.8576      2.00000
    100      -2.8393      2.00000
    101      -2.8042      2.00000
    102      -2.7917      2.00000
    103      -2.7720      2.00000
    104      -2.6979      2.00000
    105      -2.6739      2.00000
    106      -2.6719      2.00000
    107      -2.6250      2.00000
    108      -2.6165      2.00000
    109      -2.6135      2.00000
    110      -2.6005      2.00000
    111      -2.5825      2.00000
    112      -2.5786      2.00000
    113      -2.5463      2.00000
    114      -2.5351      2.00000
    115      -2.5156      2.00000
    116      -2.4986      2.00000
    117      -2.4483      2.00000
    118      -2.4420      2.00000
    119      -2.4087      2.00000
    120      -2.3178      2.00000
    121      -2.2936      2.00000
    122      -2.2802      2.00000
    123      -2.2468      2.00000
    124      -2.2337      2.00000
    125      -2.2133      2.00000
    126      -2.1980      2.00000
    127      -2.1804      2.00000
    128      -2.1724      2.00000
    129      -2.1661      2.00000
    130      -2.1214      2.00000
    131      -2.0927      2.00000
    132      -2.0926      2.00000
    133      -2.0704      2.00000
    134      -2.0280      2.00000
    135      -2.0141      2.00000
    136      -1.9929      2.00000
    137      -1.9581      2.00000
    138      -1.9548      2.00000
    139      -1.9274      2.00000
    140      -1.9271      2.00000
    141      -1.8852      2.00000
    142      -1.8702      2.00000
    143      -1.8407      2.00000
    144      -1.8122      2.00000
    145      -1.7637      2.00000
    146      -1.7598      2.00000
    147      -1.7445      2.00000
    148      -1.7156      2.00000
    149      -1.7124      2.00000
    150      -1.6914      2.00000
    151      -1.6812      2.00000
    152      -1.6663      2.00000
    153      -1.6227      2.00000
    154      -1.6079      2.00000
    155      -1.5872      2.00000
    156      -1.5716      2.00000
    157      -1.5693      2.00000
    158      -1.5594      2.00000
    159      -1.5461      2.00000
    160      -1.5311      2.00000
    161      -1.5213      2.00000
    162      -1.5144      2.00000
    163      -1.4974      2.00000
    164      -1.4871      2.00000
    165      -1.4793      2.00000
    166      -1.4763      2.00000
    167      -1.4537      2.00000
    168      -1.4381      2.00000
    169      -1.4326      2.00000
    170      -1.4023      2.00000
    171      -1.3989      2.00000
    172      -1.3788      2.00000
    173      -1.3535      2.00000
    174      -1.3283      2.00000
    175      -1.3218      2.00000
    176      -1.2973      2.00000
    177      -1.2703      2.00000
    178      -1.2415      2.00000
    179      -1.2286      2.00000
    180      -1.2224      2.00000
    181      -1.2114      2.00000
    182      -1.1943      2.00000
    183      -1.1735      2.00000
    184      -1.1598      2.00000
    185      -1.1465      2.00000
    186      -1.1150      2.00000
    187      -1.0923      2.00000
    188      -1.0182      2.00000
    189      -1.0013      2.00000
    190      -0.9218      2.00000
    191      -0.2871      2.00000
    192      -0.2297      2.00000
    193      -0.0796      2.00000
    194      -0.0600      2.00000
    195       0.2329      2.00000
    196       0.2550      2.00000
    197       0.3860      2.00000
    198       0.4292      2.00000
    199       0.4506      2.00000
    200       0.6060      1.65812
    201       0.6252      0.97453
    202       0.8526      0.00000
    203       1.2435      0.00000
    204       1.8729      0.00000
    205       2.1358      0.00000
    206       2.1429      0.00000
    207       2.6370      0.00000
    208       2.6518      0.00000
    209       2.7811      0.00000
    210       2.8092      0.00000
    211       2.9268      0.00000
    212       3.5287      0.00000
    213       3.5312      0.00000
    214       3.7747      0.00000
    215       3.8736      0.00000
    216       4.1426      0.00000
    217       4.2855      0.00000
    218       4.7845      0.00000
    219       4.9983      0.00000
    220       5.0338      0.00000
    221       5.1342      0.00000
    222       5.1590      0.00000
    223       5.2906      0.00000
    224       5.3473      0.00000
    225       5.5505      0.00000
    226       5.5547      0.00000
    227       5.6601      0.00000
    228       5.6641      0.00000
    229       5.6941      0.00000
    230       6.1218      0.00000
    231       6.2712      0.00000
    232       6.2838      0.00000
    233       6.5451      0.00000
    234       6.5762      0.00000
    235       6.6883      0.00000
    236       6.6884      0.00000
    237       6.7502      0.00000
    238       6.9295      0.00000
    239       6.9757      0.00000
    240       7.0043      0.00000
    241       7.0221      0.00000
    242       7.1014      0.00000
    243       7.3939      0.00000
    244       7.4021      0.00000
    245       7.4491      0.00000
    246       7.5039      0.00000
    247       7.6030      0.00000
    248       7.7276      0.00000
    249       7.7495      0.00000
    250       7.8765      0.00000
    251       7.8988      0.00000
    252       7.9069      0.00000

 k-point     3 :       0.2500   -0.0000    0.0000
  band No.  band energies     occupation 
      1      -7.9504      2.00000
      2      -6.7621      2.00000
      3      -6.5996      2.00000
      4      -6.1085      2.00000
      5      -6.0993      2.00000
      6      -5.8353      2.00000
      7      -5.8094      2.00000
      8      -5.7230      2.00000
      9      -5.7148      2.00000
     10      -5.6827      2.00000
     11      -5.6391      2.00000
     12      -5.5790      2.00000
     13      -5.4173      2.00000
     14      -5.4116      2.00000
     15      -5.3893      2.00000
     16      -5.3886      2.00000
     17      -5.2577      2.00000
     18      -5.1113      2.00000
     19      -5.1068      2.00000
     20      -5.0778      2.00000
     21      -5.0404      2.00000
     22      -5.0231      2.00000
     23      -5.0071      2.00000
     24      -4.9722      2.00000
     25      -4.9702      2.00000
     26      -4.9576      2.00000
     27      -4.9476      2.00000
     28      -4.9021      2.00000
     29      -4.8910      2.00000
     30      -4.8374      2.00000
     31      -4.7304      2.00000
     32      -4.7240      2.00000
     33      -4.6815      2.00000
     34      -4.6397      2.00000
     35      -4.6251      2.00000
     36      -4.6250      2.00000
     37      -4.6147      2.00000
     38      -4.4815      2.00000
     39      -4.4655      2.00000
     40      -4.4577      2.00000
     41      -4.4400      2.00000
     42      -4.4346      2.00000
     43      -4.3441      2.00000
     44      -4.2964      2.00000
     45      -4.2832      2.00000
     46      -4.2607      2.00000
     47      -4.2392      2.00000
     48      -4.1258      2.00000
     49      -4.0883      2.00000
     50      -4.0788      2.00000
     51      -4.0749      2.00000
     52      -4.0220      2.00000
     53      -4.0203      2.00000
     54      -4.0082      2.00000
     55      -3.9386      2.00000
     56      -3.8899      2.00000
     57      -3.8819      2.00000
     58      -3.7925      2.00000
     59      -3.7662      2.00000
     60      -3.7438      2.00000
     61      -3.7321      2.00000
     62      -3.7148      2.00000
     63      -3.6756      2.00000
     64      -3.6470      2.00000
     65      -3.6243      2.00000
     66      -3.5872      2.00000
     67      -3.5827      2.00000
     68      -3.5497      2.00000
     69      -3.5115      2.00000
     70      -3.5086      2.00000
     71      -3.4887      2.00000
     72      -3.4849      2.00000
     73      -3.4627      2.00000
     74      -3.4495      2.00000
     75      -3.4335      2.00000
     76      -3.4019      2.00000
     77      -3.3697      2.00000
[...]
  0.000   0.000   0.000   2.000   0.000   0.000   0.000   0.000   0.000   0.000   0.000   0.000   0.000   0.000   0.000   0.000
  0.000   0.000   0.000   0.000   2.000   0.000   0.000   0.000   0.000   0.000   0.000   0.000   0.000   0.000   0.000   0.000
  0.000   0.000   0.000   0.000   0.000   0.000   0.000   0.000   0.000   0.000   0.000   0.000   0.000   0.000   0.000   0.000
  0.000   0.000   0.000   0.000   0.000   0.000   0.000   0.000   0.000   0.000   0.000   0.000   0.000   0.000   0.000   0.000
  0.000   0.000   0.000   0.000   0.000   0.000   0.000   0.000   0.000   0.000   0.000   0.000   0.000   0.000   0.000   0.000
  0.000   0.000   0.000   0.000   0.000   0.000   0.000   0.000   0.000   0.000   0.000   0.000   0.000   0.000   0.000   0.000
  0.000   0.000   0.000   0.000   0.000   0.000   0.000   0.000   0.000   0.000   0.000   0.000   0.000   0.000   0.000   0.000
  0.000   0.000   0.000   0.000   0.000   0.000   0.000   0.000   0.000   0.000   1.000   0.000   0.000   0.000   0.000   0.000
  0.000   0.000   0.000   0.000   0.000   0.000   0.000   0.000   0.000   0.000   0.000   0.000   0.000   0.000   0.000   0.000
  0.000   0.000   0.000   0.000   0.000   0.000   0.000   0.000   0.000   0.000   0.000   0.000   0.000   0.000   0.000   0.000
  0.000   0.000   0.000   0.000   0.000   0.000   0.000   0.000   0.000   0.000   0.000   0.000   0.000   0.000   0.000   0.000
  0.000   0.000   0.000   0.000   0.000   0.000   0.000   0.000   0.000   0.000   0.000   0.000   0.000   0.000   0.000   0.000
  0.000   0.000   0.000   0.000   0.000   0.000   0.000   0.000   0.000   0.000   0.000   0.000   0.000   0.000   0.000   0.000
  0.000   0.000   0.000   0.000   0.000   0.000   0.000   0.000   0.000   0.000   0.000   0.000   0.000   0.000   0.000   0.000
  0.000   0.000   0.000   0.000   0.000   0.000   0.000   0.000   0.000   0.000   0.000   0.000   0.000   0.000   0.000   0.000


------------------------ aborting loop because EDIFF is reached ----------------------------------------





 total charge

# of ion       s       p       d       tot
------------------------------------------
    1        0.545   0.239   8.766   9.551
    2        0.545   0.241   8.765   9.551
    3        0.545   0.241   8.765   9.551
    4        0.545   0.241   8.765   9.551
    5        0.542   0.242   8.763   9.546
    6        0.545   0.241   8.765   9.551
    7        0.545   0.241   8.765   9.551
    8        0.545   0.241   8.765   9.551
    9        0.543   0.239   8.768   9.551
   10        0.522   0.308   8.769   9.599
   11        0.521   0.308   8.779   9.608
   12        0.522   0.308   8.769   9.599
   13        0.521   0.308   8.779   9.608
   14        0.521   0.308   8.779   9.608
   15        0.518   0.309   8.776   9.603
   16        0.522   0.308   8.769   9.599
   17        0.518   0.309   8.776   9.603
   18        0.518   0.309   8.776   9.603
   19        0.517   0.303   8.776   9.596
   20        0.539   0.328   8.757   9.624
   21        0.539   0.328   8.757   9.624
   22        0.512   0.311   8.776   9.599
   23        0.539   0.328   8.757   9.624
   24        0.512   0.311   8.776   9.599
   25        0.517   0.303   8.776   9.596
   26        0.517   0.303   8.776   9.596
   27        0.512   0.311   8.776   9.599
   28        0.539   0.226   8.767   9.532
   29        0.555   0.237   8.756   9.548
   30        0.555   0.237   8.756   9.548
   31        0.555   0.237   8.756   9.548
   32        0.555   0.237   8.756   9.548
   33        0.555   0.237   8.756   9.548
   34        0.555   0.237   8.756   9.548
   35        0.535   0.224   8.769   9.529
   36        0.315   0.224   7.264   7.803
--------------------------------------------------
tot         19.007   9.859 314.121 342.987
 
    CHARGE:  cpu time    0.5997: real time    0.6013
    FORLOC:  cpu time    0.0098: real time    0.0098
    FORNL :  cpu time    2.5352: real time    2.5374
    STRESS:  cpu time    7.7819: real time    7.7887
    FORCOR:  cpu time    0.0511: real time    0.0512
    FORHAR:  cpu time    0.0196: real time    0.0199
    OFIELD:  cpu time    0.0006: real time    0.0006

  FORCE on cell =-STRESS in cart. coord.  units (eV):
  Direction    XX          YY          ZZ          XY          YZ          ZX
  --------------------------------------------------------------------------------------
  Alpha Z   990.36299   990.36299   990.36299
  Ewald  120300.46161120300.46203************    -0.00032    -0.00009    -0.00016
  Hartree128982.61362128982.61363************     0.00000    -0.00002    -0.00004
  E(xc)   -1773.16629 -1773.16625 -1780.24573    -0.00004    -0.00000    -0.00000
  Local  ************************261807.33726     0.00181     0.00004     0.00009
  n-local   -93.01202   -40.80710   -43.27645    23.79056    -1.35073     1.57578
  augment  2522.50176  2522.50324  2538.21997    -0.00128     0.00002     0.00003
  Kinetic  5413.00589  5428.63606  5473.51267     6.78656    -0.30813     0.82380
  Fock        0.00000     0.00000     0.00000     0.00000     0.00000     0.00000
  -------------------------------------------------------------------------------------
  Total     -24.92578   -24.92578     0.74972    -0.00000     0.00000    -0.00000
  in kB     -26.74558   -26.74557     0.80445    -0.00000     0.00000    -0.00000
  external pressure =      -17.56 kB  Pullay stress =        0.00 kB


 VOLUME and BASIS-vectors are now :
 -----------------------------------------------------------------------------
  energy-cutoff  :      500.00
  volume of cell :     1493.16
      direct lattice vectors                 reciprocal lattice vectors
     8.813512802  0.000000000  0.000000000     0.113462137 -0.065507406  0.000000000
     4.406756909  7.632725690  0.000000000     0.000000000  0.131014796  0.000000000
     0.000000000  0.000000000 22.196203232     0.000000000  0.000000000  0.045052750

  length of vectors
     8.813512802  8.813512802 22.196203232     0.131014796  0.131014796  0.045052750


 FORCES acting on ions
    electron-ion (+dipol)            ewald-force                    non-local-force                 convergence-correction
 -----------------------------------------------------------------------------------------------
   -.198E-04 -.164E-04 0.248E+04   0.519E-04 0.434E-04 -.248E+04   0.419E-17 -.127E-17 -.728E+00   -.174E-03 -.113E-03 -.392E+00
   0.563E+00 0.344E+00 0.248E+04   -.572E+00 -.364E+00 -.248E+04   0.119E-01 0.145E-01 -.321E+00   -.550E-02 0.822E-02 -.409E+00
   -.563E+00 0.344E+00 0.248E+04   0.572E+00 -.364E+00 -.248E+04   -.119E-01 0.145E-01 -.321E+00   0.576E-02 0.102E-01 -.408E+00
   0.580E+00 0.315E+00 0.248E+04   -.601E+00 -.313E+00 -.248E+04   0.185E-01 0.309E-02 -.321E+00   0.441E-02 -.890E-02 -.409E+00
   0.740E-05 -.239E-04 0.248E+04   0.951E-04 0.173E-05 -.248E+04   -.164E-17 0.293E-19 -.287E+00   0.427E-02 0.263E-02 -.389E+00
   -.580E+00 0.315E+00 0.248E+04   0.601E+00 -.313E+00 -.248E+04   -.185E-01 0.309E-02 -.321E+00   -.595E-02 -.792E-02 -.408E+00
   0.168E-01 -.660E+00 0.248E+04   -.297E-01 0.677E+00 -.248E+04   0.657E-02 -.176E-01 -.321E+00   0.117E-01 -.137E-03 -.408E+00
   -.168E-01 -.660E+00 0.248E+04   0.295E-01 0.677E+00 -.248E+04   -.657E-02 -.176E-01 -.321E+00   -.985E-02 -.120E-02 -.408E+00
   0.198E-04 -.415E-04 0.248E+04   0.166E-03 -.201E-04 -.248E+04   0.141E-18 0.394E-19 -.419E+00   -.464E-02 -.244E-02 -.426E+00
   0.429E+01 0.247E+01 0.819E+03   -.403E+01 -.232E+01 -.818E+03   -.195E+00 -.113E+00 -.631E+00   -.274E-01 -.157E-01 0.215E+00
   0.149E-04 0.521E+01 0.827E+03   0.147E-03 -.530E+01 -.827E+03   0.550E-09 0.825E-02 -.374E+00   0.364E-02 0.522E-01 0.337E+00
   -.429E+01 0.247E+01 0.819E+03   0.403E+01 -.232E+01 -.818E+03   0.195E+00 -.113E+00 -.631E+00   0.262E-01 -.144E-01 0.214E+00
   0.451E+01 -.260E+01 0.827E+03   -.459E+01 0.265E+01 -.827E+03   0.715E-02 -.413E-02 -.374E+00   0.471E-01 -.226E-01 0.337E+00
   -.451E+01 -.260E+01 0.827E+03   0.459E+01 0.265E+01 -.827E+03   -.715E-02 -.413E-02 -.374E+00   -.395E-01 -.229E-01 0.337E+00
   0.313E-04 0.305E+01 0.822E+03   0.236E-03 -.310E+01 -.821E+03   0.909E-09 0.137E-01 -.470E+00   -.216E-02 -.344E-02 0.223E+00
   -.216E-04 -.495E+01 0.819E+03   0.163E-03 0.465E+01 -.818E+03   0.150E-07 0.225E+00 -.631E+00   0.340E-03 0.299E-01 0.215E+00
   0.264E+01 -.152E+01 0.822E+03   -.268E+01 0.155E+01 -.821E+03   0.118E-01 -.683E-02 -.470E+00   -.376E-02 -.788E-04 0.222E+00
   -.264E+01 -.152E+01 0.822E+03   0.268E+01 0.155E+01 -.821E+03   -.118E-01 -.683E-02 -.470E+00   0.368E-02 0.169E-02 0.222E+00
   -.396E-04 0.138E+01 -.874E+03   0.542E-04 -.146E+01 0.873E+03   0.170E-08 0.255E-01 0.469E+00   0.348E-02 0.618E-01 0.737E+00
   0.262E+02 0.151E+02 -.837E+03   -.261E+02 -.151E+02 0.836E+03   -.686E+00 -.396E+00 -.617E+00   0.582E+00 0.336E+00 0.155E+01
   -.262E+02 0.151E+02 -.837E+03   0.261E+02 -.151E+02 0.836E+03   0.686E+00 -.396E+00 -.617E+00   -.582E+00 0.338E+00 0.155E+01
   0.407E+01 -.235E+01 -.862E+03   -.465E+01 0.268E+01 0.861E+03   0.295E+00 -.170E+00 0.515E+00   0.275E+00 -.165E+00 0.845E+00
   -.118E-04 -.303E+02 -.837E+03   0.143E-03 0.302E+02 0.836E+03   0.527E-07 0.792E+00 -.617E+00   0.164E-02 -.673E+00 0.155E+01
   -.407E+01 -.235E+01 -.862E+03   0.465E+01 0.268E+01 0.861E+03   -.295E+00 -.170E+00 0.515E+00   -.282E+00 -.164E+00 0.845E+00
   -.119E+01 -.690E+00 -.874E+03   0.126E+01 0.728E+00 0.873E+03   -.221E-01 -.127E-01 0.469E+00   -.463E-01 -.275E-01 0.736E+00
   0.119E+01 -.690E+00 -.874E+03   -.126E+01 0.728E+00 0.873E+03   0.221E-01 -.127E-01 0.469E+00   0.483E-01 -.282E-01 0.737E+00
   0.976E-05 0.470E+01 -.862E+03   0.198E-03 -.537E+01 0.861E+03   0.226E-07 0.340E+00 0.515E+00   -.451E-02 0.320E+00 0.845E+00
   -.972E-05 -.122E-04 -.251E+04   0.280E-04 0.319E-04 0.250E+04   -.254E-17 -.181E-17 0.641E+00   0.401E-03 0.132E-04 0.755E+00
   0.110E+02 0.166E+02 -.251E+04   -.109E+02 -.164E+02 0.251E+04   -.634E+00 -.945E+00 0.323E+00   0.480E+00 0.795E+00 0.693E+00
   -.110E+02 0.166E+02 -.251E+04   0.109E+02 -.164E+02 0.251E+04   0.634E+00 -.945E+00 0.323E+00   -.480E+00 0.797E+00 0.694E+00
   0.199E+02 0.127E+01 -.251E+04   -.197E+02 -.122E+01 0.251E+04   -.114E+01 -.769E-01 0.323E+00   0.928E+00 0.177E-01 0.692E+00
   -.199E+02 0.127E+01 -.251E+04   0.197E+02 -.122E+01 0.251E+04   0.114E+01 -.769E-01 0.323E+00   -.930E+00 0.191E-01 0.692E+00
   0.884E+01 -.179E+02 -.251E+04   -.879E+01 0.177E+02 0.251E+04   -.501E+00 0.102E+01 0.323E+00   0.451E+00 -.814E+00 0.693E+00
   -.884E+01 -.179E+02 -.251E+04   0.879E+01 0.177E+02 0.251E+04   0.501E+00 0.102E+01 0.323E+00   -.449E+00 -.815E+00 0.692E+00
   0.340E-04 -.315E-04 -.251E+04   0.144E-03 -.472E-04 0.251E+04   -.113E-17 -.102E-17 0.630E+00   -.468E-02 -.269E-02 0.731E+00
   -.406E-04 0.280E-05 -.197E+04   0.951E-04 0.891E-05 0.197E+04   -.670E-18 -.671E-18 0.252E+01   0.586E-02 0.371E-02 0.888E+00
 -----------------------------------------------------------------------------------------------
   -.793E-03 -.771E-03 -.132E+02   -.879E-14 -.171E-13 0.455E-12   -.113E-15 -.169E-17 -.963E+00   0.588E-02 0.695E-02 0.146E+02
 
 
 POSITION                                       TOTAL-FORCE (eV/Angst)
 -----------------------------------------------------------------------------------
      0.00000      0.00000      5.28038         0.000000     -0.000000     -0.077926
      2.93784      0.00000      5.28038        -0.001794      0.003870     -0.068134
      5.87568      0.00000      5.28038         0.001794      0.003870     -0.068134
      1.46892      2.54424      5.28038         0.002455     -0.003488     -0.068134
      4.40676      2.54424      5.28038         0.000000     -0.000000     -0.097935
      7.34459      2.54424      5.28038        -0.002455     -0.003488     -0.068134
      2.93784      5.08848      5.28038         0.004248     -0.000382     -0.068134
      5.87568      5.08848      5.28038        -0.004248     -0.000382     -0.068134
      8.81351      5.08848      5.28038        -0.000000     -0.000000     -0.077337
      1.46892      0.84808      7.67911         0.037457      0.021626      0.114882
      4.40676      0.84808      7.67911        -0.000000     -0.033654      0.026942
      7.34459      0.84808      7.67911        -0.037457      0.021626      0.114882
      2.93784      3.39232      7.67911        -0.029145      0.016827      0.026942
      5.87568      3.39232      7.67911         0.029145      0.016827      0.026942
      8.81351      3.39232      7.67911        -0.000000     -0.037635      0.089904
      4.40676      5.93656      7.67911        -0.000000     -0.043252      0.114882
      7.34459      5.93656      7.67911        -0.032593      0.018817      0.089904
     10.28243      5.93656      7.67911         0.032593      0.018817      0.089904
      8.81351      1.69524     10.07173         0.000000      0.005463     -0.001253
      2.95099      1.70376     10.05075         0.002048      0.001182     -0.016166
      5.86252      1.70376     10.05075        -0.002048      0.001182     -0.016166
     10.26977      4.24772     10.05674        -0.006026      0.003479     -0.013601
      4.40676      4.22522     10.05075        -0.000000     -0.002364     -0.016166
      7.35726      4.24772     10.05674         0.006026      0.003479     -0.013601
     11.75215      6.78511     10.07173        -0.004731     -0.002732     -0.001253
      5.87488      6.78511     10.07173         0.004731     -0.002732     -0.001253
      8.81351      6.77002     10.05674        -0.000000     -0.006959     -0.013601
      0.00000      0.00000     12.47665         0.000000     -0.000000      0.004190
      2.97645      0.06424     12.45579        -0.007485     -0.007001      0.007466
      5.83706      0.06424     12.45579         0.007485     -0.007001      0.007466
      1.54386      2.54556     12.45579        -0.009806     -0.002981      0.007466
      7.26966      2.54556     12.45579         0.009806     -0.002981      0.007466
      2.97417      5.02293     12.45579        -0.002321      0.009983      0.007466
      5.83935      5.02293     12.45579         0.002321      0.009983      0.007466
      8.81351      5.08848     12.49078         0.000000     -0.000000     -0.007821
      4.40676      2.54424     12.15093         0.000000      0.000000      0.018711
 -----------------------------------------------------------------------------------
    total drift:                                0.005086      0.006182      0.426816


--------------------------------------------------------------------------------------------------------



  FREE ENERGIE OF THE ION-ELECTRON SYSTEM (eV)
  ---------------------------------------------------
  free  energy   TOTEN  =      -112.08721233 eV

  energy  without entropy=     -112.08721233  energy(sigma->0) =     -112.08721233
 


--------------------------------------------------------------------------------------------------------


    POTLOK:  cpu time    0.0595: real time    0.0595


--------------------------------------------------------------------------------------------------------


 stress matrix after NEB project (eV)
    -24.92578     -0.00000     -0.00000
     -0.00000    -24.92578      0.00000
     -0.00000      0.00000      0.74972
  FORCES: max atom, RMS     0.018711    0.009112
  FORCE total and by dimension    0.054670    0.018711
  Stress total and by dimension   35.258347   24.925780
     LOOP+:  cpu time  117.3895: real time  117.5771
 -----------------------------------------------------------------------------
|                                                                             |
|           W    W    AA    RRRRR   N    N  II  N    N   GGGG   !!!           |
|           W    W   A  A   R    R  NN   N  II  NN   N  G    G  !!!           |
|           W    W  A    A  R    R  N N  N  II  N N  N  G       !!!           |
|           W WW W  AAAAAA  RRRRR   N  N N  II  N  N N  G  GGG   !            |
|           WW  WW  A    A  R   R   N   NN  II  N   NN  G    G                |
|           W    W  A    A  R    R  N    N  II  N    N   GGGG   !!!           |
|                                                                             |
|     Tetrahedron method does not include variations of the Fermi             |
|     occupations, so forces and stress will be inaccurate. We suggest        |
|     using a different smearing scheme ISMEAR = 1 or 2 for metals in         |
|     relaxations.                                                            |
|                                                                             |
 -----------------------------------------------------------------------------

    4ORBIT:  cpu time    0.0000: real time    0.0000



 total charge

# of ion       s       p       d       tot
------------------------------------------
    1        0.545   0.239   8.766   9.551
    2        0.545   0.241   8.765   9.551
    3        0.545   0.241   8.765   9.551
    4        0.545   0.241   8.765   9.551
    5        0.542   0.242   8.763   9.546
    6        0.545   0.241   8.765   9.551
    7        0.545   0.241   8.765   9.551
    8        0.545   0.241   8.765   9.551
    9        0.543   0.239   8.768   9.551
   10        0.522   0.308   8.769   9.599
   11        0.521   0.308   8.779   9.608
   12        0.522   0.308   8.769   9.599
   13        0.521   0.308   8.779   9.608
   14        0.521   0.308   8.779   9.608
   15        0.518   0.309   8.776   9.603
   16        0.522   0.308   8.769   9.599
   17        0.518   0.309   8.776   9.603
   18        0.518   0.309   8.776   9.603
   19        0.517   0.303   8.776   9.596
   20        0.539   0.328   8.757   9.624
   21        0.539   0.328   8.757   9.624
   22        0.512   0.311   8.776   9.599
   23        0.539   0.328   8.757   9.624
   24        0.512   0.311   8.776   9.599
   25        0.517   0.303   8.776   9.596
   26        0.517   0.303   8.776   9.596
   27        0.512   0.311   8.776   9.599
   28        0.539   0.226   8.767   9.532
   29        0.555   0.237   8.756   9.548
   30        0.555   0.237   8.756   9.548
   31        0.555   0.237   8.756   9.548
   32        0.555   0.237   8.756   9.548
   33        0.555   0.237   8.756   9.548
   34        0.555   0.237   8.756   9.548
   35        0.535   0.224   8.769   9.529
   36        0.315   0.224   7.264   7.803
--------------------------------------------------
tot         19.007   9.859 314.121 342.987
 
 BZINTS: Fermi energy:    0.658456;  394.000000 electrons
         Band energy:-0.117529E+04;  BLOECHL correction:   -0.074954

 total amount of memory used by VASP MPI-rank0   120975. kBytes
=======================================================================

   base      :      30000. kBytes
   nonlr-proj:      13387. kBytes
   fftplans  :       4330. kBytes
   grid      :      17098. kBytes
   one-center:        559. kBytes
   wavefun   :      55601. kBytes
 
  
  
 General timing and accounting informations for this job:
 ========================================================
  
                  Total CPU time used (sec):      125.260
                            User time (sec):      121.651
                          System time (sec):        3.609
                         Elapsed time (sec):      125.892
  
                   Maximum memory used (kb):      375700.
                   Average memory used (kb):          N/A
  
                          Minor page faults:        74285
                          Major page faults:            0
                 Voluntary context switches:        13500
