PROCAR new format
# of k-points:   10         # of bands:  252         # of ions:   36

 k-point     1 :    0.00000000 0.00000000 0.00000000     weight = 0.01562500

band     1 # energy   -8.15218467 # occ.  2.00000000
 
ion      s      p      d    tot
    1  0.007  0.001  0.000  0.007
    2  0.007  0.001  0.000  0.007
    3  0.007  0.001  0.000  0.007
    4  0.007  0.001  0.000  0.007
    5  0.007  0.001  0.000  0.007
    6  0.007  0.001  0.000  0.007
    7  0.007  0.001  0.000  0.007
    8  0.007  0.001  0.000  0.007
    9  0.007  0.001  0.000  0.007
   10  0.027  0.000  0.000  0.027
   11  0.027  0.000  0.000  0.028
   12  0.027  0.000  0.000  0.027
   13  0.027  0.000  0.000  0.028
   14  0.027  0.000  0.000  0.028
   15  0.027  0.000  0.000  0.027
   16  0.027  0.000  0.000  0.027
   17  0.027  0.000  0.000  0.027
   18  0.027  0.000  0.000  0.027
   19  0.024  0.000  0.000  0.024
   20  0.025  0.000  0.000  0.026
   21  0.025  0.000  0.000  0.026
   22  0.025  0.000  0.000  0.025
   23  0.025  0.000  0.000  0.026
   24  0.025  0.000  0.000  0.025
   25  0.024  0.000  0.000  0.024
   26  0.024  0.000  0.000  0.024
   27  0.025  0.000  0.000  0.025
   28  0.005  0.000  0.000  0.005
   29  0.005  0.000  0.000  0.005
   30  0.005  0.000  0.000  0.005
   31  0.005  0.000  0.000  0.005
   32  0.005  0.000  0.000  0.005
   33  0.005  0.000  0.000  0.005
   34  0.005  0.000  0.000  0.005
   35  0.005  0.000  0.000  0.005
   36  0.004  0.001  0.000  0.004
tot    0.566  0.012  0.003  0.581
 
band     2 # energy   -6.95772827 # occ.  2.00000000
 
ion      s      p      d    tot
    1  0.017  0.000  0.001  0.019
    2  0.017  0.000  0.001  0.018
    3  0.017  0.000  0.001  0.018
    4  0.017  0.000  0.001  0.018
    5  0.017  0.000  0.001  0.018
    6  0.017  0.000  0.001  0.018
    7  0.017  0.000  0.001  0.018
    8  0.017  0.000  0.001  0.018
    9  0.017  0.000  0.001  0.018
   10  0.010  0.002  0.003  0.014
   11  0.010  0.002  0.003  0.014
   12  0.010  0.002  0.003  0.014
   13  0.010  0.002  0.003  0.014
   14  0.010  0.002  0.003  0.014
   15  0.010  0.002  0.003  0.014
   16  0.010  0.002  0.003  0.014
   17  0.010  0.002  0.003  0.014
   18  0.010  0.002  0.003  0.014
   19  0.015  0.001  0.004  0.020
   20  0.015  0.001  0.004  0.020
   21  0.015  0.001  0.004  0.020
   22  0.016  0.001  0.004  0.020
   23  0.015  0.001  0.004  0.020
   24  0.016  0.001  0.004  0.020
   25  0.015  0.001  0.004  0.020
   26  0.015  0.001  0.004  0.020
   27  0.016  0.001  0.004  0.020
   28  0.014  0.001  0.000  0.015
   29  0.013  0.001  0.000  0.014
   30  0.013  0.001  0.000  0.014
   31  0.013  0.001  0.000  0.014
   32  0.013  0.001  0.000  0.014
   33  0.013  0.001  0.000  0.014
   34  0.013  0.001  0.000  0.014
   35  0.014  0.001  0.000  0.015
   36  0.008  0.000  0.000  0.008
tot    0.493  0.033  0.071  0.597
 
band     3 # energy   -6.02185366 # occ.  2.00000000
 
ion      s      p      d    tot
    1  0.014  0.000  0.022  0.036
    2  0.018  0.000  0.018  0.037
    3  0.018  0.000  0.018  0.037
    4  0.018  0.000  0.018  0.037
    5  0.011  0.000  0.018  0.030
    6  0.018  0.000  0.018  0.037
    7  0.018  0.000  0.018  0.037
    8  0.018  0.000  0.018  0.037
    9  0.033  0.000  0.014  0.046
   10  0.010  0.001  0.023  0.034
   11  0.018  0.001  0.019  0.038
   12  0.010  0.001  0.023  0.034
   13  0.018  0.001  0.019  0.038
   14  0.018  0.001  0.019  0.038
   15  0.000  0.000  0.028  0.028
   16  0.010  0.001  0.023  0.034
   17  0.000  0.000  0.028  0.028
   18  0.000  0.000  0.028  0.028
   19  0.001  0.000  0.005  0.006
   20  0.003  0.001  0.005  0.009
   21  0.003  0.001  0.005  0.009
   22  0.003  0.001  0.003  0.006
   23  0.003  0.001  0.005  0.009
   24  0.003  0.001  0.002  0.006
   25  0.001  0.000  0.005  0.006
   26  0.001  0.000  0.005  0.006
   27  0.003  0.001  0.003  0.006
   28  0.003  0.000  0.000  0.003
   29  0.001  0.000  0.001  0.002
   30  0.001  0.000  0.001  0.002
   31  0.001  0.000  0.001  0.002
   32  0.001  0.000  0.001  0.002
   33  0.001  0.000  0.001  0.002
   34  0.001  0.000  0.001  0.002
   35  0.003  0.000  0.000  0.003
   36  0.000  0.000  0.000  0.000
tot    0.285  0.015  0.417  0.717
 
band     4 # energy   -6.00205415 # occ.  2.00000000
 
ion      s      p      d    tot
    1  0.015  0.001  0.000  0.016
    2  0.003  0.001  0.008  0.011
    3  0.003  0.001  0.008  0.011
    4  0.003  0.001  0.008  0.011
    5  0.008  0.000  0.003  0.012
    6  0.003  0.001  0.008  0.011
    7  0.003  0.001  0.008  0.011
    8  0.003  0.001  0.008  0.011
    9  0.004  0.002  0.007  0.013
   10  0.002  0.000  0.033  0.035
   11  0.002  0.002  0.016  0.020
   12  0.002  0.000  0.033  0.035
   13  0.002  0.002  0.016  0.020
   14  0.002  0.002  0.015  0.020
   15  0.040  0.002  0.006  0.048
   16  0.002  0.000  0.033  0.035
   17  0.040  0.002  0.006  0.048
   18  0.040  0.002  0.006  0.048
   19  0.000  0.001  0.021  0.022
   20  0.023  0.001  0.014  0.038
   21  0.023  0.001  0.014  0.038
   22  0.014  0.003  0.007  0.024
   23  0.023  0.001  0.014  0.038
   24  0.014  0.003  0.007  0.024
   25  0.000  0.001  0.021  0.022
   26  0.000  0.001  0.021  0.022
   27  0.014  0.003  0.007  0.024
   28  0.000  0.000  0.000  0.001
   29  0.000  0.000  0.004  0.004
   30  0.000  0.000  0.004  0.004
   31  0.000  0.000  0.004  0.004
   32  0.000  0.000  0.004  0.004
   33  0.000  0.000  0.004  0.004
   34  0.000  0.000  0.004  0.004
   35  0.004  0.001  0.000  0.005
   36  0.006  0.002  0.001  0.009
tot    0.298  0.038  0.367  0.703
 
band     5 # energy   -5.99436083 # occ.  2.00000000
 
ion      s      p      d    tot
    1  0.000  0.000  0.004  0.004
    2  0.007  0.001  0.004  0.012
    3  0.004  0.001  0.003  0.008
    4  0.007  0.001  0.004  0.012
    5  0.000  0.001  0.010  0.011
    6  0.001  0.000  0.003  0.004
    7  0.004  0.001  0.003  0.007
    8  0.000  0.000  0.003  0.004
    9  0.000  0.001  0.003  0.003
   10  0.000  0.001  0.024  0.025
   11  0.047  0.002  0.014  0.062
   12  0.007  0.001  0.012  0.020
   13  0.045  0.002  0.015  0.061
   14  0.000  0.001  0.041  0.043
   15  0.017  0.001  0.013  0.032
   16  0.007  0.001  0.012  0.020
   17  0.016  0.001  0.013  0.031
   18  0.000  0.005  0.004  0.009
   19  0.000  0.001  0.010  0.011
   20  0.000  0.004  0.017  0.021
   21  0.030  0.001  0.014  0.045
   22  0.031  0.002  0.013  0.045
   23  0.031  0.001  0.014  0.046
   24  0.000  0.000  0.039  0.039
   25  0.000  0.003  0.008  0.010
   26  0.000  0.001  0.010  0.011
   27  0.032  0.002  0.011  0.045
   28  0.000  0.000  0.001  0.001
   29  0.001  0.000  0.002  0.004
   30  0.007  0.001  0.003  0.010
   31  0.001  0.000  0.002  0.003
   32  0.002  0.001  0.003  0.006
   33  0.007  0.001  0.003  0.010
   34  0.003  0.001  0.003  0.006
   35  0.000  0.001  0.007  0.007
   36  0.000  0.001  0.001  0.002
tot    0.307  0.043  0.345  0.695
 
band     6 # energy   -5.99429752 # occ.  2.00000000
 
ion      s      p      d    tot
    1  0.000  0.000  0.004  0.004
    2  0.000  0.000  0.003  0.004
    3  0.004  0.001  0.004  0.008
    4  0.001  0.000  0.003  0.004
    5  0.000  0.001  0.010  0.011
    6  0.007  0.001  0.003  0.012
    7  0.004  0.001  0.004  0.009
    8  0.007  0.001  0.003  0.012
    9  0.000  0.001  0.003  0.003
   10  0.009  0.001  0.008  0.018
   11  0.014  0.001  0.033  0.049
   12  0.003  0.001  0.020  0.024
   13  0.017  0.001  0.032  0.050
   14  0.061  0.002  0.005  0.068
   15  0.005  0.004  0.007  0.016
   16  0.002  0.001  0.020  0.024
   17  0.006  0.003  0.007  0.017
   18  0.022  0.000  0.016  0.039
   19  0.000  0.002  0.009  0.011
   20  0.041  0.001  0.013  0.055
   21  0.011  0.003  0.016  0.029
   22  0.011  0.001  0.029  0.041
   23  0.009  0.003  0.016  0.028
   24  0.042  0.002  0.003  0.047
   25  0.000  0.001  0.011  0.011
   26  0.000  0.002  0.009  0.011
   27  0.010  0.001  0.030  0.041
   28  0.000  0.000  0.001  0.001
   29  0.006  0.001  0.003  0.010
   30  0.000  0.000  0.003  0.003
   31  0.006  0.001  0.003  0.010
   32  0.004  0.001  0.002  0.007
   33  0.000  0.000  0.003  0.003
   34  0.004  0.001  0.002  0.007
   35  0.000  0.001  0.007  0.007
   36  0.000  0.001  0.001  0.002
tot    0.307  0.043  0.345  0.695
 
band     7 # energy   -5.98617252 # occ.  2.00000000
 
ion      s      p      d    tot
    1  0.007  0.001  0.001  0.010
    2  0.000  0.001  0.006  0.007
    3  0.000  0.001  0.006  0.007
    4  0.000  0.001  0.006  0.007
    5  0.017  0.002  0.001  0.019
    6  0.000  0.001  0.006  0.007
    7  0.000  0.001  0.006  0.007
    8  0.000  0.001  0.006  0.007
    9  0.000  0.000  0.002  0.002
   10  0.027  0.003  0.001  0.032
   11  0.019  0.001  0.024  0.044
   12  0.027  0.003  0.001  0.031
   13  0.019  0.001  0.024  0.044
   14  0.020  0.001  0.024  0.044
   15  0.000  0.001  0.024  0.025
   16  0.027  0.003  0.001  0.031
   17  0.000  0.001  0.024  0.025
   18  0.000  0.001  0.023  0.025
   19  0.025  0.002  0.006  0.033
   20  0.005  0.002  0.015  0.022
   21  0.005  0.002  0.016  0.023
   22  0.010  0.000  0.025  0.035
   23  0.005  0.002  0.016  0.023
   24  0.010  0.000  0.025  0.036
   25  0.025  0.002  0.006  0.033
   26  0.025  0.002  0.006  0.033
   27  0.010  0.000  0.025  0.035
   28  0.011  0.001  0.001  0.013
   29  0.000  0.000  0.004  0.004
   30  0.000  0.000  0.004  0.004
   31  0.000  0.000  0.004  0.004
   32  0.000  0.000  0.004  0.004
   33  0.000  0.000  0.004  0.004
   34  0.000  0.000  0.004  0.004
   35  0.005  0.001  0.002  0.008
   36  0.000  0.000  0.000  0.000
tot    0.301  0.041  0.354  0.695
 
band     8 # energy   -5.96519611 # occ.  2.00000000
 
ion      s      p      d    tot
    1  0.000  0.001  0.008  0.009
    2  0.008  0.001  0.004  0.014
    3  0.006  0.001  0.003  0.010
    4  0.007  0.001  0.004  0.012
    5  0.000  0.000  0.002  0.002
    6  0.001  0.001  0.004  0.006
    7  0.003  0.001  0.003  0.007
    8  0.000  0.000  0.003  0.004
    9  0.000  0.001  0.009  0.010
   10  0.053  0.001  0.012  0.066
   11  0.000  0.003  0.007  0.011
   12  0.023  0.002  0.018  0.043
   13  0.000  0.002  0.010  0.013
   14  0.001  0.001  0.015  0.016
   15  0.005  0.000  0.041  0.046
   16  0.006  0.003  0.021  0.030
   17  0.017  0.001  0.028  0.046
   18  0.040  0.002  0.004  0.047
   19  0.006  0.002  0.029  0.036
   20  0.015  0.002  0.006  0.022
   21  0.006  0.001  0.018  0.025
   22  0.005  0.002  0.009  0.016
   23  0.002  0.001  0.024  0.026
   24  0.012  0.000  0.014  0.026
   25  0.049  0.002  0.007  0.058
   26  0.021  0.002  0.021  0.044
   27  0.001  0.004  0.006  0.011
   28  0.000  0.001  0.006  0.007
   29  0.001  0.000  0.002  0.003
   30  0.004  0.001  0.002  0.007
   31  0.000  0.000  0.002  0.002
   32  0.001  0.000  0.003  0.004
   33  0.004  0.001  0.002  0.007
   34  0.002  0.001  0.003  0.006
   35  0.000  0.000  0.001  0.001
   36  0.000  0.000  0.001  0.001
tot    0.301  0.042  0.350  0.693
 
band     9 # energy   -5.96512616 # occ.  2.00000000
 
ion      s      p      d    tot
    1  0.000  0.001  0.008  0.009
    2  0.000  0.000  0.003  0.004
    3  0.003  0.001  0.004  0.007
    4  0.002  0.001  0.003  0.005
    5  0.000  0.000  0.002  0.002
    6  0.007  0.001  0.004  0.012
    7  0.006  0.001  0.004  0.011
    8  0.008  0.001  0.004  0.014
    9  0.000  0.001  0.009  0.010
   10  0.002  0.003  0.021  0.026
   11  0.001  0.001  0.014  0.016
   12  0.032  0.002  0.016  0.050
   13  0.001  0.002  0.011  0.014
   14  0.000  0.004  0.006  0.010
   15  0.037  0.002  0.008  0.047
   16  0.048  0.001  0.013  0.063
   17  0.024  0.001  0.021  0.046
   18  0.001  0.000  0.044  0.046
   19  0.045  0.002  0.009  0.056
   20  0.000  0.000  0.026  0.026
   21  0.009  0.001  0.014  0.024
   22  0.007  0.002  0.010  0.019
   23  0.013  0.001  0.008  0.023
   24  0.000  0.004  0.005  0.009
   25  0.002  0.002  0.031  0.034
   26  0.030  0.002  0.017  0.048
   27  0.011  0.001  0.013  0.025
   28  0.000  0.001  0.006  0.007
   29  0.003  0.001  0.003  0.006
   30  0.000  0.000  0.002  0.003
   31  0.004  0.001  0.002  0.007
   32  0.003  0.001  0.002  0.006
   33  0.000  0.000  0.002  0.002
   34  0.002  0.000  0.002  0.004
   35  0.000  0.000  0.001  0.001
   36  0.000  0.000  0.001  0.001
tot    0.301  0.042  0.350  0.693
 
band    10 # energy   -5.82606499 # occ.  2.00000000
 
ion      s      p      d    tot
    1  0.000  0.000  0.000  0.000
    2  0.000  0.000  0.000  0.001
    3  0.000  0.000  0.000  0.001
    4  0.000  0.000  0.000  0.001
    5  0.002  0.000  0.000  0.002
    6  0.000  0.000  0.000  0.001
    7  0.000  0.000  0.000  0.001
    8  0.000  0.000  0.000  0.001
    9  0.000  0.000  0.000  0.000
   10  0.000  0.000  0.002  0.002
   11  0.001  0.000  0.002  0.003
   12  0.000  0.000  0.002  0.002
   13  0.001  0.000  0.002  0.003
   14  0.001  0.000  0.002  0.003
   15  0.000  0.000  0.003  0.004
   16  0.000  0.000  0.002  0.002
   17  0.000  0.000  0.003  0.004
   18  0.000  0.000  0.003  0.004
   19  0.005  0.001  0.021  0.027
   20  0.004  0.001  0.024  0.029
   21  0.004  0.001  0.024  0.029
   22  0.007  0.001  0.028  0.036
   23  0.004  0.001  0.024  0.029
   24  0.007  0.001  0.028  0.036
   25  0.005  0.001  0.021  0.027
   26  0.005  0.001  0.021  0.027
   27  0.007  0.001  0.028  0.036
   28  0.029  0.000  0.023  0.052
   29  0.025  0.000  0.022  0.048
   30  0.025  0.000  0.022  0.048
   31  0.025  0.000  0.022  0.048
   32  0.025  0.000  0.022  0.048
   33  0.025  0.000  0.022  0.048
   34  0.025  0.000  0.022  0.048
   35  0.031  0.000  0.023  0.054
   36  0.008  0.000  0.003  0.011
tot    0.276  0.012  0.429  0.717
 
band    11 # energy   -5.51731219 # occ.  2.00000000
 
ion      s      p      d    tot
    1  0.016  0.002  0.002  0.020
    2  0.000  0.001  0.008  0.009
    3  0.000  0.001  0.008  0.009
    4  0.000  0.001  0.008  0.009
    5  0.000  0.000  0.002  0.002
    6  0.000  0.001  0.008  0.009
    7  0.000  0.001  0.008  0.009
    8  0.000  0.001  0.008  0.009
    9  0.015  0.001  0.000  0.017
   10  0.010  0.002  0.011  0.022
   11  0.004  0.000  0.040  0.044
   12  0.010  0.002  0.011  0.022
   13  0.004  0.000  0.040  0.044
   14  0.004  0.000  0.040  0.044
   15  0.002  0.001  0.030  0.032
   16  0.010  0.002  0.011  0.022
   17  0.002  0.001  0.030  0.032
   18  0.002  0.001  0.030  0.032
   19  0.007  0.001  0.011  0.019
   20  0.001  0.000  0.045  0.046
   21  0.001  0.000  0.045  0.046
   22  0.011  0.001  0.023  0.035
   23  0.001  0.000  0.045  0.046
   24  0.011  0.001  0.023  0.034
   25  0.007  0.001  0.011  0.019
   26  0.007  0.001  0.011  0.019
   27  0.011  0.001  0.023  0.035
   28  0.010  0.002  0.001  0.013
   29  0.000  0.001  0.006  0.006
   30  0.000  0.001  0.006  0.006
   31  0.000  0.001  0.006  0.006
   32  0.000  0.001  0.006  0.006
   33  0.000  0.001  0.006  0.006
   34  0.000  0.001  0.006  0.006
   35  0.009  0.001  0.002  0.012
   36  0.001  0.000  0.000  0.001
tot    0.153  0.029  0.570  0.752
 
band    12 # energy   -5.50068513 # occ.  2.00000000
 
ion      s      p      d    tot
    1  0.000  0.001  0.004  0.005
    2  0.007  0.001  0.004  0.012
    3  0.004  0.001  0.004  0.009
    4  0.009  0.001  0.004  0.015
    5  0.000  0.001  0.012  0.013
    6  0.007  0.001  0.005  0.013
    7  0.000  0.000  0.005  0.005
    8  0.001  0.001  0.005  0.007
    9  0.000  0.000  0.009  0.009
   10  0.008  0.002  0.013  0.023
   11  0.001  0.000  0.050  0.051
   12  0.005  0.001  0.026  0.033
   13  0.011  0.001  0.028  0.040
   14  0.017  0.001  0.017  0.034
   15  0.000  0.001  0.011  0.012
   16  0.000  0.001  0.050  0.051
   17  0.001  0.001  0.018  0.020
   18  0.001  0.000  0.022  0.024
   19  0.000  0.001  0.015  0.016
   20  0.021  0.001  0.013  0.036
   21  0.014  0.001  0.030  0.046
   22  0.002  0.001  0.022  0.025
   23  0.001  0.000  0.064  0.064
   24  0.002  0.001  0.016  0.020
   25  0.010  0.000  0.020  0.030
   26  0.006  0.001  0.018  0.026
   27  0.000  0.001  0.034  0.035
   28  0.000  0.001  0.008  0.009
   29  0.006  0.001  0.004  0.011
   30  0.002  0.001  0.004  0.008
   31  0.010  0.001  0.004  0.015
   32  0.009  0.001  0.003  0.013
   33  0.000  0.000  0.004  0.005
   34  0.003  0.001  0.004  0.007
   35  0.000  0.000  0.004  0.004
   36  0.000  0.002  0.001  0.003
tot    0.160  0.032  0.556  0.748
 
band    13 # energy   -5.50067126 # occ.  2.00000000
 
ion      s      p      d    tot
    1  0.000  0.001  0.004  0.005
    2  0.002  0.001  0.005  0.008
    3  0.005  0.001  0.005  0.011
    4  0.000  0.000  0.005  0.005
    5  0.000  0.001  0.012  0.013
    6  0.003  0.000  0.004  0.007
    7  0.009  0.001  0.004  0.015
    8  0.008  0.001  0.004  0.014
    9  0.000  0.000  0.009  0.009
   10  0.001  0.001  0.046  0.048
   11  0.018  0.001  0.013  0.033
   12  0.004  0.001  0.034  0.039
   13  0.008  0.001  0.035  0.043
   14  0.002  0.000  0.046  0.049
   15  0.002  0.000  0.023  0.025
   16  0.009  0.002  0.009  0.020
   17  0.001  0.001  0.016  0.017
   18  0.000  0.001  0.012  0.013
   19  0.011  0.000  0.021  0.032
   20  0.003  0.000  0.058  0.061
   21  0.010  0.001  0.041  0.052
   22  0.001  0.001  0.026  0.028
   23  0.024  0.002  0.008  0.033
   24  0.000  0.001  0.032  0.034
   25  0.001  0.001  0.015  0.018
   26  0.004  0.001  0.017  0.022
   27  0.003  0.001  0.015  0.018
   28  0.000  0.001  0.008  0.009
   29  0.004  0.001  0.004  0.009
   30  0.007  0.001  0.003  0.012
   31  0.000  0.000  0.004  0.005
   32  0.001  0.001  0.004  0.006
   33  0.010  0.001  0.004  0.015
   34  0.007  0.001  0.004  0.013
   35  0.000  0.000  0.004  0.004
   36  0.000  0.002  0.001  0.003
tot    0.160  0.032  0.556  0.748
 
band    14 # energy   -5.48248464 # occ.  2.00000000
 
ion      s      p      d    tot
    1  0.006  0.000  0.001  0.007
    2  0.000  0.001  0.009  0.009
    3  0.000  0.001  0.009  0.009
    4  0.000  0.001  0.008  0.009
    5  0.019  0.002  0.001  0.021
    6  0.000  0.001  0.008  0.009
    7  0.000  0.001  0.009  0.009
    8  0.000  0.001  0.008  0.009
    9  0.004  0.001  0.002  0.007
   10  0.000  0.000  0.044  0.044
   11  0.006  0.001  0.015  0.022
   12  0.000  0.000  0.044  0.044
   13  0.006  0.001  0.015  0.022
   14  0.006  0.001  0.015  0.022
   15  0.007  0.001  0.023  0.031
   16  0.000  0.000  0.044  0.044
   17  0.007  0.001  0.023  0.031
   18  0.007  0.001  0.023  0.031
   19  0.007  0.000  0.044  0.051
   20  0.012  0.002  0.008  0.021
   21  0.012  0.002  0.008  0.022
   22  0.001  0.000  0.031  0.033
   23  0.012  0.002  0.008  0.022
   24  0.001  0.000  0.031  0.033
   25  0.007  0.000  0.044  0.052
   26  0.007  0.000  0.044  0.052
   27  0.001  0.000  0.031  0.033
   28  0.000  0.000  0.005  0.005
   29  0.000  0.000  0.005  0.006
   30  0.000  0.001  0.005  0.006
   31  0.000  0.000  0.005  0.006
   32  0.000  0.000  0.005  0.006
   33  0.000  0.001  0.005  0.006
   34  0.000  0.000  0.005  0.006
   35  0.004  0.001  0.000  0.005
   36  0.010  0.002  0.000  0.012
tot    0.145  0.028  0.586  0.759
 
band    15 # energy   -5.47528365 # occ.  2.00000000
 
ion      s      p      d    tot
    1  0.000  0.001  0.014  0.015
    2  0.010  0.001  0.005  0.016
    3  0.003  0.000  0.005  0.008
    4  0.010  0.001  0.005  0.016
    5  0.000  0.000  0.005  0.005
    6  0.004  0.001  0.005  0.010
    7  0.002  0.000  0.005  0.007
    8  0.002  0.001  0.006  0.009
    9  0.000  0.001  0.008  0.009
   10  0.000  0.001  0.026  0.027
   11  0.001  0.001  0.020  0.022
   12  0.006  0.000  0.023  0.029
   13  0.001  0.001  0.020  0.022
   14  0.000  0.001  0.023  0.024
   15  0.013  0.002  0.018  0.033
   16  0.007  0.000  0.022  0.029
   17  0.011  0.002  0.025  0.037
   18  0.000  0.000  0.066  0.066
   19  0.013  0.001  0.017  0.031
   20  0.000  0.002  0.016  0.017
   21  0.000  0.001  0.020  0.021
   22  0.017  0.001  0.022  0.040
   23  0.001  0.000  0.021  0.022
   24  0.000  0.000  0.037  0.037
   25  0.000  0.000  0.065  0.065
   26  0.011  0.001  0.023  0.035
   27  0.020  0.001  0.020  0.040
   28  0.000  0.001  0.004  0.005
   29  0.005  0.001  0.004  0.011
   30  0.001  0.001  0.004  0.005
   31  0.006  0.001  0.004  0.011
   32  0.003  0.001  0.002  0.006
   33  0.000  0.000  0.004  0.005
   34  0.003  0.001  0.002  0.006
   35  0.000  0.001  0.008  0.009
   36  0.000  0.000  0.000  0.000
tot    0.149  0.029  0.573  0.752
 
band    16 # energy   -5.47525356 # occ.  2.00000000
 
ion      s      p      d    tot
    1  0.000  0.001  0.014  0.015
    2  0.000  0.000  0.005  0.006
    3  0.008  0.001  0.005  0.014
    4  0.000  0.000  0.005  0.006
    5  0.000  0.000  0.005  0.005
    6  0.007  0.001  0.005  0.012
    7  0.009  0.001  0.005  0.015
    8  0.008  0.001  0.005  0.013
    9  0.000  0.001  0.008  0.009
   10  0.008  0.000  0.022  0.030
   11  0.000  0.001  0.022  0.023
   12  0.003  0.001  0.025  0.028
   13  0.000  0.001  0.022  0.023
   14  0.001  0.001  0.019  0.022
   15  0.003  0.000  0.054  0.058
   16  0.002  0.001  0.025  0.028
   17  0.005  0.001  0.048  0.053
   18  0.016  0.002  0.007  0.025
   19  0.003  0.001  0.053  0.057
   20  0.001  0.000  0.022  0.023
   21  0.000  0.001  0.018  0.019
   22  0.007  0.001  0.031  0.039
   23  0.000  0.001  0.017  0.018
   24  0.025  0.001  0.016  0.041
   25  0.016  0.001  0.005  0.022
   26  0.005  0.001  0.046  0.052
   27  0.005  0.000  0.033  0.038
   28  0.000  0.001  0.004  0.005
   29  0.001  0.000  0.003  0.004
   30  0.005  0.001  0.003  0.009
   31  0.000  0.000  0.003  0.004
   32  0.003  0.001  0.005  0.008
   33  0.006  0.001  0.003  0.010
   34  0.003  0.001  0.005  0.009
   35  0.000  0.001  0.008  0.009
   36  0.000  0.000  0.000  0.000
tot    0.149  0.029  0.573  0.752
 
band    17 # energy   -5.12402634 # occ.  2.00000000
 
ion      s      p      d    tot
    1  0.000  0.000  0.016  0.016
    2  0.008  0.000  0.016  0.024
    3  0.000  0.001  0.013  0.014
    4  0.008  0.001  0.010  0.019
    5  0.000  0.000  0.032  0.032
    6  0.000  0.001  0.013  0.014
    7  0.008  0.001  0.010  0.019
    8  0.008  0.000  0.016  0.024
    9  0.000  0.002  0.009  0.010
   10  0.000  0.000  0.009  0.009
   11  0.000  0.000  0.043  0.044
   12  0.000  0.000  0.017  0.018
   13  0.000  0.000  0.039  0.040
   14  0.000  0.000  0.043  0.044
   15  0.000  0.000  0.039  0.039
   16  0.000  0.000  0.009  0.009
   17  0.000  0.000  0.051  0.052
   18  0.000  0.000  0.039  0.039
   19  0.000  0.000  0.011  0.012
   20  0.000  0.000  0.026  0.027
   21  0.001  0.000  0.038  0.040
   22  0.000  0.000  0.040  0.041
   23  0.000  0.000  0.026  0.027
   24  0.000  0.000  0.035  0.036
   25  0.000  0.000  0.011  0.012
   26  0.001  0.000  0.011  0.012
   27  0.000  0.000  0.035  0.036
   28  0.000  0.000  0.014  0.014
   29  0.000  0.001  0.007  0.008
   30  0.006  0.000  0.011  0.018
   31  0.008  0.001  0.007  0.016
   32  0.006  0.000  0.011  0.018
   33  0.008  0.001  0.007  0.016
   34  0.000  0.001  0.007  0.008
   35  0.000  0.000  0.018  0.018
   36  0.000  0.002  0.001  0.002
tot    0.066  0.016  0.743  0.825
 
band    18 # energy   -5.12401992 # occ.  2.00000000
 
ion      s      p      d    tot
    1  0.000  0.000  0.016  0.016
    2  0.003  0.001  0.010  0.013
    3  0.011  0.001  0.013  0.024
    4  0.002  0.000  0.016  0.019
    5  0.000  0.000  0.032  0.032
    6  0.011  0.001  0.013  0.024
    7  0.003  0.000  0.016  0.019
    8  0.003  0.001  0.010  0.014
    9  0.000  0.002  0.009  0.010
   10  0.000  0.000  0.015  0.015
   11  0.000  0.000  0.041  0.041
   12  0.000  0.000  0.006  0.006
   13  0.000  0.000  0.045  0.045
   14  0.000  0.000  0.040  0.041
   15  0.000  0.000  0.047  0.047
   16  0.000  0.000  0.015  0.015
   17  0.000  0.000  0.035  0.035
   18  0.000  0.000  0.047  0.048
   19  0.001  0.000  0.011  0.012
   20  0.001  0.000  0.034  0.035
   21  0.000  0.000  0.022  0.022
   22  0.000  0.000  0.034  0.034
   23  0.001  0.000  0.034  0.035
   24  0.000  0.000  0.039  0.039
   25  0.001  0.000  0.011  0.012
   26  0.000  0.000  0.011  0.011
   27  0.000  0.000  0.039  0.039
   28  0.000  0.000  0.014  0.014
   29  0.010  0.001  0.010  0.020
   30  0.004  0.001  0.006  0.010
   31  0.001  0.000  0.010  0.012
   32  0.004  0.001  0.006  0.010
   33  0.001  0.000  0.010  0.012
   34  0.010  0.001  0.010  0.020
   35  0.000  0.000  0.018  0.018
   36  0.000  0.002  0.001  0.002
tot    0.066  0.016  0.743  0.825
 
band    19 # energy   -5.11243008 # occ.  2.00000000
 
ion      s      p      d    tot
    1  0.017  0.001  0.000  0.018
    2  0.000  0.001  0.019  0.020
    3  0.000  0.001  0.019  0.020
    4  0.000  0.001  0.019  0.020
    5  0.019  0.000  0.011  0.031
    6  0.000  0.001  0.019  0.020
    7  0.000  0.001  0.019  0.020
    8  0.000  0.001  0.019  0.020
    9  0.000  0.000  0.010  0.010
   10  0.000  0.000  0.031  0.032
   11  0.000  0.000  0.033  0.033
   12  0.000  0.000  0.031  0.032
   13  0.000  0.000  0.033  0.033
   14  0.000  0.000  0.033  0.033
   15  0.000  0.000  0.040  0.040
   16  0.000  0.000  0.031  0.032
   17  0.000  0.000  0.040  0.040
   18  0.000  0.000  0.040  0.040
   19  0.000  0.000  0.026  0.026
   20  0.000  0.000  0.019  0.019
   21  0.000  0.000  0.019  0.019
   22  0.001  0.000  0.027  0.028
   23  0.000  0.000  0.019  0.019
   24  0.001  0.000  0.027  0.028
   25  0.000  0.000  0.026  0.026
   26  0.000  0.000  0.026  0.026
   27  0.001  0.000  0.027  0.028
   28  0.014  0.001  0.002  0.017
   29  0.000  0.000  0.013  0.013
   30  0.000  0.000  0.013  0.013
   31  0.000  0.000  0.013  0.013
   32  0.000  0.000  0.013  0.013
   33  0.000  0.000  0.013  0.013
   34  0.000  0.000  0.013  0.013
   35  0.007  0.000  0.005  0.012
   36  0.001  0.000  0.000  0.001
tot    0.064  0.015  0.746  0.824
 
band    20 # energy   -5.09812484 # occ.  2.00000000
 
ion      s      p      d    tot
    1  0.004  0.000  0.015  0.019
    2  0.000  0.001  0.017  0.018
    3  0.000  0.001  0.017  0.018
    4  0.000  0.001  0.017  0.018
    5  0.008  0.001  0.004  0.014
    6  0.000  0.001  0.017  0.018
    7  0.000  0.001  0.017  0.018
    8  0.000  0.001  0.017  0.018
    9  0.024  0.001  0.004  0.029
   10  0.000  0.000  0.047  0.047
   11  0.000  0.001  0.046  0.046
   12  0.000  0.000  0.047  0.047
   13  0.000  0.001  0.046  0.046
   14  0.000  0.001  0.046  0.046
   15  0.000  0.000  0.030  0.030
   16  0.000  0.000  0.047  0.047
   17  0.000  0.000  0.030  0.030
   18  0.000  0.000  0.030  0.030
   19  0.001  0.000  0.022  0.024
   20  0.001  0.000  0.037  0.038
   21  0.001  0.000  0.037  0.037
   22  0.000  0.000  0.018  0.018
   23  0.001  0.000  0.036  0.037
   24  0.000  0.000  0.018  0.018
   25  0.001  0.000  0.022  0.024
   26  0.001  0.000  0.022  0.024
   27  0.000  0.000  0.018  0.018
   28  0.000  0.000  0.003  0.003
   29  0.000  0.000  0.007  0.007
   30  0.000  0.000  0.007  0.007
   31  0.000  0.000  0.007  0.007
   32  0.000  0.000  0.007  0.007
   33  0.000  0.000  0.007  0.007
   34  0.000  0.000  0.007  0.007
   35  0.002  0.000  0.000  0.003
   36  0.004  0.000  0.002  0.006
tot    0.050  0.015  0.767  0.832
 
band    21 # energy   -5.07973217 # occ.  2.00000000
 
ion      s      p      d    tot
    1  0.000  0.001  0.017  0.018
    2  0.001  0.001  0.014  0.016
    3  0.007  0.001  0.017  0.024
    4  0.001  0.001  0.015  0.016
    5  0.000  0.001  0.010  0.011
    6  0.012  0.001  0.010  0.024
    7  0.006  0.000  0.017  0.024
    8  0.012  0.001  0.010  0.023
    9  0.000  0.000  0.031  0.031
   10  0.000  0.000  0.075  0.075
   11  0.000  0.000  0.040  0.040
   12  0.000  0.001  0.060  0.061
   13  0.000  0.000  0.041  0.042
   14  0.000  0.000  0.026  0.026
   15  0.000  0.001  0.026  0.027
   16  0.000  0.001  0.062  0.062
   17  0.000  0.001  0.026  0.027
   18  0.000  0.000  0.026  0.027
   19  0.001  0.000  0.035  0.036
   20  0.000  0.001  0.022  0.023
   21  0.000  0.000  0.023  0.023
   22  0.003  0.000  0.016  0.019
   23  0.000  0.000  0.023  0.023
   24  0.000  0.000  0.006  0.006
   25  0.000  0.000  0.023  0.024
   26  0.001  0.000  0.037  0.038
   27  0.002  0.000  0.014  0.017
   28  0.000  0.001  0.008  0.009
   29  0.002  0.000  0.004  0.006
   30  0.000  0.000  0.005  0.005
   31  0.002  0.000  0.005  0.007
   32  0.002  0.000  0.002  0.005
   33  0.000  0.000  0.005  0.006
   34  0.002  0.000  0.002  0.005
   35  0.000  0.001  0.005  0.006
   36  0.000  0.000  0.001  0.001
tot    0.054  0.016  0.760  0.830
 
band    22 # energy   -5.07972380 # occ.  2.00000000
 
ion      s      p      d    tot
    1  0.000  0.001  0.017  0.018
    2  0.012  0.001  0.014  0.026
    3  0.006  0.001  0.011  0.018
    4  0.012  0.001  0.013  0.026
    5  0.000  0.001  0.010  0.011
    6  0.001  0.001  0.018  0.019
    7  0.007  0.001  0.010  0.019
    8  0.001  0.001  0.018  0.020
    9  0.000  0.000  0.031  0.031
   10  0.000  0.001  0.056  0.057
   11  0.000  0.000  0.032  0.032
   12  0.000  0.000  0.071  0.071
   13  0.000  0.000  0.030  0.030
   14  0.000  0.000  0.045  0.046
   15  0.000  0.001  0.026  0.027
   16  0.000  0.000  0.069  0.069