PROCAR new format
# of k-points:   10         # of bands:  252         # of ions:   39

 k-point     1 :    0.00000000 0.00000000 0.00000000     weight = 0.01562500

band     1 # energy  -24.23672812 # occ.  2.00000000
 
ion      s      p      d    tot
    1  0.000  0.000  0.000  0.000
    2  0.000  0.000  0.000  0.000
    3  0.000  0.000  0.000  0.000
    4  0.000  0.000  0.000  0.000
    5  0.000  0.000  0.000  0.000
    6  0.000  0.000  0.000  0.000
    7  0.000  0.000  0.000  0.000
    8  0.000  0.000  0.000  0.000
    9  0.000  0.000  0.000  0.000
   10  0.000  0.000  0.000  0.000
   11  0.000  0.000  0.000  0.000
   12  0.000  0.000  0.000  0.000
   13  0.000  0.000  0.000  0.000
   14  0.000  0.000  0.000  0.000
   15  0.000  0.000  0.000  0.000
   16  0.000  0.000  0.000  0.000
   17  0.000  0.000  0.000  0.000
   18  0.000  0.000  0.000  0.000
   19  0.000  0.000  0.000  0.000
   20  0.000  0.000  0.000  0.000
   21  0.000  0.000  0.000  0.000
   22  0.000  0.000  0.000  0.000
   23  0.000  0.000  0.000  0.000
   24  0.000  0.000  0.000  0.000
   25  0.000  0.000  0.000  0.000
   26  0.000  0.000  0.000  0.000
   27  0.000  0.000  0.000  0.000
   28  0.000  0.000  0.000  0.000
   29  0.000  0.000  0.000  0.000
   30  0.000  0.000  0.000  0.000
   31  0.000  0.000  0.000  0.000
   32  0.000  0.000  0.000  0.000
   33  0.000  0.000  0.000  0.000
   34  0.000  0.000  0.000  0.000
   35  0.000  0.000  0.000  0.000
   36  0.000  0.000  0.000  0.000
   37  0.078  0.057  0.000  0.135
   38  0.725  0.007  0.000  0.732
   39  0.060  0.013  0.000  0.073
tot    0.863  0.077  0.000  0.940
 
band     2 # energy  -14.91804358 # occ.  2.00000000
 
ion      s      p      d    tot
    1  0.000  0.000  0.000  0.000
    2  0.000  0.000  0.000  0.000
    3  0.000  0.000  0.000  0.000
    4  0.000  0.000  0.000  0.000
    5  0.000  0.000  0.000  0.000
    6  0.000  0.000  0.000  0.000
    7  0.000  0.000  0.000  0.000
    8  0.000  0.000  0.000  0.000
    9  0.000  0.000  0.000  0.000
   10  0.000  0.000  0.000  0.000
   11  0.000  0.000  0.000  0.000
   12  0.000  0.000  0.000  0.000
   13  0.000  0.000  0.000  0.000
   14  0.000  0.000  0.000  0.000
   15  0.000  0.000  0.000  0.000
   16  0.000  0.000  0.000  0.000
   17  0.000  0.000  0.000  0.000
   18  0.000  0.000  0.000  0.000
   19  0.000  0.000  0.000  0.000
   20  0.000  0.000  0.000  0.000
   21  0.000  0.000  0.000  0.000
   22  0.000  0.000  0.000  0.000
   23  0.000  0.000  0.000  0.000
   24  0.000  0.000  0.000  0.000
   25  0.000  0.000  0.000  0.000
   26  0.000  0.000  0.000  0.000
   27  0.000  0.000  0.000  0.000
   28  0.000  0.000  0.000  0.000
   29  0.000  0.000  0.000  0.000
   30  0.000  0.000  0.000  0.000
   31  0.000  0.000  0.000  0.000
   32  0.000  0.000  0.000  0.000
   33  0.000  0.000  0.000  0.000
   34  0.000  0.000  0.000  0.000
   35  0.000  0.000  0.000  0.000
   36  0.003  0.003  0.002  0.007
   37  0.159  0.049  0.000  0.209
   38  0.018  0.521  0.000  0.539
   39  0.199  0.032  0.000  0.231
tot    0.380  0.604  0.002  0.986
 
band     3 # energy   -7.84195062 # occ.  2.00000000
 
ion      s      p      d    tot
    1  0.000  0.000  0.000  0.000
    2  0.000  0.000  0.000  0.000
    3  0.000  0.000  0.000  0.000
    4  0.000  0.000  0.000  0.000
    5  0.000  0.000  0.000  0.000
    6  0.000  0.000  0.000  0.000
    7  0.000  0.000  0.000  0.000
    8  0.000  0.000  0.000  0.000
    9  0.000  0.000  0.000  0.000
   10  0.000  0.000  0.000  0.000
   11  0.000  0.000  0.000  0.000
   12  0.000  0.000  0.000  0.000
   13  0.000  0.000  0.000  0.000
   14  0.000  0.000  0.000  0.000
   15  0.000  0.000  0.000  0.000
   16  0.000  0.000  0.000  0.000
   17  0.000  0.000  0.000  0.000
   18  0.000  0.000  0.000  0.000
   19  0.000  0.000  0.000  0.001
   20  0.003  0.001  0.002  0.005
   21  0.003  0.001  0.002  0.005
   22  0.000  0.000  0.000  0.000
   23  0.003  0.001  0.002  0.005
   24  0.000  0.000  0.000  0.000
   25  0.000  0.000  0.000  0.001
   26  0.000  0.000  0.000  0.001
   27  0.000  0.000  0.000  0.000
   28  0.000  0.000  0.000  0.000
   29  0.003  0.001  0.002  0.006
   30  0.003  0.001  0.002  0.006
   31  0.003  0.001  0.002  0.006
   32  0.003  0.001  0.002  0.006
   33  0.003  0.001  0.002  0.006
   34  0.003  0.001  0.002  0.006
   35  0.000  0.000  0.000  0.000
   36  0.140  0.069  0.159  0.368
   37  0.187  0.174  0.000  0.361
   38  0.013  0.051  0.000  0.065
   39  0.015  0.001  0.000  0.016
tot    0.384  0.301  0.181  0.867
 
band     4 # energy   -7.03497294 # occ.  2.00000000
 
ion      s      p      d    tot
    1  0.000  0.000  0.000  0.000
    2  0.000  0.000  0.000  0.000
    3  0.000  0.000  0.000  0.000
    4  0.000  0.000  0.000  0.000
    5  0.000  0.000  0.000  0.000
    6  0.000  0.000  0.000  0.000
    7  0.000  0.000  0.000  0.000
    8  0.000  0.000  0.000  0.000
    9  0.000  0.000  0.000  0.000
   10  0.000  0.000  0.000  0.000
   11  0.000  0.000  0.000  0.000
   12  0.000  0.000  0.000  0.000
   13  0.000  0.000  0.000  0.000
   14  0.000  0.000  0.000  0.000
   15  0.000  0.000  0.000  0.000
   16  0.000  0.000  0.000  0.000
   17  0.000  0.000  0.000  0.000
   18  0.000  0.000  0.000  0.000
   19  0.000  0.000  0.000  0.000
   20  0.000  0.000  0.000  0.000
   21  0.000  0.000  0.000  0.000
   22  0.000  0.000  0.000  0.000
   23  0.000  0.000  0.000  0.000
   24  0.000  0.000  0.000  0.000
   25  0.000  0.000  0.000  0.000
   26  0.000  0.000  0.000  0.000
   27  0.000  0.000  0.000  0.000
   28  0.000  0.000  0.000  0.000
   29  0.001  0.000  0.001  0.002
   30  0.000  0.000  0.000  0.000
   31  0.001  0.000  0.001  0.002
   32  0.001  0.000  0.001  0.002
   33  0.000  0.000  0.000  0.000
   34  0.001  0.000  0.001  0.002
   35  0.000  0.000  0.000  0.000
   36  0.000  0.003  0.013  0.016
   37  0.000  0.113  0.000  0.113
   38  0.000  0.533  0.000  0.533
   39  0.000  0.007  0.000  0.007
tot    0.002  0.658  0.018  0.678
 
band     5 # energy   -7.03474180 # occ.  2.00000000
 
ion      s      p      d    tot
    1  0.000  0.000  0.000  0.000
    2  0.000  0.000  0.000  0.000
    3  0.000  0.000  0.000  0.000
    4  0.000  0.000  0.000  0.000
    5  0.000  0.000  0.000  0.000
    6  0.000  0.000  0.000  0.000
    7  0.000  0.000  0.000  0.000
    8  0.000  0.000  0.000  0.000
    9  0.000  0.000  0.000  0.000
   10  0.000  0.000  0.000  0.000
   11  0.000  0.000  0.000  0.000
   12  0.000  0.000  0.000  0.000
   13  0.000  0.000  0.000  0.000
   14  0.000  0.000  0.000  0.000
   15  0.000  0.000  0.000  0.000
   16  0.000  0.000  0.000  0.000
   17  0.000  0.000  0.000  0.000
   18  0.000  0.000  0.000  0.000
   19  0.000  0.000  0.000  0.000
   20  0.000  0.000  0.000  0.000
   21  0.000  0.000  0.000  0.000
   22  0.000  0.000  0.000  0.000
   23  0.000  0.000  0.000  0.000
   24  0.000  0.000  0.000  0.000
   25  0.000  0.000  0.000  0.000
   26  0.000  0.000  0.000  0.000
   27  0.000  0.000  0.000  0.000
   28  0.000  0.000  0.000  0.000
   29  0.000  0.000  0.001  0.001
   30  0.001  0.000  0.001  0.002
   31  0.000  0.000  0.001  0.001
   32  0.000  0.000  0.001  0.001
   33  0.001  0.000  0.001  0.002
   34  0.000  0.000  0.001  0.001
   35  0.000  0.000  0.000  0.000
   36  0.000  0.003  0.013  0.016
   37  0.000  0.113  0.000  0.113
   38  0.000  0.533  0.000  0.533
   39  0.000  0.007  0.000  0.007
tot    0.002  0.658  0.018  0.678
 
band     6 # energy   -6.56796594 # occ.  2.00000000
 
ion      s      p      d    tot
    1  0.007  0.001  0.000  0.007
    2  0.007  0.001  0.000  0.007
    3  0.007  0.001  0.000  0.007
    4  0.007  0.001  0.000  0.007
    5  0.007  0.001  0.000  0.007
    6  0.007  0.001  0.000  0.007
    7  0.007  0.001  0.000  0.007
    8  0.007  0.001  0.000  0.007
    9  0.007  0.001  0.000  0.007
   10  0.024  0.000  0.001  0.025
   11  0.025  0.000  0.000  0.026
   12  0.024  0.000  0.001  0.025
   13  0.025  0.000  0.000  0.026
   14  0.025  0.000  0.000  0.026
   15  0.025  0.000  0.000  0.026
   16  0.024  0.000  0.001  0.025
   17  0.025  0.000  0.000  0.026
   18  0.025  0.000  0.000  0.026
   19  0.021  0.000  0.000  0.022
   20  0.021  0.000  0.001  0.022
   21  0.021  0.000  0.001  0.022
   22  0.022  0.000  0.000  0.023
   23  0.021  0.000  0.001  0.022
   24  0.022  0.000  0.000  0.023
   25  0.021  0.000  0.000  0.022
   26  0.021  0.000  0.000  0.022
   27  0.022  0.000  0.000  0.023
   28  0.004  0.001  0.000  0.005
   29  0.003  0.001  0.000  0.004
   30  0.003  0.001  0.000  0.004
   31  0.003  0.001  0.000  0.004
   32  0.003  0.001  0.000  0.004
   33  0.003  0.001  0.000  0.004
   34  0.003  0.001  0.000  0.004
   35  0.004  0.001  0.000  0.005
   36  0.000  0.006  0.006  0.012
   37  0.006  0.005  0.000  0.011
   38  0.000  0.001  0.000  0.001
   39  0.000  0.000  0.000  0.000
tot    0.513  0.025  0.017  0.555
 
band     7 # energy   -5.70874746 # occ.  2.00000000
 
ion      s      p      d    tot
    1  0.007  0.000  0.000  0.008
    2  0.007  0.000  0.000  0.007
    3  0.007  0.000  0.000  0.007
    4  0.007  0.000  0.000  0.007
    5  0.006  0.000  0.000  0.007
    6  0.007  0.000  0.000  0.007
    7  0.007  0.000  0.000  0.007
    8  0.007  0.000  0.000  0.007
    9  0.006  0.000  0.000  0.007
   10  0.010  0.001  0.015  0.027
   11  0.009  0.001  0.017  0.027
   12  0.010  0.001  0.015  0.027
   13  0.009  0.001  0.017  0.027
   14  0.009  0.001  0.017  0.027
   15  0.009  0.001  0.016  0.026
   16  0.010  0.001  0.015  0.027
   17  0.009  0.001  0.016  0.026
   18  0.009  0.001  0.016  0.026
   19  0.014  0.001  0.021  0.035
   20  0.012  0.001  0.024  0.037
   21  0.012  0.001  0.024  0.037
   22  0.015  0.001  0.020  0.035
   23  0.012  0.001  0.024  0.037
   24  0.015  0.001  0.020  0.035
   25  0.014  0.001  0.021  0.035
   26  0.014  0.001  0.021  0.035
   27  0.015  0.001  0.020  0.035
   28  0.006  0.001  0.000  0.006
   29  0.004  0.001  0.001  0.006
   30  0.004  0.001  0.001  0.006
   31  0.004  0.001  0.001  0.006
   32  0.004  0.001  0.001  0.006
   33  0.004  0.001  0.001  0.006
   34  0.004  0.001  0.001  0.006
   35  0.005  0.000  0.000  0.006
   36  0.000  0.003  0.002  0.005
   37  0.002  0.002  0.000  0.004
   38  0.000  0.000  0.000  0.000
   39  0.000  0.000  0.000  0.000
tot    0.307  0.027  0.347  0.680
 
band     8 # energy   -5.43768933 # occ.  2.00000000
 
ion      s      p      d    tot
    1  0.020  0.000  0.029  0.050
    2  0.018  0.000  0.029  0.047
    3  0.018  0.000  0.029  0.047
    4  0.018  0.000  0.029  0.047
    5  0.016  0.000  0.029  0.045
    6  0.018  0.000  0.029  0.047
    7  0.018  0.000  0.029  0.047
    8  0.018  0.000  0.029  0.047
    9  0.017  0.000  0.029  0.046
   10  0.000  0.001  0.024  0.025
   11  0.001  0.001  0.021  0.023
   12  0.000  0.001  0.024  0.024
   13  0.001  0.001  0.021  0.023
   14  0.001  0.001  0.021  0.023
   15  0.001  0.001  0.021  0.023
   16  0.000  0.001  0.024  0.024
   17  0.001  0.001  0.021  0.023
   18  0.001  0.001  0.021  0.023
   19  0.000  0.000  0.004  0.005
   20  0.000  0.000  0.005  0.005
   21  0.000  0.000  0.005  0.005
   22  0.001  0.000  0.007  0.008
   23  0.000  0.000  0.005  0.005
   24  0.001  0.000  0.007  0.008
   25  0.000  0.000  0.004  0.005
   26  0.000  0.000  0.004  0.005
   27  0.001  0.000  0.007  0.008
   28  0.005  0.000  0.003  0.008
   29  0.004  0.000  0.004  0.008
   30  0.004  0.000  0.004  0.008
   31  0.004  0.000  0.004  0.008
   32  0.004  0.000  0.004  0.008
   33  0.004  0.000  0.004  0.008
   34  0.004  0.000  0.004  0.008
   35  0.006  0.000  0.004  0.010
   36  0.000  0.000  0.003  0.004
   37  0.001  0.000  0.000  0.001
   38  0.000  0.000  0.000  0.000
   39  0.000  0.000  0.000  0.000
tot    0.202  0.008  0.547  0.757
 
band     9 # energy   -5.33414780 # occ.  2.00000000
 
ion      s      p      d    tot
    1  0.001  0.000  0.006  0.007
    2  0.000  0.000  0.005  0.005
    3  0.000  0.000  0.005  0.005
    4  0.000  0.000  0.005  0.005
    5  0.000  0.000  0.001  0.001
    6  0.000  0.000  0.005  0.005
    7  0.000  0.000  0.005  0.005
    8  0.000  0.000  0.005  0.005
    9  0.003  0.001  0.003  0.007
   10  0.001  0.000  0.051  0.053
   11  0.006  0.001  0.013  0.021
   12  0.001  0.000  0.051  0.053
   13  0.006  0.001  0.013  0.021
   14  0.006  0.001  0.013  0.021
   15  0.011  0.001  0.038  0.049
   16  0.001  0.000  0.051  0.053
   17  0.011  0.001  0.038  0.049
   18  0.011  0.001  0.038  0.050
   19  0.000  0.000  0.036  0.036
   20  0.011  0.001  0.048  0.060
   21  0.011  0.001  0.048  0.060
   22  0.008  0.001  0.010  0.019
   23  0.011  0.001  0.048  0.060
   24  0.008  0.001  0.010  0.019
   25  0.000  0.000  0.036  0.036
   26  0.000  0.000  0.036  0.036
   27  0.008  0.001  0.010  0.019
   28  0.001  0.000  0.000  0.002
   29  0.000  0.000  0.006  0.006
   30  0.000  0.000  0.006  0.006
   31  0.000  0.000  0.006  0.006
   32  0.000  0.000  0.006  0.006
   33  0.000  0.000  0.006  0.006
   34  0.000  0.000  0.006  0.006
   35  0.001  0.000  0.000  0.002
   36  0.001  0.003  0.000  0.003
   37  0.001  0.000  0.000  0.001
   38  0.000  0.000  0.000  0.000
   39  0.000  0.000  0.000  0.000
tot    0.121  0.019  0.664  0.804
 
band    10 # energy   -5.32476597 # occ.  2.00000000
 
ion      s      p      d    tot
    1  0.001  0.000  0.002  0.003
    2  0.000  0.000  0.005  0.006
    3  0.000  0.000  0.005  0.006
    4  0.000  0.000  0.005  0.006
    5  0.006  0.001  0.002  0.009
    6  0.000  0.000  0.005  0.006
    7  0.000  0.000  0.005  0.006
    8  0.000  0.000  0.005  0.006
    9  0.001  0.000  0.003  0.003
   10  0.009  0.001  0.006  0.016
   11  0.008  0.000  0.041  0.049
   12  0.009  0.001  0.006  0.016
   13  0.008  0.000  0.041  0.049
   14  0.008  0.000  0.041  0.049
   15  0.000  0.000  0.032  0.033
   16  0.009  0.001  0.006  0.016
   17  0.000  0.000  0.032  0.033
   18  0.000  0.000  0.033  0.033
   19  0.016  0.001  0.018  0.035
   20  0.002  0.001  0.023  0.027
   21  0.002  0.001  0.023  0.026
   22  0.004  0.000  0.072  0.076
   23  0.002  0.001  0.023  0.026
   24  0.004  0.000  0.072  0.076
   25  0.016  0.001  0.018  0.034
   26  0.016  0.001  0.018  0.035
   27  0.004  0.000  0.072  0.076
   28  0.003  0.001  0.005  0.010
   29  0.000  0.000  0.004  0.004
   30  0.000  0.000  0.004  0.004
   31  0.000  0.000  0.004  0.004
   32  0.000  0.000  0.004  0.004
   33  0.000  0.000  0.004  0.004
   34  0.000  0.000  0.004  0.004
   35  0.003  0.001  0.007  0.011
   36  0.000  0.000  0.000  0.000
   37  0.000  0.000  0.000  0.000
   38  0.000  0.000  0.000  0.000
   39  0.000  0.000  0.000  0.000
tot    0.133  0.017  0.650  0.800
 
band    11 # energy   -5.32111481 # occ.  2.00000000
 
ion      s      p      d    tot
    1  0.000  0.000  0.003  0.003
    2  0.000  0.000  0.003  0.003
    3  0.002  0.001  0.005  0.008
    4  0.000  0.000  0.003  0.003
    5  0.000  0.000  0.011  0.011
    6  0.002  0.001  0.004  0.006
    7  0.002  0.001  0.005  0.008
    8  0.002  0.001  0.004  0.006
    9  0.000  0.000  0.003  0.003
   10  0.004  0.000  0.013  0.018
   11  0.007  0.001  0.055  0.063
   12  0.001  0.000  0.050  0.052
   13  0.007  0.001  0.056  0.063
   14  0.029  0.001  0.009  0.038
   15  0.003  0.001  0.015  0.019
   16  0.001  0.000  0.050  0.052
   17  0.003  0.001  0.015  0.019
   18  0.010  0.000  0.035  0.046
   19  0.000  0.001  0.030  0.031
   20  0.016  0.000  0.029  0.046
   21  0.004  0.001  0.023  0.028
   22  0.005  0.000  0.058  0.064
   23  0.004  0.001  0.023  0.028
   24  0.021  0.001  0.004  0.026
   25  0.000  0.000  0.021  0.021
   26  0.000  0.001  0.030  0.031
   27  0.005  0.000  0.058  0.064
   28  0.000  0.000  0.001  0.001
   29  0.002  0.001  0.005  0.007
   30  0.000  0.000  0.003  0.004
   31  0.002  0.001  0.005  0.007
   32  0.001  0.000  0.002  0.003
   33  0.000  0.000  0.003  0.004
   34  0.001  0.000  0.002  0.003
   35  0.000  0.000  0.008  0.008
   36  0.000  0.000  0.001  0.001
   37  0.000  0.000  0.000  0.000
   38  0.000  0.000  0.000  0.000
   39  0.000  0.000  0.000  0.000
tot    0.135  0.018  0.646  0.799
 
band    12 # energy   -5.32110823 # occ.  2.00000000
 
ion      s      p      d    tot
    1  0.000  0.000  0.003  0.003
    2  0.002  0.001  0.005  0.008
    3  0.000  0.000  0.003  0.004
    4  0.002  0.001  0.005  0.008
    5  0.000  0.000  0.011  0.011
    6  0.001  0.000  0.004  0.005
    7  0.000  0.000  0.003  0.004
    8  0.001  0.000  0.004  0.005
    9  0.000  0.000  0.003  0.003
   10  0.000  0.000  0.063  0.063
   11  0.021  0.001  0.025  0.047
   12  0.003  0.000  0.026  0.029
   13  0.021  0.001  0.024  0.047
   14  0.000  0.001  0.071  0.071
   15  0.008  0.001  0.029  0.037
   16  0.003  0.000  0.026  0.029
   17  0.008  0.001  0.029  0.037
   18  0.000  0.002  0.008  0.009
   19  0.000  0.000  0.024  0.024
   20  0.000  0.002  0.021  0.023
   21  0.012  0.001  0.027  0.040
   22  0.016  0.001  0.022  0.039
   23  0.012  0.001  0.027  0.040
   24  0.000  0.000  0.077  0.077
   25  0.000  0.001  0.033  0.034
   26  0.000  0.000  0.024  0.024
   27  0.016  0.001  0.022  0.039
   28  0.000  0.000  0.001  0.001
   29  0.000  0.000  0.002  0.002
   30  0.002  0.001  0.004  0.006
   31  0.000  0.000  0.002  0.002
   32  0.001  0.000  0.005  0.006
   33  0.002  0.001  0.004  0.006
   34  0.001  0.000  0.005  0.006
   35  0.000  0.000  0.008  0.008
   36  0.000  0.000  0.001  0.001
   37  0.000  0.000  0.000  0.000
   38  0.000  0.000  0.000  0.000
   39  0.000  0.000  0.000  0.000
tot    0.135  0.018  0.646  0.799
 
band    13 # energy   -5.31774506 # occ.  2.00000000
 
ion      s      p      d    tot
    1  0.000  0.000  0.007  0.007
    2  0.000  0.000  0.002  0.003
    3  0.001  0.000  0.005  0.006
    4  0.000  0.000  0.002  0.003
    5  0.000  0.000  0.001  0.001
    6  0.001  0.000  0.004  0.006
    7  0.001  0.000  0.005  0.006
    8  0.001  0.000  0.004  0.006
    9  0.000  0.000  0.007  0.007
   10  0.000  0.001  0.021  0.022
   11  0.000  0.000  0.032  0.033
   12  0.015  0.001  0.027  0.043
   13  0.000  0.000  0.032  0.032
   14  0.000  0.001  0.039  0.040
   15  0.014  0.001  0.027  0.041
   16  0.015  0.001  0.027  0.042
   17  0.014  0.001  0.024  0.039
   18  0.000  0.000  0.088  0.088
   19  0.016  0.001  0.023  0.039
   20  0.000  0.000  0.078  0.078
   21  0.008  0.001  0.025  0.033
   22  0.002  0.000  0.031  0.033
   23  0.008  0.000  0.027  0.035
   24  0.000  0.001  0.023  0.024
   25  0.000  0.001  0.034  0.035
   26  0.016  0.001  0.022  0.039
   27  0.002  0.000  0.031  0.033
   28  0.000  0.000  0.006  0.006
   29  0.001  0.000  0.004  0.006
   30  0.000  0.000  0.002  0.002
   31  0.001  0.000  0.004  0.006
   32  0.000  0.000  0.003  0.004
   33  0.000  0.000  0.002  0.002
   34  0.000  0.000  0.003  0.004
   35  0.000  0.000  0.001  0.002
   36  0.000  0.000  0.001  0.001
   37  0.000  0.000  0.000  0.000
   38  0.000  0.000  0.000  0.000
   39  0.000  0.000  0.000  0.000
tot    0.117  0.016  0.675  0.807
 
band    14 # energy   -5.31773901 # occ.  2.00000000
 
ion      s      p      d    tot
    1  0.000  0.000  0.007  0.007
    2  0.002  0.001  0.005  0.007
    3  0.000  0.000  0.003  0.004
    4  0.002  0.001  0.005  0.007
    5  0.000  0.000  0.001  0.001
    6  0.000  0.000  0.003  0.004
    7  0.000  0.000  0.003  0.004
    8  0.000  0.000  0.003  0.004
    9  0.000  0.000  0.007  0.007
   10  0.020  0.000  0.029  0.049
   11  0.000  0.001  0.036  0.037
   12  0.005  0.001  0.023  0.028
   13  0.000  0.001  0.037  0.037
   14  0.000  0.000  0.030  0.030
   15  0.005  0.000  0.066  0.071
   16  0.005  0.001  0.023  0.029
   17  0.004  0.000  0.069  0.073
   18  0.019  0.001  0.005  0.024
   19  0.006  0.001  0.030  0.036
   20  0.010  0.001  0.009  0.020
   21  0.002  0.000  0.062  0.065
   22  0.001  0.001  0.025  0.027
   23  0.003  0.000  0.060  0.063
   24  0.002  0.000  0.033  0.036
   25  0.021  0.001  0.018  0.040
   26  0.005  0.001  0.030  0.036
   27  0.001  0.001  0.026  0.027
   28  0.000  0.000  0.006  0.006
   29  0.000  0.000  0.002  0.002
   30  0.001  0.000  0.004  0.006
   31  0.000  0.000  0.002  0.002
   32  0.001  0.000  0.003  0.004
   33  0.001  0.000  0.004  0.006
   34  0.001  0.000  0.003  0.004
   35  0.000  0.000  0.001  0.002
   36  0.000  0.000  0.001  0.001
   37  0.000  0.000  0.000  0.000
   38  0.000  0.000  0.000  0.000
   39  0.000  0.000  0.000  0.000
tot    0.117  0.016  0.675  0.807
 
band    15 # energy   -5.30387697 # occ.  2.00000000
 
ion      s      p      d    tot
    1  0.000  0.001  0.017  0.018
    2  0.001  0.000  0.009  0.010
    3  0.001  0.000  0.009  0.010
    4  0.001  0.000  0.009  0.010
    5  0.000  0.000  0.002  0.002
    6  0.001  0.000  0.009  0.010
    7  0.001  0.000  0.009  0.010
    8  0.001  0.000  0.009  0.010
    9  0.008  0.001  0.002  0.010
   10  0.007  0.000  0.036  0.043
   11  0.000  0.000  0.062  0.062
   12  0.007  0.000  0.036  0.043
   13  0.000  0.000  0.062  0.062
   14  0.000  0.000  0.062  0.062
   15  0.002  0.000  0.013  0.016
   16  0.007  0.000  0.036  0.043
   17  0.002  0.000  0.013  0.016
   18  0.002  0.000  0.013  0.016
   19  0.001  0.000  0.007  0.008
   20  0.001  0.000  0.037  0.038
   21  0.001  0.000  0.037  0.039
   22  0.001  0.000  0.043  0.044
   23  0.001  0.000  0.037  0.039
   24  0.001  0.000  0.043  0.045
   25  0.001  0.000  0.007  0.008
   26  0.001  0.000  0.007  0.008
   27  0.001  0.000  0.043  0.044
   28  0.008  0.001  0.001  0.009
   29  0.001  0.000  0.012  0.014
   30  0.001  0.000  0.012  0.014
   31  0.001  0.000  0.012  0.014
   32  0.001  0.000  0.012  0.014
   33  0.001  0.000  0.012  0.014
   34  0.001  0.000  0.012  0.014
   35  0.002  0.000  0.016  0.018
   36  0.001  0.000  0.000  0.001
   37  0.000  0.000  0.000  0.000
   38  0.000  0.000  0.000  0.000
   39  0.000  0.000  0.000  0.000
tot    0.070  0.008  0.758  0.836
 
band    16 # energy   -5.28226217 # occ.  2.00000000
 
ion      s      p      d    tot
    1  0.000  0.000  0.020  0.020
    2  0.003  0.000  0.006  0.009
    3  0.000  0.000  0.010  0.010
    4  0.003  0.000  0.006  0.009
    5  0.000  0.000  0.007  0.007
    6  0.001  0.000  0.007  0.008
    7  0.000  0.000  0.010  0.010
    8  0.001  0.000  0.007  0.008
    9  0.000  0.000  0.006  0.006
   10  0.000  0.000  0.057  0.057
   11  0.000  0.000  0.033  0.033
   12  0.004  0.000  0.038  0.042
   13  0.000  0.000  0.033  0.033
   14  0.000  0.000  0.010  0.011
   15  0.005  0.000  0.025  0.030
   16  0.004  0.000  0.038  0.042
   17  0.005  0.000  0.025  0.030
   18  0.000  0.000  0.077  0.077
   19  0.005  0.000  0.034  0.039
   20  0.000  0.000  0.078  0.078
   21  0.004  0.000  0.026  0.030
   22  0.000  0.000  0.031  0.031
   23  0.004  0.000  0.026  0.030
   24  0.000  0.000  0.011  0.012
   25  0.000  0.000  0.053  0.053
   26  0.005  0.000  0.034  0.039
   27  0.000  0.000  0.031  0.031
   28  0.000  0.000  0.012  0.012
   29  0.000  0.000  0.007  0.008
   30  0.002  0.000  0.004  0.006
   31  0.000  0.000  0.007  0.008
   32  0.001  0.000  0.005  0.007
   33  0.002  0.000  0.004  0.006
   34  0.001  0.000  0.005  0.007
   35  0.000  0.000  0.005  0.005
   36  0.000  0.000  0.001  0.001
   37  0.000  0.000  0.000  0.000
   38  0.000  0.000  0.000  0.000
   39  0.000  0.000  0.000  0.000
tot    0.051  0.007  0.789  0.846
 
band    17 # energy   -5.28223249 # occ.  2.00000000
 
ion      s      p      d    tot
    1  0.000  0.000  0.020  0.020
    2  0.000  0.000  0.009  0.009
    3  0.002  0.000  0.005  0.008
    4  0.000  0.000  0.009  0.009
    5  0.000  0.000  0.007  0.007
    6  0.002  0.000  0.008  0.010
    7  0.002  0.000  0.005  0.008
    8  0.002  0.000  0.008  0.010
    9  0.000  0.000  0.006  0.006
   10  0.006  0.000  0.031  0.037
   11  0.000  0.000  0.018  0.018
   12  0.001  0.000  0.051  0.052
   13  0.000  0.000  0.018  0.018
   14  0.000  0.000  0.041  0.041
   15  0.002  0.000  0.059  0.061
   16  0.001  0.000  0.051  0.052
   17  0.002  0.000  0.059  0.061
   18  0.006  0.000  0.008  0.014
   19  0.002  0.000  0.047  0.048
   20  0.006  0.000  0.008  0.014
   21  0.001  0.000  0.061  0.062
   22  0.000  0.000  0.018  0.018
   23  0.001  0.000  0.061  0.062
   24  0.000  0.000  0.037  0.037
   25  0.006  0.000  0.028  0.035
   26  0.002  0.000  0.047  0.048
   27  0.000  0.000  0.018  0.018
   28  0.000  0.000  0.012  0.012
   29  0.002  0.000  0.004  0.006
   30  0.000  0.000  0.007  0.007
   31  0.002  0.000  0.004  0.006
   32  0.001  0.000  0.006  0.007
   33  0.000  0.000  0.007  0.007
   34  0.001  0.000  0.006  0.007
   35  0.000  0.000  0.005  0.005
   36  0.000  0.000  0.001  0.001
   37  0.000  0.000  0.000  0.000
   38  0.000  0.000  0.000  0.000
   39  0.000  0.000  0.000  0.000
tot    0.051  0.007  0.789  0.846
 
band    18 # energy   -5.27904021 # occ.  2.00000000
 
ion      s      p      d    tot
    1  0.003  0.000  0.002  0.005
    2  0.000  0.000  0.011  0.011
    3  0.000  0.000  0.011  0.011
    4  0.000  0.000  0.011  0.011
    5  0.005  0.001  0.000  0.006
    6  0.000  0.000  0.011  0.011
    7  0.000  0.000  0.011  0.011
    8  0.000  0.000  0.011  0.011
    9  0.000  0.000  0.013  0.013
   10  0.001  0.000  0.043  0.044
   11  0.003  0.000  0.009  0.012
   12  0.001  0.000  0.043  0.044
   13  0.003  0.000  0.009  0.012
   14  0.003  0.000  0.009  0.012
   15  0.001  0.000  0.052  0.054
   16  0.001  0.000  0.043  0.044
   17  0.001  0.000  0.052  0.054
   18  0.001  0.000  0.052  0.054
   19  0.000  0.000  0.060  0.061
   20  0.005  0.000  0.031  0.036
   21  0.005  0.000  0.031  0.036
   22  0.003  0.000  0.019  0.022
   23  0.005  0.000  0.031  0.036
   24  0.003  0.000  0.019  0.022
   25  0.000  0.000  0.061  0.061
   26  0.000  0.000  0.060  0.061
   27  0.003  0.000  0.019  0.022
   28  0.000  0.000  0.005  0.005
   29  0.000  0.000  0.008  0.008
   30  0.000  0.000  0.008  0.008
   31  0.000  0.000  0.008  0.008
   32  0.000  0.000  0.008  0.008
   33  0.000  0.000  0.008  0.008
   34  0.000  0.000  0.008  0.008
   35  0.007  0.001  0.001  0.008
   36  0.000  0.002  0.000  0.003
   37  0.000  0.000  0.000  0.001
   38  0.000  0.000  0.000  0.000
   39  0.000  0.000  0.000  0.000
tot    0.057  0.009  0.778  0.844
 
band    19 # energy   -5.26746175 # occ.  2.00000000
 
ion      s      p      d    tot
    1  0.000  0.000  0.005  0.006
    2  0.004  0.000  0.006  0.011
    3  0.001  0.000  0.011  0.011
    4  0.004  0.000  0.006  0.011
    5  0.000  0.000  0.014  0.014
    6  0.001  0.001  0.008  0.010
    7  0.001  0.000  0.011  0.011
    8  0.001  0.001  0.008  0.010
    9  0.000  0.000  0.019  0.019
   10  0.006  0.000  0.016  0.022
   11  0.002  0.000  0.054  0.056
   12  0.002  0.000  0.043  0.044
   13  0.002  0.000  0.053  0.056
   14  0.008  0.000  0.015  0.024
   15  0.000  0.000  0.024  0.024
   16  0.001  0.000  0.043  0.045
   17  0.000  0.000  0.025  0.025
   18  0.000  0.000  0.048  0.048
   19  0.001  0.000  0.047  0.048
   20  0.001  0.000  0.044  0.045
   21  0.000  0.000  0.022  0.022
   22  0.003  0.000  0.059  0.061
   23  0.000  0.000  0.021  0.022
   24  0.010  0.000  0.015  0.025
   25  0.005  0.000  0.013  0.017
   26  0.001  0.000  0.046  0.047
   27  0.003  0.000  0.059  0.062
   28  0.000  0.000  0.003  0.003
   29  0.000  0.000  0.007  0.007
   30  0.001  0.000  0.002  0.003
   31  0.000  0.000  0.007  0.007
   32  0.001  0.001  0.006  0.008
   33  0.001  0.000  0.002  0.003
   34  0.001  0.001  0.006  0.008
   35  0.000  0.000  0.007  0.007
   36  0.000  0.000  0.001  0.001
   37  0.000  0.000  0.000  0.000
   38  0.000  0.000  0.000  0.000
   39  0.000  0.000  0.000  0.000
tot    0.062  0.008  0.773  0.843
 
band    20 # energy   -5.26743096 # occ.  2.00000000
 
ion      s      p      d    tot
    1  0.000  0.000  0.005  0.006
    2  0.000  0.000  0.011  0.011
    3  0.003  0.001  0.006  0.010
    4  0.000  0.000  0.011  0.011
    5  0.000  0.000  0.014  0.014
    6  0.002  0.000  0.009  0.011
    7  0.003  0.001  0.006  0.010
    8  0.002  0.000  0.009  0.011
    9  0.000  0.000  0.019  0.019
   10  0.000  0.000  0.051  0.051
   11  0.006  0.000  0.027  0.034
   12  0.005  0.000  0.025  0.030
   13  0.006  0.000  0.028  0.035
   14  0.000  0.000  0.066  0.067
   15  0.000  0.000  0.041  0.041
   16  0.005  0.000  0.025  0.029
   17  0.000  0.000  0.040  0.040
   18  0.000  0.000  0.017  0.017
   19  0.004  0.000  0.024  0.027
   20  0.000  0.000  0.014  0.014
   21  0.001  0.000  0.036  0.037
   22  0.008  0.000  0.030  0.038
   23  0.001  0.000  0.036  0.037
   24  0.000  0.000  0.074  0.074
   25  0.000  0.000  0.058  0.058
   26  0.004  0.000  0.024  0.028
   27  0.008  0.000  0.029  0.037
   28  0.000  0.000  0.003  0.003
   29  0.002  0.000  0.003  0.005
   30  0.000  0.000  0.008  0.009
   31  0.002  0.000  0.003  0.005
   32  0.000  0.000  0.003  0.004
   33  0.000  0.000  0.008  0.009
   34  0.000  0.000  0.004  0.004
   35  0.000  0.000  0.007  0.007
   36  0.000  0.000  0.001  0.001
   37  0.000  0.000  0.000  0.000
   38  0.000  0.000  0.000  0.000
   39  0.000  0.000  0.000  0.000