PROCAR new format
# of k-points:   10         # of bands:  252         # of ions:   37

 k-point     1 :    0.00000000 0.00000000 0.00000000     weight = 0.01562500

band     1 # energy  -17.58708417 # occ.  2.00000000
 
ion      s      p      d    tot
    1  0.000  0.000  0.000  0.000
    2  0.000  0.000  0.000  0.000
    3  0.000  0.000  0.000  0.000
    4  0.000  0.000  0.000  0.000
    5  0.000  0.000  0.000  0.000
    6  0.000  0.000  0.000  0.000
    7  0.000  0.000  0.000  0.000
    8  0.000  0.000  0.000  0.000
    9  0.000  0.000  0.000  0.000
   10  0.000  0.000  0.000  0.000
   11  0.000  0.000  0.000  0.000
   12  0.000  0.000  0.000  0.000
   13  0.000  0.000  0.000  0.000
   14  0.000  0.000  0.000  0.000
   15  0.000  0.000  0.000  0.000
   16  0.000  0.000  0.000  0.000
   17  0.000  0.000  0.000  0.000
   18  0.000  0.000  0.000  0.000
   19  0.000  0.000  0.000  0.000
   20  0.000  0.000  0.000  0.000
   21  0.000  0.000  0.000  0.000
   22  0.000  0.000  0.000  0.000
   23  0.000  0.000  0.000  0.000
   24  0.000  0.000  0.000  0.000
   25  0.000  0.000  0.000  0.000
   26  0.000  0.000  0.000  0.000
   27  0.000  0.000  0.000  0.000
   28  0.000  0.000  0.000  0.000
   29  0.000  0.000  0.000  0.000
   30  0.000  0.000  0.000  0.000
   31  0.000  0.000  0.000  0.000
   32  0.000  0.000  0.000  0.000
   33  0.000  0.000  0.000  0.000
   34  0.000  0.000  0.000  0.000
   35  0.000  0.000  0.000  0.000
   36  0.041  0.056  0.066  0.164
   37  0.776  0.012  0.000  0.787
tot    0.817  0.069  0.066  0.952
 
band     2 # energy   -6.36518586 # occ.  2.00000000
 
ion      s      p      d    tot
    1  0.006  0.001  0.000  0.007
    2  0.006  0.001  0.000  0.007
    3  0.006  0.001  0.000  0.007
    4  0.006  0.001  0.000  0.007
    5  0.006  0.001  0.000  0.006
    6  0.006  0.001  0.000  0.007
    7  0.006  0.001  0.000  0.007
    8  0.006  0.001  0.000  0.007
    9  0.006  0.001  0.000  0.007
   10  0.023  0.000  0.000  0.024
   11  0.024  0.000  0.000  0.024
   12  0.023  0.000  0.000  0.024
   13  0.024  0.000  0.000  0.024
   14  0.024  0.000  0.000  0.024
   15  0.023  0.000  0.000  0.024
   16  0.023  0.000  0.000  0.024
   17  0.023  0.000  0.000  0.024
   18  0.023  0.000  0.000  0.024
   19  0.022  0.000  0.000  0.023
   20  0.025  0.000  0.000  0.026
   21  0.025  0.000  0.000  0.026
   22  0.023  0.000  0.000  0.024
   23  0.025  0.000  0.000  0.026
   24  0.023  0.000  0.000  0.024
   25  0.022  0.000  0.000  0.023
   26  0.022  0.000  0.000  0.023
   27  0.023  0.000  0.000  0.024
   28  0.005  0.001  0.000  0.006
   29  0.005  0.001  0.000  0.006
   30  0.005  0.001  0.000  0.006
   31  0.005  0.001  0.000  0.006
   32  0.005  0.001  0.000  0.006
   33  0.005  0.001  0.000  0.006
   34  0.005  0.001  0.000  0.006
   35  0.005  0.001  0.000  0.006
   36  0.006  0.001  0.000  0.007
   37  0.000  0.001  0.000  0.001
tot    0.524  0.014  0.007  0.545
 
band     3 # energy   -5.49507714 # occ.  2.00000000
 
ion      s      p      d    tot
    1  0.008  0.000  0.000  0.008
    2  0.008  0.000  0.000  0.009
    3  0.008  0.000  0.000  0.009
    4  0.008  0.000  0.000  0.009
    5  0.008  0.000  0.000  0.009
    6  0.008  0.000  0.000  0.009
    7  0.008  0.000  0.000  0.009
    8  0.008  0.000  0.000  0.009
    9  0.008  0.000  0.000  0.009
   10  0.011  0.001  0.016  0.027
   11  0.011  0.001  0.015  0.027
   12  0.011  0.001  0.016  0.027
   13  0.011  0.001  0.015  0.027
   14  0.011  0.001  0.015  0.027
   15  0.011  0.001  0.014  0.026
   16  0.011  0.001  0.016  0.027
   17  0.011  0.001  0.014  0.026
   18  0.011  0.001  0.014  0.026
   19  0.011  0.001  0.018  0.030
   20  0.014  0.001  0.020  0.035
   21  0.014  0.001  0.020  0.035
   22  0.011  0.001  0.017  0.029
   23  0.014  0.001  0.020  0.035
   24  0.011  0.001  0.017  0.029
   25  0.011  0.001  0.018  0.030
   26  0.011  0.001  0.018  0.030
   27  0.011  0.001  0.017  0.029
   28  0.006  0.000  0.000  0.006
   29  0.005  0.000  0.000  0.006
   30  0.005  0.000  0.000  0.006
   31  0.005  0.000  0.000  0.006
   32  0.005  0.000  0.000  0.006
   33  0.005  0.000  0.000  0.006
   34  0.005  0.000  0.000  0.006
   35  0.005  0.000  0.000  0.006
   36  0.007  0.001  0.001  0.008
   37  0.001  0.002  0.000  0.003
tot    0.332  0.027  0.303  0.662
 
band     4 # energy   -5.19731290 # occ.  2.00000000
 
ion      s      p      d    tot
    1  0.014  0.000  0.028  0.042
    2  0.016  0.000  0.025  0.041
    3  0.016  0.000  0.025  0.041
    4  0.016  0.000  0.025  0.041
    5  0.016  0.000  0.025  0.041
    6  0.016  0.000  0.025  0.041
    7  0.016  0.000  0.025  0.041
    8  0.016  0.000  0.025  0.041
    9  0.018  0.000  0.025  0.042
   10  0.001  0.001  0.019  0.020
   11  0.001  0.001  0.024  0.025
   12  0.001  0.001  0.019  0.020
   13  0.001  0.001  0.024  0.025
   14  0.001  0.001  0.024  0.025
   15  0.000  0.000  0.024  0.025
   16  0.001  0.001  0.019  0.020
   17  0.000  0.000  0.024  0.025
   18  0.000  0.000  0.024  0.025
   19  0.000  0.000  0.007  0.007
   20  0.000  0.000  0.011  0.012
   21  0.000  0.000  0.011  0.012
   22  0.000  0.000  0.011  0.011
   23  0.000  0.000  0.011  0.012
   24  0.000  0.000  0.011  0.011
   25  0.000  0.000  0.007  0.007
   26  0.000  0.000  0.007  0.007
   27  0.000  0.000  0.011  0.011
   28  0.004  0.000  0.007  0.011
   29  0.005  0.000  0.006  0.011
   30  0.005  0.000  0.006  0.011
   31  0.005  0.000  0.006  0.011
   32  0.005  0.000  0.006  0.011
   33  0.005  0.000  0.006  0.011
   34  0.005  0.000  0.006  0.011
   35  0.004  0.000  0.007  0.011
   36  0.005  0.000  0.000  0.006
   37  0.000  0.001  0.000  0.001
tot    0.193  0.007  0.565  0.765
 
band     5 # energy   -5.13394750 # occ.  2.00000000
 
ion      s      p      d    tot
    1  0.008  0.001  0.000  0.009
    2  0.001  0.000  0.005  0.006
    3  0.001  0.000  0.005  0.006
    4  0.001  0.000  0.005  0.006
    5  0.000  0.000  0.002  0.002
    6  0.001  0.000  0.005  0.006
    7  0.001  0.000  0.005  0.006
    8  0.001  0.000  0.005  0.006
    9  0.000  0.000  0.003  0.004
   10  0.004  0.000  0.035  0.039
   11  0.000  0.000  0.016  0.017
   12  0.004  0.000  0.035  0.039
   13  0.000  0.000  0.016  0.017
   14  0.000  0.000  0.016  0.017
   15  0.007  0.001  0.005  0.013
   16  0.004  0.000  0.035  0.039
   17  0.007  0.001  0.005  0.013
   18  0.007  0.001  0.005  0.013
   19  0.000  0.001  0.039  0.039
   20  0.008  0.000  0.088  0.096
   21  0.008  0.000  0.088  0.096
   22  0.016  0.001  0.004  0.021
   23  0.008  0.000  0.088  0.096
   24  0.016  0.001  0.004  0.021
   25  0.000  0.001  0.039  0.039
   26  0.000  0.001  0.039  0.039
   27  0.016  0.001  0.004  0.021
   28  0.000  0.000  0.002  0.003
   29  0.000  0.000  0.005  0.005
   30  0.000  0.000  0.005  0.005
   31  0.000  0.000  0.005  0.005
   32  0.000  0.000  0.005  0.005
   33  0.000  0.000  0.005  0.005
   34  0.000  0.000  0.005  0.005
   35  0.004  0.001  0.002  0.008
   36  0.012  0.001  0.013  0.026
   37  0.001  0.013  0.000  0.014
tot    0.138  0.028  0.643  0.808
 
band     6 # energy   -5.08473217 # occ.  2.00000000
 
ion      s      p      d    tot
    1  0.000  0.000  0.000  0.000
    2  0.000  0.000  0.006  0.006
    3  0.000  0.000  0.006  0.006
    4  0.000  0.000  0.006  0.006
    5  0.005  0.001  0.002  0.008
    6  0.000  0.000  0.006  0.006
    7  0.000  0.000  0.006  0.006
    8  0.000  0.000  0.006  0.006
    9  0.002  0.000  0.003  0.006
   10  0.006  0.001  0.006  0.013
   11  0.011  0.000  0.027  0.039
   12  0.006  0.001  0.006  0.013
   13  0.011  0.000  0.027  0.039
   14  0.011  0.000  0.027  0.038
   15  0.001  0.000  0.041  0.043
   16  0.006  0.001  0.006  0.013
   17  0.001  0.000  0.041  0.043
   18  0.001  0.000  0.042  0.043
   19  0.015  0.001  0.032  0.047
   20  0.006  0.001  0.012  0.020
   21  0.006  0.001  0.012  0.019
   22  0.001  0.000  0.071  0.073
   23  0.006  0.001  0.012  0.019
   24  0.001  0.000  0.071  0.073
   25  0.015  0.001  0.031  0.047
   26  0.015  0.001  0.032  0.047
   27  0.001  0.000  0.071  0.073
   28  0.005  0.001  0.006  0.012
   29  0.000  0.000  0.004  0.004
   30  0.000  0.000  0.004  0.004
   31  0.000  0.000  0.004  0.004
   32  0.000  0.000  0.004  0.004
   33  0.000  0.000  0.004  0.004
   34  0.000  0.000  0.004  0.004
   35  0.001  0.001  0.008  0.010
   36  0.000  0.000  0.000  0.001
   37  0.000  0.000  0.000  0.000
tot    0.136  0.017  0.647  0.799
 
band     7 # energy   -5.07982898 # occ.  2.00000000
 
ion      s      p      d    tot
    1  0.000  0.000  0.008  0.008
    2  0.001  0.000  0.003  0.004
    3  0.001  0.000  0.004  0.006
    4  0.001  0.000  0.003  0.004
    5  0.000  0.000  0.005  0.005
    6  0.000  0.000  0.003  0.003
    7  0.001  0.000  0.004  0.006
    8  0.000  0.000  0.003  0.003
    9  0.000  0.000  0.002  0.002
   10  0.000  0.000  0.037  0.037
   11  0.005  0.001  0.029  0.034
   12  0.014  0.001  0.018  0.033
   13  0.005  0.001  0.028  0.034
   14  0.000  0.001  0.016  0.017
   15  0.003  0.000  0.021  0.024
   16  0.014  0.001  0.017  0.032
   17  0.003  0.000  0.022  0.025
   18  0.000  0.000  0.048  0.048
   19  0.011  0.001  0.030  0.042
   20  0.000  0.000  0.105  0.106
   21  0.019  0.001  0.034  0.054
   22  0.001  0.000  0.036  0.037
   23  0.020  0.001  0.031  0.052
   24  0.000  0.001  0.069  0.070
   25  0.000  0.002  0.010  0.012
   26  0.011  0.001  0.029  0.041
   27  0.001  0.000  0.034  0.036
   28  0.000  0.000  0.003  0.003
   29  0.000  0.000  0.004  0.005
   30  0.000  0.000  0.002  0.002
   31  0.001  0.000  0.005  0.005
   32  0.001  0.001  0.006  0.008
   33  0.000  0.000  0.002  0.002
   34  0.001  0.001  0.006  0.007
   35  0.000  0.000  0.001  0.001
   36  0.000  0.000  0.002  0.003
   37  0.000  0.000  0.000  0.000
tot    0.115  0.016  0.678  0.809
 
band     8 # energy   -5.07982453 # occ.  2.00000000
 
ion      s      p      d    tot
    1  0.000  0.000  0.008  0.008
    2  0.001  0.000  0.003  0.004
    3  0.000  0.000  0.002  0.003
    4  0.001  0.000  0.003  0.004
    5  0.000  0.000  0.005  0.005
    6  0.001  0.000  0.004  0.005
    7  0.000  0.000  0.002  0.003
    8  0.001  0.000  0.004  0.005
    9  0.000  0.000  0.001  0.001
   10  0.019  0.001  0.011  0.031
   11  0.002  0.001  0.020  0.022
   12  0.005  0.001  0.030  0.036
   13  0.002  0.001  0.020  0.023
   14  0.007  0.000  0.033  0.040
   15  0.001  0.000  0.039  0.040
   16  0.004  0.001  0.031  0.036
   17  0.001  0.000  0.038  0.039
   18  0.003  0.000  0.013  0.016
   19  0.003  0.001  0.016  0.021
   20  0.027  0.001  0.008  0.035
   21  0.007  0.000  0.079  0.087
   22  0.000  0.001  0.058  0.059
   23  0.006  0.000  0.082  0.089
   24  0.002  0.000  0.023  0.025
   25  0.014  0.000  0.037  0.051
   26  0.004  0.001  0.017  0.022
   27  0.000  0.001  0.059  0.060
   28  0.000  0.000  0.003  0.003
   29  0.001  0.000  0.004  0.005
   30  0.001  0.001  0.006  0.008
   31  0.001  0.000  0.004  0.005
   32  0.000  0.000  0.002  0.002
   33  0.001  0.000  0.006  0.008
   34  0.000  0.000  0.002  0.003
   35  0.000  0.000  0.002  0.002
   36  0.000  0.000  0.002  0.003
   37  0.000  0.000  0.000  0.000
tot    0.115  0.016  0.678  0.809
 
band     9 # energy   -5.07904915 # occ.  2.00000000
 
ion      s      p      d    tot
    1  0.000  0.000  0.000  0.000
    2  0.001  0.000  0.004  0.005
    3  0.002  0.001  0.005  0.008
    4  0.001  0.000  0.004  0.004
    5  0.000  0.000  0.007  0.008
    6  0.000  0.000  0.003  0.004
    7  0.002  0.001  0.005  0.008
    8  0.000  0.000  0.003  0.004
    9  0.000  0.000  0.008  0.008
   10  0.000  0.000  0.029  0.029
   11  0.005  0.000  0.069  0.073
   12  0.000  0.001  0.030  0.030
   13  0.005  0.000  0.067  0.072
   14  0.019  0.001  0.003  0.023
   15  0.006  0.001  0.028  0.035
   16  0.000  0.001  0.030  0.030
   17  0.006  0.001  0.028  0.035
   18  0.023  0.001  0.027  0.051
   19  0.002  0.000  0.050  0.053
   20  0.003  0.000  0.033  0.037
   21  0.001  0.001  0.021  0.023
   22  0.006  0.001  0.038  0.045
   23  0.001  0.001  0.021  0.022
   24  0.024  0.001  0.015  0.040
   25  0.009  0.001  0.008  0.018
   26  0.002  0.000  0.049  0.052
   27  0.006  0.001  0.039  0.045
   28  0.000  0.000  0.004  0.004
   29  0.001  0.000  0.004  0.005
   30  0.000  0.000  0.002  0.002
   31  0.001  0.000  0.004  0.005
   32  0.002  0.000  0.004  0.006
   33  0.000  0.000  0.002  0.002
   34  0.002  0.000  0.003  0.005
   35  0.000  0.000  0.008  0.008
   36  0.000  0.000  0.000  0.000
   37  0.000  0.000  0.000  0.000
tot    0.129  0.017  0.654  0.801
 
band    10 # energy   -5.07903701 # occ.  2.00000000
 
ion      s      p      d    tot
    1  0.000  0.000  0.000  0.000
    2  0.001  0.001  0.004  0.006
    3  0.000  0.000  0.003  0.003
    4  0.001  0.001  0.004  0.006
    5  0.000  0.000  0.008  0.008
    6  0.001  0.000  0.005  0.007
    7  0.000  0.000  0.003  0.003
    8  0.001  0.000  0.005  0.007
    9  0.000  0.000  0.008  0.008
   10  0.000  0.001  0.031  0.032
   11  0.015  0.001  0.024  0.039
   12  0.000  0.000  0.029  0.029
   13  0.015  0.001  0.025  0.040
   14  0.000  0.000  0.089  0.089
   15  0.017  0.001  0.028  0.046
   16  0.000  0.000  0.029  0.029
   17  0.017  0.001  0.028  0.045
   18  0.000  0.001  0.027  0.028
   19  0.007  0.001  0.021  0.029
   20  0.000  0.001  0.016  0.017
   21  0.003  0.000  0.029  0.032
   22  0.018  0.001  0.023  0.042
   23  0.003  0.000  0.029  0.032
   24  0.000  0.001  0.047  0.048
   25  0.000  0.000  0.064  0.064
   26  0.006  0.001  0.022  0.029
   27  0.018  0.001  0.023  0.042
   28  0.000  0.000  0.004  0.004
   29  0.001  0.000  0.002  0.003
   30  0.002  0.000  0.004  0.007
   31  0.001  0.000  0.002  0.003
   32  0.000  0.000  0.003  0.003
   33  0.002  0.000  0.004  0.007
   34  0.000  0.000  0.003  0.003
   35  0.000  0.000  0.008  0.008
   36  0.000  0.000  0.000  0.000
   37  0.000  0.000  0.000  0.000
tot    0.130  0.017  0.654  0.800
 
band    11 # energy   -5.06387285 # occ.  2.00000000
 
ion      s      p      d    tot
    1  0.002  0.001  0.006  0.009
    2  0.000  0.000  0.008  0.008
    3  0.000  0.000  0.008  0.008
    4  0.000  0.000  0.008  0.008
    5  0.000  0.000  0.005  0.006
    6  0.000  0.000  0.008  0.008
    7  0.000  0.000  0.008  0.008
    8  0.000  0.000  0.008  0.008
    9  0.004  0.000  0.004  0.008
   10  0.007  0.000  0.011  0.018
   11  0.002  0.000  0.062  0.064
   12  0.007  0.000  0.011  0.018
   13  0.002  0.000  0.062  0.064
   14  0.002  0.000  0.062  0.064
   15  0.000  0.000  0.042  0.043
   16  0.007  0.000  0.011  0.018
   17  0.000  0.000  0.042  0.043
   18  0.000  0.000  0.042  0.043
   19  0.002  0.000  0.007  0.009
   20  0.001  0.000  0.042  0.043
   21  0.001  0.000  0.042  0.043
   22  0.001  0.000  0.049  0.049
   23  0.001  0.000  0.042  0.043
   24  0.001  0.000  0.049  0.050
   25  0.002  0.000  0.007  0.009
   26  0.002  0.000  0.007  0.009
   27  0.001  0.000  0.049  0.049
   28  0.004  0.001  0.000  0.004
   29  0.000  0.000  0.010  0.011
   30  0.000  0.000  0.010  0.011
   31  0.000  0.000  0.010  0.011
   32  0.000  0.000  0.010  0.011
   33  0.000  0.000  0.010  0.011
   34  0.000  0.000  0.010  0.011
   35  0.002  0.000  0.010  0.012
   36  0.004  0.000  0.000  0.004
   37  0.000  0.001  0.000  0.001
tot    0.056  0.009  0.775  0.841
 
band    12 # energy   -5.04710531 # occ.  2.00000000
 
ion      s      p      d    tot
    1  0.002  0.000  0.015  0.016
    2  0.000  0.000  0.009  0.009
    3  0.000  0.000  0.009  0.009
    4  0.000  0.000  0.009  0.009
    5  0.002  0.000  0.000  0.002
    6  0.000  0.000  0.008  0.009
    7  0.000  0.000  0.009  0.009
    8  0.000  0.000  0.008  0.009
    9  0.002  0.001  0.005  0.007
   10  0.001  0.000  0.087  0.088
   11  0.005  0.000  0.014  0.019
   12  0.001  0.000  0.087  0.088
   13  0.005  0.000  0.014  0.019
   14  0.005  0.000  0.014  0.019
   15  0.007  0.000  0.038  0.046
   16  0.001  0.000  0.087  0.088
   17  0.007  0.000  0.038  0.046
   18  0.007  0.000  0.038  0.046
   19  0.000  0.000  0.041  0.041
   20  0.000  0.001  0.019  0.020
   21  0.000  0.001  0.019  0.020
   22  0.000  0.000  0.022  0.023
   23  0.000  0.001  0.019  0.020
   24  0.000  0.000  0.022  0.023
   25  0.000  0.000  0.041  0.041
   26  0.000  0.000  0.041  0.041
   27  0.000  0.000  0.022  0.023
   28  0.003  0.000  0.007  0.010
   29  0.000  0.000  0.007  0.007
   30  0.000  0.000  0.007  0.007
   31  0.000  0.000  0.007  0.007
   32  0.000  0.000  0.007  0.007
   33  0.000  0.000  0.007  0.007
   34  0.000  0.000  0.007  0.007
   35  0.001  0.000  0.001  0.002
   36  0.001  0.000  0.002  0.003
   37  0.000  0.002  0.000  0.002
tot    0.053  0.009  0.783  0.846
 
band    13 # energy   -5.03975556 # occ.  2.00000000
 
ion      s      p      d    tot
    1  0.000  0.000  0.017  0.017
    2  0.002  0.000  0.006  0.008
    3  0.000  0.000  0.010  0.010
    4  0.002  0.000  0.006  0.008
    5  0.000  0.000  0.005  0.005
    6  0.001  0.001  0.007  0.009
    7  0.000  0.000  0.010  0.010
    8  0.001  0.001  0.007  0.009
    9  0.000  0.000  0.007  0.008
   10  0.000  0.000  0.055  0.055
   11  0.000  0.000  0.034  0.034
   12  0.006  0.000  0.040  0.046
   13  0.000  0.000  0.034  0.034
   14  0.000  0.000  0.014  0.014
   15  0.006  0.000  0.030  0.036
   16  0.006  0.000  0.040  0.046
   17  0.007  0.000  0.029  0.035
   18  0.000  0.000  0.097  0.097
   19  0.003  0.000  0.032  0.036
   20  0.000  0.000  0.061  0.061
   21  0.003  0.000  0.022  0.025
   22  0.000  0.000  0.031  0.031
   23  0.003  0.000  0.022  0.025
   24  0.000  0.000  0.010  0.010
   25  0.000  0.000  0.054  0.054
   26  0.003  0.000  0.032  0.036
   27  0.000  0.000  0.030  0.030
   28  0.000  0.000  0.012  0.012
   29  0.000  0.000  0.007  0.007
   30  0.002  0.000  0.004  0.007
   31  0.000  0.000  0.007  0.007
   32  0.001  0.000  0.004  0.006
   33  0.002  0.000  0.004  0.007
   34  0.001  0.000  0.004  0.006
   35  0.000  0.000  0.006  0.006
   36  0.000  0.000  0.000  0.001
   37  0.000  0.000  0.000  0.000
tot    0.051  0.007  0.788  0.846
 
band    14 # energy   -5.03972417 # occ.  2.00000000
 
ion      s      p      d    tot
    1  0.000  0.000  0.017  0.017
    2  0.000  0.000  0.009  0.010
    3  0.002  0.000  0.005  0.008
    4  0.000  0.000  0.009  0.010
    5  0.000  0.000  0.005  0.005
    6  0.001  0.000  0.008  0.009
    7  0.002  0.000  0.005  0.008
    8  0.001  0.000  0.008  0.009
    9  0.000  0.000  0.007  0.008
   10  0.008  0.000  0.035  0.043
   11  0.000  0.000  0.020  0.021
   12  0.002  0.000  0.050  0.052
   13  0.000  0.000  0.020  0.020
   14  0.000  0.000  0.041  0.041
   15  0.002  0.000  0.074  0.076
   16  0.002  0.000  0.049  0.052
   17  0.002  0.000  0.075  0.077
   18  0.009  0.000  0.006  0.015
   19  0.001  0.000  0.047  0.048
   20  0.004  0.000  0.009  0.013
   21  0.001  0.000  0.048  0.049
   22  0.000  0.000  0.017  0.017
   23  0.001  0.000  0.048  0.049
   24  0.000  0.000  0.037  0.037
   25  0.004  0.000  0.025  0.030
   26  0.001  0.000  0.047  0.048
   27  0.000  0.000  0.017  0.017
   28  0.000  0.000  0.012  0.012
   29  0.002  0.000  0.003  0.006
   30  0.000  0.000  0.006  0.006
   31  0.002  0.000  0.003  0.006
   32  0.001  0.000  0.006  0.007
   33  0.000  0.000  0.006  0.006
   34  0.001  0.000  0.006  0.007
   35  0.000  0.000  0.006  0.006
   36  0.000  0.000  0.000  0.001
   37  0.000  0.000  0.000  0.000
tot    0.051  0.007  0.788  0.846
 
band    15 # energy   -5.02459498 # occ.  2.00000000
 
ion      s      p      d    tot
    1  0.000  0.000  0.006  0.007
    2  0.004  0.001  0.006  0.011
    3  0.000  0.000  0.011  0.011
    4  0.004  0.001  0.006  0.011
    5  0.000  0.000  0.014  0.014
    6  0.002  0.001  0.009  0.011
    7  0.000  0.000  0.011  0.011
    8  0.002  0.001  0.009  0.011
    9  0.000  0.000  0.017  0.017
   10  0.009  0.000  0.013  0.022
   11  0.003  0.000  0.055  0.058
   12  0.002  0.000  0.052  0.054
   13  0.003  0.000  0.054  0.057
   14  0.011  0.000  0.017  0.028
   15  0.000  0.000  0.023  0.023
   16  0.002  0.000  0.052  0.055
   17  0.000  0.000  0.023  0.023
   18  0.000  0.000  0.048  0.048
   19  0.001  0.000  0.044  0.045
   20  0.000  0.000  0.041  0.041
   21  0.000  0.000  0.023  0.024
   22  0.002  0.000  0.049  0.052
   23  0.000  0.000  0.023  0.023
   24  0.009  0.000  0.015  0.024
   25  0.005  0.000  0.011  0.017
   26  0.001  0.000  0.043  0.045
   27  0.002  0.000  0.050  0.052
   28  0.000  0.000  0.003  0.003
   29  0.000  0.000  0.006  0.006
   30  0.001  0.000  0.001  0.003
   31  0.000  0.000  0.006  0.006
   32  0.001  0.001  0.006  0.008
   33  0.001  0.000  0.001  0.003
   34  0.001  0.001  0.006  0.007
   35  0.000  0.000  0.006  0.007
   36  0.000  0.000  0.001  0.001
   37  0.000  0.000  0.000  0.000
tot    0.068  0.008  0.763  0.839
 
band    16 # energy   -5.02456914 # occ.  2.00000000
 
ion      s      p      d    tot
    1  0.000  0.000  0.006  0.007
    2  0.000  0.000  0.011  0.011
    3  0.003  0.001  0.006  0.011
    4  0.000  0.000  0.011  0.011
    5  0.000  0.000  0.014  0.014
    6  0.002  0.000  0.008  0.011
    7  0.004  0.001  0.006  0.011
    8  0.002  0.000  0.008  0.011
    9  0.000  0.000  0.017  0.017
   10  0.000  0.000  0.065  0.065
   11  0.008  0.000  0.029  0.037
   12  0.006  0.000  0.026  0.033
   13  0.008  0.000  0.029  0.038
   14  0.000  0.000  0.067  0.067
   15  0.000  0.000  0.040  0.040
   16  0.007  0.000  0.026  0.033
   17  0.000  0.000  0.040  0.040
   18  0.000  0.000  0.015  0.015
   19  0.004  0.000  0.022  0.026
   20  0.000  0.000  0.017  0.018
   21  0.000  0.000  0.035  0.035
   22  0.006  0.000  0.027  0.033
   23  0.000  0.000  0.035  0.036
   24  0.000  0.000  0.061  0.061
   25  0.000  0.000  0.055  0.055
   26  0.004  0.000  0.022  0.026
   27  0.007  0.000  0.026  0.033
   28  0.000  0.000  0.003  0.003
   29  0.002  0.000  0.003  0.005
   30  0.000  0.000  0.008  0.008
   31  0.002  0.000  0.003  0.005
   32  0.001  0.000  0.003  0.004
   33  0.000  0.000  0.008  0.008
   34  0.001  0.000  0.003  0.004
   35  0.000  0.000  0.006  0.007
   36  0.000  0.000  0.001  0.001
   37  0.000  0.000  0.000  0.000
tot    0.068  0.008  0.763  0.840
 
band    17 # energy   -4.99130891 # occ.  2.00000000
 
ion      s      p      d    tot
    1  0.003  0.000  0.003  0.006
    2  0.002  0.000  0.010  0.012
    3  0.002  0.000  0.010  0.012
    4  0.002  0.000  0.010  0.012
    5  0.004  0.000  0.010  0.014
    6  0.002  0.000  0.010  0.012
    7  0.002  0.000  0.010  0.012
    8  0.002  0.000  0.010  0.012
    9  0.001  0.000  0.014  0.015
   10  0.001  0.000  0.006  0.007
   11  0.002  0.000  0.009  0.011
   12  0.001  0.000  0.006  0.007
   13  0.002  0.000  0.009  0.011
   14  0.002  0.000  0.009  0.011
   15  0.002  0.000  0.013  0.015
   16  0.001  0.000  0.006  0.007
   17  0.002  0.000  0.013  0.015
   18  0.002  0.000  0.013  0.015
   19  0.002  0.000  0.011  0.013
   20  0.001  0.001  0.029  0.031
   21  0.001  0.001  0.029  0.031
   22  0.000  0.001  0.022  0.022
   23  0.001  0.001  0.029  0.031
   24  0.000  0.001  0.022  0.022
   25  0.002  0.000  0.011  0.013
   26  0.002  0.000  0.011  0.013
   27  0.000  0.001  0.022  0.022
   28  0.011  0.000  0.026  0.037
   29  0.014  0.000  0.031  0.045
   30  0.014  0.000  0.031  0.045
   31  0.014  0.000  0.031  0.045
   32  0.014  0.000  0.031  0.045
   33  0.014  0.000  0.031  0.045
   34  0.014  0.000  0.031  0.045
   35  0.021  0.000  0.031  0.052
   36  0.009  0.000  0.005  0.014
   37  0.001  0.000  0.000  0.001
tot    0.168  0.009  0.603  0.780
 
band    18 # energy   -4.89787713 # occ.  2.00000000
 
ion      s      p      d    tot
    1  0.000  0.000  0.000  0.001
    2  0.000  0.000  0.007  0.007
    3  0.000  0.000  0.007  0.007
    4  0.000  0.000  0.007  0.007
    5  0.000  0.000  0.014  0.015
    6  0.000  0.000  0.007  0.007
    7  0.000  0.000  0.007  0.007
    8  0.000  0.000  0.007  0.007
    9  0.000  0.000  0.008  0.009
   10  0.000  0.000  0.010  0.010
   11  0.000  0.000  0.061  0.061
   12  0.000  0.000  0.010  0.010
   13  0.000  0.000  0.061  0.061
   14  0.000  0.000  0.060  0.061
   15  0.001  0.001  0.047  0.049
   16  0.000  0.000  0.010  0.010
   17  0.001  0.001  0.047  0.049
   18  0.001  0.001  0.047  0.049
   19  0.000  0.000  0.021  0.021
   20  0.001  0.000  0.060  0.061
   21  0.001  0.000  0.059  0.060
   22  0.003  0.001  0.025  0.028
   23  0.001  0.000  0.059  0.060
   24  0.003  0.001  0.025  0.028
   25  0.000  0.000  0.021  0.021
   26  0.000  0.000  0.021  0.021
   27  0.003  0.001  0.025  0.028
   28  0.008  0.001  0.003  0.011
   29  0.001  0.000  0.012  0.013
   30  0.001  0.000  0.012  0.013
   31  0.001  0.000  0.012  0.013
   32  0.001  0.000  0.012  0.013
   33  0.001  0.000  0.012  0.013
   34  0.001  0.000  0.012  0.013
   35  0.000  0.000  0.000  0.000
   36  0.002  0.000  0.010  0.012
   37  0.000  0.006  0.000  0.007
tot    0.034  0.019  0.810  0.864
 
band    19 # energy   -4.87019775 # occ.  2.00000000
 
ion      s      p      d    tot
    1  0.000  0.000  0.008  0.008
    2  0.000  0.000  0.011  0.011
    3  0.000  0.000  0.010  0.010
    4  0.000  0.000  0.011  0.011
    5  0.003  0.001  0.003  0.008
    6  0.000  0.000  0.011  0.011
    7  0.000  0.000  0.010  0.010
    8  0.000  0.000  0.011  0.011
    9  0.002  0.000  0.002  0.004
   10  0.002  0.001  0.056  0.058
   11  0.000  0.001  0.037  0.038
   12  0.002  0.001  0.050  0.053
   13  0.000  0.001  0.037  0.038
   14  0.000  0.000  0.037  0.037
   15  0.002  0.000  0.021  0.023
   16  0.002  0.001  0.050  0.053
   17  0.002  0.000  0.021  0.023
   18  0.001  0.000  0.019  0.020
   19  0.001  0.001  0.054  0.056
   20  0.001  0.000  0.024  0.026
   21  0.001  0.000  0.021  0.022
   22  0.000  0.001  0.040  0.040
   23  0.001  0.000  0.021  0.022
   24  0.000  0.001  0.038  0.039
   25  0.002  0.001  0.049  0.051
   26  0.001  0.001  0.054  0.056
   27  0.000  0.001  0.040  0.040
   28  0.000  0.000  0.010  0.010
   29  0.000  0.000  0.010  0.010
   30  0.000  0.000  0.009  0.010
   31  0.000  0.000  0.010  0.010
   32  0.000  0.000  0.009  0.009
   33  0.000  0.000  0.009  0.009
   34  0.000  0.000  0.009  0.009
   35  0.004  0.001  0.003  0.008
   36  0.002  0.000  0.001  0.003
   37  0.000  0.000  0.000  0.000
tot    0.029  0.016  0.812  0.858
 
band    20 # energy   -4.86963141 # occ.  2.00000000
 
ion      s      p      d    tot
    1  0.000  0.000  0.002  0.002
    2  0.001  0.001  0.009  0.010
    3  0.000  0.000  0.009  0.009
    4  0.001  0.001  0.009  0.010
    5  0.000  0.000  0.008  0.009
    6  0.001  0.001  0.004  0.006
    7  0.000  0.000  0.009  0.009
    8  0.001  0.001  0.004  0.006
    9  0.000  0.001  0.018  0.018
   10  0.001  0.001  0.026  0.028
   11  0.000  0.000  0.072  0.072
   12  0.000  0.000  0.015  0.015
   13  0.000  0.000  0.071  0.072
   14  0.001  0.000  0.027  0.028
   15  0.001  0.000  0.046  0.047
   16  0.000  0.000  0.014  0.015
   17  0.001  0.000  0.046  0.047
   18  0.003  0.000  0.050  0.053
   19  0.000  0.000  0.006  0.007
   20  0.004  0.000  0.041  0.046
   21  0.001  0.000  0.055  0.056
   22  0.000  0.000  0.055  0.056
   23  0.001  0.000  0.055  0.056
   24  0.001  0.000  0.025  0.026
   25  0.001  0.001  0.031  0.033
   26  0.000  0.000  0.006  0.007
   27  0.000  0.000  0.056  0.056
   28  0.000  0.000  0.003  0.004
   29  0.000  0.000  0.006  0.006
   30  0.001  0.001  0.008  0.009
   31  0.000  0.000  0.006  0.006
   32  0.002  0.001  0.005  0.008
   33  0.001  0.001  0.008  0.009
   34  0.002  0.001  0.005  0.008
   35  0.000  0.000  0.006  0.006
   36  0.000  0.001  0.004  0.005
   37  0.000  0.001  0.000  0.001
tot    0.026  0.016  0.821  0.863
 
band    21 # energy   -4.86960141 # occ.  2.00000000
 
ion      s      p      d    tot
    1  0.000  0.000  0.002  0.002
    2  0.001  0.000  0.006  0.007
    3  0.002  0.001  0.006  0.009
    4  0.001  0.000  0.006  0.007
    5  0.000  0.000  0.008  0.009
    6  0.000  0.000  0.010  0.011
    7  0.002  0.001  0.006  0.009
    8  0.000  0.000  0.010  0.011
    9  0.000  0.001  0.018  0.018
   10  0.000  0.000  0.007  0.007
   11  0.000  0.000  0.042  0.043
   12  0.001  0.001  0.023  0.025
   13  0.000  0.000  0.042  0.043
   14  0.000  0.000  0.087  0.087
   15  0.002  0.000  0.048  0.050
   16  0.001  0.001  0.024  0.025
   17  0.002  0.000  0.048  0.050
   18  0.000  0.000  0.046  0.046
   19  0.001  0.001  0.021  0.023
   20  0.000  0.000  0.058  0.058
   21  0.003  0.000  0.047  0.050
   22  0.001  0.000  0.035  0.036
   23  0.003  0.000  0.047  0.051
   24  0.000  0.000  0.066  0.066
   25  0.000  0.000  0.001  0.001
   26  0.001  0.001  0.021  0.023
   27  0.001  0.000  0.035  0.036
   28  0.000  0.000  0.004  0.004
   29  0.002  0.001  0.006  0.009
   30  0.001  0.000  0.005  0.006
   31  0.002  0.001  0.006  0.009
   32  0.000  0.000  0.008  0.008
   33  0.001  0.000  0.005  0.006
   34  0.000  0.000  0.008  0.008
   35  0.000  0.000  0.006  0.006
   36  0.000  0.001  0.004  0.005