PROCAR new format
# of k-points:   10         # of bands:  252         # of ions:   38

 k-point     1 :    0.00000000 0.00000000 0.00000000     weight = 0.01562500

band     1 # energy  -22.77263297 # occ.  2.00000000
 
ion      s      p      d    tot
    1  0.000  0.000  0.000  0.000
    2  0.000  0.000  0.000  0.000
    3  0.000  0.000  0.000  0.000
    4  0.000  0.000  0.000  0.000
    5  0.000  0.000  0.000  0.000
    6  0.000  0.000  0.000  0.000
    7  0.000  0.000  0.000  0.000
    8  0.000  0.000  0.000  0.000
    9  0.000  0.000  0.000  0.000
   10  0.000  0.000  0.000  0.000
   11  0.000  0.000  0.000  0.000
   12  0.000  0.000  0.000  0.000
   13  0.000  0.000  0.000  0.000
   14  0.000  0.000  0.000  0.000
   15  0.000  0.000  0.000  0.000
   16  0.000  0.000  0.000  0.000
   17  0.000  0.000  0.000  0.000
   18  0.000  0.000  0.000  0.000
   19  0.000  0.000  0.000  0.000
   20  0.000  0.000  0.000  0.000
   21  0.000  0.000  0.000  0.000
   22  0.000  0.000  0.000  0.000
   23  0.000  0.000  0.000  0.000
   24  0.000  0.000  0.000  0.000
   25  0.000  0.000  0.000  0.000
   26  0.000  0.000  0.000  0.000
   27  0.000  0.000  0.000  0.000
   28  0.000  0.000  0.000  0.000
   29  0.000  0.000  0.000  0.000
   30  0.000  0.000  0.000  0.000
   31  0.000  0.000  0.000  0.000
   32  0.000  0.000  0.000  0.000
   33  0.000  0.000  0.000  0.000
   34  0.000  0.000  0.000  0.000
   35  0.000  0.000  0.000  0.000
   36  0.000  0.000  0.000  0.001
   37  0.157  0.113  0.000  0.270
   38  0.636  0.093  0.000  0.730
tot    0.793  0.207  0.000  1.000
 
band     2 # energy   -8.86096641 # occ.  2.00000000
 
ion      s      p      d    tot
    1  0.001  0.000  0.000  0.002
    2  0.001  0.000  0.000  0.002
    3  0.001  0.000  0.000  0.002
    4  0.001  0.000  0.000  0.002
    5  0.001  0.000  0.000  0.002
    6  0.001  0.000  0.000  0.002
    7  0.001  0.000  0.000  0.002
    8  0.001  0.000  0.000  0.002
    9  0.001  0.000  0.000  0.002
   10  0.006  0.000  0.000  0.006
   11  0.007  0.000  0.000  0.007
   12  0.006  0.000  0.000  0.006
   13  0.007  0.000  0.000  0.007
   14  0.007  0.000  0.000  0.007
   15  0.006  0.000  0.000  0.006
   16  0.006  0.000  0.000  0.006
   17  0.006  0.000  0.000  0.006
   18  0.006  0.000  0.000  0.006
   19  0.008  0.000  0.000  0.008
   20  0.013  0.000  0.000  0.013
   21  0.013  0.000  0.000  0.013
   22  0.008  0.000  0.000  0.008
   23  0.013  0.000  0.000  0.013
   24  0.008  0.000  0.000  0.008
   25  0.008  0.000  0.000  0.008
   26  0.008  0.000  0.000  0.008
   27  0.008  0.000  0.000  0.008
   28  0.003  0.000  0.000  0.003
   29  0.005  0.000  0.000  0.005
   30  0.005  0.000  0.000  0.005
   31  0.005  0.000  0.000  0.005
   32  0.005  0.000  0.000  0.005
   33  0.005  0.000  0.000  0.005
   34  0.005  0.000  0.000  0.005
   35  0.003  0.000  0.000  0.003
   36  0.069  0.018  0.071  0.158
   37  0.192  0.011  0.000  0.203
   38  0.084  0.105  0.000  0.189
tot    0.536  0.139  0.073  0.748
 
band     3 # energy   -8.56452914 # occ.  2.00000000
 
ion      s      p      d    tot
    1  0.006  0.001  0.000  0.007
    2  0.006  0.001  0.000  0.007
    3  0.006  0.001  0.000  0.007
    4  0.006  0.001  0.000  0.007
    5  0.006  0.001  0.000  0.007
    6  0.006  0.001  0.000  0.007
    7  0.006  0.001  0.000  0.007
    8  0.006  0.001  0.000  0.007
    9  0.006  0.001  0.000  0.007
   10  0.020  0.000  0.000  0.020
   11  0.019  0.000  0.000  0.019
   12  0.020  0.000  0.000  0.020
   13  0.019  0.000  0.000  0.019
   14  0.019  0.000  0.000  0.019
   15  0.020  0.000  0.000  0.020
   16  0.020  0.000  0.000  0.020
   17  0.020  0.000  0.000  0.020
   18  0.020  0.000  0.000  0.020
   19  0.016  0.000  0.000  0.016
   20  0.012  0.001  0.000  0.013
   21  0.012  0.001  0.000  0.013
   22  0.015  0.000  0.000  0.016
   23  0.012  0.001  0.000  0.013
   24  0.015  0.000  0.000  0.016
   25  0.016  0.000  0.000  0.016
   26  0.016  0.000  0.000  0.016
   27  0.015  0.000  0.000  0.016
   28  0.003  0.000  0.000  0.004
   29  0.002  0.001  0.000  0.003
   30  0.002  0.001  0.000  0.003
   31  0.002  0.001  0.000  0.003
   32  0.002  0.001  0.000  0.003
   33  0.002  0.001  0.000  0.003
   34  0.002  0.001  0.000  0.003
   35  0.003  0.000  0.000  0.004
   36  0.005  0.018  0.031  0.054
   37  0.095  0.002  0.000  0.097
   38  0.047  0.072  0.000  0.119
tot    0.523  0.107  0.033  0.663
 
band     4 # energy   -7.33714974 # occ.  2.00000000
 
ion      s      p      d    tot
    1  0.018  0.001  0.001  0.019
    2  0.017  0.001  0.001  0.019
    3  0.017  0.001  0.001  0.019
    4  0.017  0.001  0.001  0.019
    5  0.018  0.001  0.001  0.019
    6  0.017  0.001  0.001  0.019
    7  0.017  0.001  0.001  0.019
    8  0.017  0.001  0.001  0.019
    9  0.017  0.001  0.001  0.019
   10  0.009  0.002  0.001  0.011
   11  0.009  0.002  0.000  0.012
   12  0.009  0.002  0.001  0.011
   13  0.009  0.002  0.000  0.012
   14  0.009  0.002  0.000  0.012
   15  0.008  0.002  0.001  0.011
   16  0.009  0.002  0.001  0.011
   17  0.008  0.002  0.001  0.011
   18  0.008  0.002  0.001  0.011
   19  0.012  0.002  0.001  0.015
   20  0.009  0.002  0.001  0.012
   21  0.009  0.002  0.001  0.012
   22  0.012  0.002  0.001  0.014
   23  0.009  0.002  0.001  0.012
   24  0.012  0.002  0.001  0.014
   25  0.012  0.002  0.001  0.015
   26  0.012  0.002  0.001  0.015
   27  0.012  0.002  0.001  0.014
   28  0.019  0.001  0.000  0.021
   29  0.017  0.001  0.000  0.018
   30  0.017  0.001  0.000  0.018
   31  0.017  0.001  0.000  0.018
   32  0.017  0.001  0.000  0.018
   33  0.017  0.001  0.000  0.018
   34  0.017  0.001  0.000  0.018
   35  0.019  0.001  0.000  0.020
   36  0.017  0.002  0.002  0.021
   37  0.004  0.003  0.000  0.007
   38  0.006  0.022  0.000  0.027
tot    0.501  0.078  0.020  0.600
 
band     5 # energy   -6.20852712 # occ.  2.00000000
 
ion      s      p      d    tot
    1  0.000  0.000  0.000  0.000
    2  0.001  0.000  0.000  0.001
    3  0.001  0.000  0.000  0.001
    4  0.001  0.000  0.000  0.001
    5  0.002  0.000  0.000  0.002
    6  0.001  0.000  0.000  0.001
    7  0.001  0.000  0.000  0.001
    8  0.001  0.000  0.000  0.001
    9  0.000  0.000  0.000  0.000
   10  0.000  0.000  0.000  0.001
   11  0.001  0.000  0.000  0.002
   12  0.000  0.000  0.000  0.001
   13  0.001  0.000  0.000  0.002
   14  0.001  0.000  0.000  0.002
   15  0.001  0.000  0.000  0.002
   16  0.000  0.000  0.000  0.001
   17  0.001  0.000  0.000  0.002
   18  0.001  0.000  0.000  0.002
   19  0.004  0.000  0.001  0.005
   20  0.003  0.003  0.005  0.011
   21  0.003  0.003  0.005  0.011
   22  0.003  0.001  0.000  0.005
   23  0.003  0.003  0.005  0.011
   24  0.003  0.001  0.000  0.005
   25  0.004  0.000  0.001  0.005
   26  0.004  0.000  0.001  0.005
   27  0.003  0.001  0.000  0.005
   28  0.002  0.000  0.000  0.002
   29  0.000  0.001  0.000  0.001
   30  0.000  0.001  0.000  0.001
   31  0.000  0.001  0.000  0.001
   32  0.000  0.001  0.000  0.001
   33  0.000  0.001  0.000  0.001
   34  0.000  0.001  0.000  0.001
   35  0.003  0.000  0.000  0.003
   36  0.068  0.018  0.177  0.263
   37  0.008  0.203  0.000  0.212
   38  0.032  0.305  0.000  0.337
tot    0.157  0.547  0.202  0.906
 
band     6 # energy   -5.80356439 # occ.  2.00000000
 
ion      s      p      d    tot
    1  0.000  0.000  0.000  0.000
    2  0.000  0.000  0.000  0.001
    3  0.000  0.000  0.000  0.000
    4  0.000  0.000  0.000  0.001
    5  0.000  0.000  0.000  0.000
    6  0.000  0.000  0.000  0.000
    7  0.000  0.000  0.000  0.000
    8  0.000  0.000  0.000  0.000
    9  0.000  0.000  0.000  0.000
   10  0.003  0.000  0.000  0.003
   11  0.000  0.001  0.000  0.001
   12  0.001  0.000  0.001  0.001
   13  0.000  0.001  0.000  0.001
   14  0.001  0.000  0.000  0.001
   15  0.000  0.000  0.000  0.001
   16  0.001  0.000  0.001  0.001
   17  0.000  0.000  0.000  0.001
   18  0.000  0.000  0.000  0.001
   19  0.000  0.000  0.000  0.001
   20  0.004  0.000  0.001  0.006
   21  0.001  0.000  0.002  0.003
   22  0.000  0.000  0.000  0.001
   23  0.001  0.000  0.002  0.003
   24  0.000  0.000  0.000  0.001
   25  0.001  0.000  0.000  0.002
   26  0.000  0.000  0.000  0.001
   27  0.000  0.000  0.000  0.001
   28  0.000  0.000  0.000  0.000
   29  0.000  0.001  0.002  0.002
   30  0.000  0.000  0.000  0.001
   31  0.000  0.001  0.002  0.002
   32  0.000  0.000  0.002  0.003
   33  0.000  0.000  0.000  0.001
   34  0.000  0.000  0.002  0.003
   35  0.000  0.000  0.000  0.000
   36  0.000  0.003  0.053  0.056
   37  0.000  0.174  0.000  0.174
   38  0.000  0.406  0.000  0.406
tot    0.018  0.589  0.073  0.679
 
band     7 # energy   -5.80348377 # occ.  2.00000000
 
ion      s      p      d    tot
    1  0.000  0.000  0.000  0.000
    2  0.000  0.000  0.000  0.000
    3  0.000  0.000  0.000  0.001
    4  0.000  0.000  0.000  0.000
    5  0.000  0.000  0.000  0.000
    6  0.000  0.000  0.000  0.000
    7  0.000  0.000  0.000  0.001
    8  0.000  0.000  0.000  0.000
    9  0.000  0.000  0.000  0.000
   10  0.000  0.000  0.001  0.001
   11  0.001  0.000  0.000  0.001
   12  0.002  0.000  0.000  0.003
   13  0.001  0.000  0.000  0.001
   14  0.000  0.001  0.000  0.001
   15  0.000  0.000  0.000  0.001
   16  0.002  0.000  0.000  0.003
   17  0.000  0.000  0.000  0.001
   18  0.000  0.000  0.000  0.001
   19  0.001  0.000  0.000  0.002
   20  0.000  0.000  0.002  0.002
   21  0.003  0.000  0.001  0.005
   22  0.000  0.000  0.000  0.001
   23  0.003  0.000  0.001  0.005
   24  0.000  0.000  0.000  0.001
   25  0.000  0.001  0.000  0.001
   26  0.001  0.000  0.000  0.002
   27  0.000  0.000  0.000  0.001
   28  0.000  0.000  0.000  0.000
   29  0.000  0.000  0.001  0.002
   30  0.000  0.001  0.002  0.003
   31  0.000  0.000  0.001  0.002
   32  0.000  0.000  0.001  0.001
   33  0.000  0.001  0.002  0.003
   34  0.000  0.000  0.001  0.001
   35  0.000  0.000  0.000  0.000
   36  0.000  0.003  0.053  0.056
   37  0.000  0.174  0.000  0.174
   38  0.000  0.406  0.000  0.406
tot    0.018  0.589  0.073  0.679
 
band     8 # energy   -5.76050290 # occ.  2.00000000
 
ion      s      p      d    tot
    1  0.017  0.000  0.006  0.022
    2  0.015  0.000  0.006  0.021
    3  0.015  0.000  0.006  0.021
    4  0.015  0.000  0.006  0.021
    5  0.006  0.000  0.007  0.013
    6  0.015  0.000  0.006  0.021
    7  0.015  0.000  0.006  0.021
    8  0.015  0.000  0.006  0.021
    9  0.025  0.000  0.004  0.029
   10  0.003  0.003  0.003  0.009
   11  0.012  0.005  0.001  0.018
   12  0.003  0.003  0.003  0.009
   13  0.012  0.005  0.001  0.018
   14  0.012  0.005  0.001  0.018
   15  0.000  0.003  0.004  0.007
   16  0.003  0.003  0.003  0.009
   17  0.000  0.003  0.004  0.007
   18  0.000  0.003  0.004  0.007
   19  0.001  0.003  0.005  0.008
   20  0.017  0.004  0.002  0.023
   21  0.017  0.004  0.002  0.023
   22  0.001  0.004  0.003  0.008
   23  0.017  0.004  0.002  0.023
   24  0.001  0.004  0.003  0.008
   25  0.001  0.003  0.005  0.008
   26  0.001  0.003  0.005  0.008
   27  0.001  0.004  0.003  0.008
   28  0.021  0.000  0.005  0.026
   29  0.016  0.000  0.006  0.023
   30  0.016  0.000  0.006  0.023
   31  0.016  0.000  0.006  0.023
   32  0.016  0.000  0.006  0.023
   33  0.016  0.000  0.006  0.023
   34  0.016  0.000  0.006  0.023
   35  0.025  0.000  0.005  0.030
   36  0.007  0.003  0.014  0.024
   37  0.000  0.001  0.000  0.001
   38  0.000  0.004  0.000  0.004
tot    0.385  0.076  0.171  0.632
 
band     9 # energy   -5.68810690 # occ.  2.00000000
 
ion      s      p      d    tot
    1  0.000  0.003  0.005  0.008
    2  0.009  0.002  0.002  0.014
    3  0.003  0.001  0.002  0.007
    4  0.009  0.002  0.002  0.014
    5  0.000  0.002  0.003  0.004
    6  0.002  0.001  0.002  0.005
    7  0.003  0.001  0.002  0.006
    8  0.001  0.001  0.002  0.005
    9  0.000  0.000  0.003  0.003
   10  0.059  0.004  0.004  0.066
   11  0.004  0.010  0.003  0.016
   12  0.015  0.004  0.011  0.029
   13  0.004  0.010  0.003  0.016
   14  0.015  0.000  0.006  0.021
   15  0.003  0.003  0.009  0.016
   16  0.014  0.004  0.011  0.029
   17  0.004  0.003  0.009  0.016
   18  0.014  0.003  0.002  0.020
   19  0.009  0.009  0.005  0.023
   20  0.053  0.005  0.003  0.060
   21  0.013  0.001  0.013  0.028
   22  0.000  0.006  0.005  0.012
   23  0.013  0.001  0.013  0.027
   24  0.001  0.002  0.004  0.006
   25  0.038  0.001  0.006  0.045
   26  0.010  0.009  0.005  0.023
   27  0.000  0.006  0.005  0.012
   28  0.000  0.003  0.004  0.007
   29  0.010  0.002  0.002  0.015
   30  0.006  0.002  0.002  0.010
   31  0.010  0.002  0.002  0.015
   32  0.001  0.001  0.002  0.003
   33  0.006  0.002  0.002  0.010
   34  0.001  0.001  0.002  0.003
   35  0.000  0.000  0.003  0.003
   36  0.000  0.006  0.007  0.013
   37  0.000  0.009  0.000  0.009
   38  0.000  0.024  0.000  0.024
tot    0.330  0.145  0.169  0.644
 
band    10 # energy   -5.68800390 # occ.  2.00000000
 
ion      s      p      d    tot
    1  0.000  0.003  0.005  0.008
    2  0.000  0.001  0.002  0.003
    3  0.006  0.002  0.002  0.010
    4  0.000  0.001  0.002  0.003
    5  0.000  0.002  0.003  0.004
    6  0.008  0.002  0.002  0.012
    7  0.006  0.002  0.002  0.010
    8  0.008  0.002  0.002  0.012
    9  0.000  0.000  0.003  0.003
   10  0.000  0.004  0.013  0.017
   11  0.011  0.003  0.005  0.019
   12  0.044  0.004  0.006  0.054
   13  0.011  0.003  0.005  0.019
   14  0.000  0.013  0.002  0.014
   15  0.011  0.003  0.005  0.019
   16  0.044  0.004  0.006  0.054
   17  0.011  0.003  0.005  0.019
   18  0.000  0.003  0.011  0.014
   19  0.029  0.003  0.006  0.038
   20  0.000  0.000  0.016  0.017
   21  0.039  0.003  0.007  0.049
   22  0.001  0.003  0.004  0.008
   23  0.040  0.004  0.006  0.050
   24  0.000  0.008  0.006  0.014
   25  0.000  0.011  0.004  0.016
   26  0.028  0.004  0.006  0.038
   27  0.001  0.003  0.004  0.008
   28  0.000  0.003  0.004  0.007
   29  0.001  0.001  0.002  0.004
   30  0.005  0.002  0.002  0.009
   31  0.001  0.001  0.002  0.004
   32  0.011  0.002  0.003  0.016
   33  0.005  0.002  0.002  0.009
   34  0.011  0.002  0.003  0.016
   35  0.000  0.000  0.003  0.003
   36  0.000  0.006  0.007  0.013
   37  0.000  0.009  0.000  0.009
   38  0.000  0.024  0.000  0.024
tot    0.330  0.145  0.169  0.644
 
band    11 # energy   -5.66677821 # occ.  2.00000000
 
ion      s      p      d    tot
    1  0.021  0.003  0.001  0.026
    2  0.000  0.002  0.004  0.006
    3  0.000  0.002  0.004  0.006
    4  0.000  0.002  0.004  0.006
    5  0.001  0.000  0.000  0.002
    6  0.000  0.002  0.004  0.006
    7  0.000  0.002  0.004  0.006
    8  0.000  0.002  0.004  0.006
    9  0.010  0.002  0.000  0.012
   10  0.030  0.006  0.006  0.042
   11  0.005  0.000  0.012  0.017
   12  0.030  0.006  0.006  0.042
   13  0.005  0.000  0.012  0.017
   14  0.004  0.000  0.012  0.016
   15  0.012  0.008  0.003  0.023
   16  0.030  0.006  0.006  0.042
   17  0.012  0.008  0.003  0.023
   18  0.013  0.008  0.003  0.025
   19  0.022  0.009  0.002  0.033
   20  0.000  0.002  0.010  0.013
   21  0.000  0.002  0.010  0.012
   22  0.025  0.002  0.009  0.036
   23  0.000  0.002  0.010  0.012
   24  0.023  0.002  0.009  0.035
   25  0.021  0.009  0.002  0.033
   26  0.022  0.009  0.002  0.033
   27  0.025  0.002  0.009  0.036
   28  0.018  0.003  0.000  0.021
   29  0.000  0.002  0.004  0.006
   30  0.000  0.002  0.004  0.006
   31  0.000  0.002  0.004  0.006
   32  0.000  0.002  0.004  0.006
   33  0.000  0.002  0.004  0.006
   34  0.000  0.002  0.004  0.006
   35  0.013  0.002  0.001  0.017
   36  0.000  0.000  0.000  0.000
   37  0.000  0.000  0.000  0.000
   38  0.000  0.000  0.000  0.000
tot    0.346  0.115  0.177  0.639
 
band    12 # energy   -5.66424505 # occ.  2.00000000
 
ion      s      p      d    tot
    1  0.000  0.000  0.002  0.003
    2  0.010  0.002  0.003  0.015
    3  0.004  0.001  0.002  0.007
    4  0.010  0.002  0.003  0.015
    5  0.000  0.002  0.005  0.007
    6  0.002  0.001  0.002  0.005
    7  0.004  0.001  0.002  0.007
    8  0.002  0.001  0.002  0.005
    9  0.000  0.003  0.005  0.008
   10  0.000  0.010  0.005  0.014
   11  0.035  0.004  0.006  0.045
   12  0.000  0.003  0.005  0.008
   13  0.035  0.004  0.006  0.044
   14  0.000  0.000  0.017  0.017
   15  0.035  0.004  0.006  0.045
   16  0.000  0.003  0.005  0.008
   17  0.034  0.004  0.006  0.044
   18  0.000  0.011  0.006  0.017
   19  0.018  0.004  0.005  0.026
   20  0.000  0.014  0.001  0.015
   21  0.007  0.004  0.005  0.016
   22  0.046  0.004  0.007  0.056
   23  0.007  0.004  0.005  0.016
   24  0.000  0.006  0.012  0.017
   25  0.000  0.002  0.014  0.016
   26  0.017  0.003  0.005  0.026
   27  0.047  0.004  0.006  0.057
   28  0.000  0.001  0.004  0.004
   29  0.010  0.002  0.002  0.015
   30  0.005  0.002  0.003  0.010
   31  0.010  0.002  0.002  0.015
   32  0.001  0.001  0.002  0.004
   33  0.005  0.002  0.003  0.009
   34  0.001  0.001  0.002  0.004
   35  0.000  0.004  0.006  0.009
   36  0.000  0.003  0.006  0.009
   37  0.000  0.000  0.000  0.000
   38  0.000  0.001  0.000  0.001
tot    0.343  0.118  0.179  0.641
 
band    13 # energy   -5.66414366 # occ.  2.00000000
 
ion      s      p      d    tot
    1  0.000  0.000  0.002  0.003
    2  0.000  0.001  0.002  0.003
    3  0.006  0.002  0.002  0.011
    4  0.000  0.001  0.002  0.003
    5  0.000  0.002  0.005  0.007
    6  0.009  0.002  0.002  0.013
    7  0.007  0.002  0.002  0.011
    8  0.009  0.002  0.002  0.013
    9  0.000  0.003  0.005  0.008
   10  0.000  0.001  0.005  0.006
   11  0.011  0.001  0.013  0.025
   12  0.000  0.008  0.005  0.012
   13  0.012  0.001  0.013  0.026
   14  0.047  0.005  0.002  0.054
   15  0.012  0.008  0.006  0.026
   16  0.000  0.008  0.005  0.012
   17  0.012  0.008  0.006  0.027
   18  0.046  0.001  0.006  0.053
   19  0.005  0.002  0.011  0.019
   20  0.009  0.000  0.006  0.016
   21  0.002  0.010  0.003  0.015
   22  0.015  0.005  0.010  0.030
   23  0.002  0.011  0.003  0.015
   24  0.063  0.003  0.005  0.070
   25  0.024  0.004  0.002  0.030
   26  0.006  0.002  0.011  0.019
   27  0.014  0.005  0.010  0.029
   28  0.000  0.001  0.004  0.004
   29  0.000  0.001  0.003  0.004
   30  0.006  0.002  0.002  0.009
   31  0.001  0.001  0.003  0.004
   32  0.010  0.003  0.003  0.015
   33  0.006  0.002  0.002  0.010
   34  0.010  0.003  0.003  0.015
   35  0.000  0.004  0.006  0.009
   36  0.000  0.003  0.006  0.009
   37  0.000  0.000  0.000  0.000
   38  0.000  0.001  0.000  0.001
tot    0.344  0.118  0.179  0.641
 
band    14 # energy   -5.52052348 # occ.  2.00000000
 
ion      s      p      d    tot
    1  0.000  0.000  0.001  0.001
    2  0.001  0.002  0.006  0.010
    3  0.001  0.002  0.006  0.010
    4  0.001  0.002  0.006  0.010
    5  0.040  0.004  0.000  0.044
    6  0.001  0.002  0.006  0.010
    7  0.001  0.002  0.006  0.010
    8  0.001  0.002  0.006  0.010
    9  0.006  0.002  0.004  0.012
   10  0.003  0.004  0.009  0.016
   11  0.022  0.009  0.003  0.034
   12  0.003  0.004  0.009  0.016
   13  0.022  0.009  0.003  0.034
   14  0.022  0.009  0.003  0.034
   15  0.027  0.002  0.012  0.041
   16  0.003  0.004  0.009  0.016
   17  0.027  0.002  0.012  0.041
   18  0.027  0.002  0.012  0.041
   19  0.005  0.002  0.007  0.014
   20  0.013  0.002  0.009  0.025
   21  0.013  0.002  0.009  0.025
   22  0.005  0.006  0.005  0.016
   23  0.013  0.002  0.009  0.025
   24  0.005  0.006  0.005  0.015
   25  0.005  0.002  0.007  0.014
   26  0.005  0.002  0.007  0.014
   27  0.005  0.006  0.005  0.016
   28  0.001  0.000  0.003  0.004
   29  0.003  0.000  0.003  0.006
   30  0.003  0.000  0.003  0.006
   31  0.003  0.000  0.003  0.006
   32  0.003  0.000  0.003  0.006
   33  0.003  0.000  0.003  0.006
   34  0.003  0.000  0.003  0.006
   35  0.000  0.000  0.002  0.002
   36  0.002  0.012  0.031  0.045
   37  0.004  0.018  0.000  0.022
   38  0.001  0.017  0.000  0.018
tot    0.308  0.144  0.230  0.682
 
band    15 # energy   -4.93614322 # occ.  2.00000000
 
ion      s      p      d    tot
    1  0.000  0.004  0.011  0.014
    2  0.018  0.003  0.005  0.026
    3  0.001  0.002  0.005  0.007
    4  0.018  0.003  0.005  0.026
    5  0.000  0.000  0.011  0.011
    6  0.012  0.003  0.005  0.020
    7  0.001  0.002  0.005  0.007
    8  0.012  0.003  0.005  0.020
    9  0.000  0.005  0.008  0.013
   10  0.000  0.004  0.021  0.025
   11  0.003  0.002  0.010  0.015
   12  0.006  0.002  0.010  0.017
   13  0.003  0.002  0.010  0.015
   14  0.000  0.002  0.014  0.016
   15  0.017  0.004  0.010  0.031
   16  0.006  0.002  0.010  0.017
   17  0.018  0.004  0.009  0.031
   18  0.000  0.000  0.022  0.022
   19  0.011  0.004  0.010  0.025
   20  0.000  0.003  0.016  0.019
   21  0.000  0.001  0.012  0.013
   22  0.009  0.003  0.009  0.021
   23  0.000  0.001  0.012  0.013
   24  0.000  0.002  0.027  0.029
   25  0.000  0.000  0.016  0.016
   26  0.011  0.004  0.010  0.025
   27  0.009  0.003  0.009  0.021
   28  0.000  0.004  0.008  0.012
   29  0.020  0.003  0.007  0.030
   30  0.000  0.002  0.007  0.010
   31  0.020  0.003  0.007  0.030
   32  0.016  0.002  0.007  0.025
   33  0.000  0.002  0.007  0.010
   34  0.016  0.002  0.007  0.025
   35  0.000  0.005  0.009  0.015
   36  0.000  0.000  0.029  0.029
   37  0.000  0.000  0.000  0.000
   38  0.000  0.000  0.000  0.000
tot    0.230  0.093  0.385  0.707
 
band    16 # energy   -4.93611991 # occ.  2.00000000
 
ion      s      p      d    tot
    1  0.000  0.004  0.011  0.014
    2  0.002  0.002  0.005  0.009
    3  0.020  0.004  0.005  0.029
    4  0.003  0.002  0.005  0.009
    5  0.000  0.000  0.011  0.011
    6  0.008  0.002  0.005  0.015
    7  0.020  0.004  0.005  0.029
    8  0.008  0.002  0.005  0.015
    9  0.000  0.005  0.008  0.013
   10  0.008  0.001  0.006  0.015
   11  0.001  0.002  0.013  0.016
   12  0.002  0.003  0.017  0.022
   13  0.001  0.002  0.013  0.016
   14  0.004  0.002  0.008  0.014
   15  0.006  0.002  0.018  0.025
   16  0.002  0.003  0.017  0.022
   17  0.006  0.001  0.018  0.025
   18  0.023  0.005  0.005  0.034
   19  0.004  0.001  0.014  0.019
   20  0.000  0.001  0.010  0.011
   21  0.000  0.002  0.015  0.017
   22  0.003  0.002  0.021  0.027
   23  0.000  0.002  0.015  0.017
   24  0.012  0.003  0.003  0.018
   25  0.015  0.006  0.008  0.028
   26  0.004  0.001  0.014  0.019
   27  0.003  0.002  0.021  0.027
   28  0.000  0.004  0.008  0.012
   29  0.004  0.002  0.007  0.013
   30  0.024  0.003  0.007  0.034
   31  0.004  0.002  0.007  0.013
   32  0.008  0.003  0.007  0.018
   33  0.024  0.003  0.007  0.034
   34  0.008  0.003  0.007  0.018
   35  0.000  0.005  0.009  0.015
   36  0.000  0.000  0.029  0.029
   37  0.000  0.000  0.000  0.000
   38  0.000  0.000  0.000  0.000
tot    0.230  0.093  0.385  0.707
 
band    17 # energy   -4.92992095 # occ.  2.00000000
 
ion      s      p      d    tot
    1  0.003  0.001  0.010  0.014
    2  0.005  0.001  0.009  0.015
    3  0.005  0.001  0.009  0.014
    4  0.005  0.001  0.009  0.015
    5  0.002  0.001  0.009  0.012
    6  0.005  0.001  0.009  0.015
    7  0.005  0.001  0.009  0.014
    8  0.005  0.001  0.009  0.015
    9  0.012  0.000  0.008  0.020
   10  0.008  0.000  0.025  0.033
   11  0.008  0.000  0.022  0.030
   12  0.008  0.000  0.025  0.033
   13  0.008  0.000  0.022  0.030
   14  0.008  0.000  0.022  0.030
   15  0.003  0.000  0.023  0.026
   16  0.008  0.000  0.025  0.033
   17  0.003  0.000  0.023  0.026
   18  0.004  0.000  0.023  0.027
   19  0.006  0.000  0.021  0.027
   20  0.009  0.000  0.026  0.035
   21  0.009  0.000  0.026  0.035
   22  0.004  0.000  0.021  0.024
   23  0.009  0.000  0.026  0.035
   24  0.003  0.000  0.021  0.024
   25  0.006  0.000  0.021  0.028
   26  0.006  0.000  0.021  0.027
   27  0.004  0.000  0.021  0.024
   28  0.002  0.001  0.008  0.010
   29  0.004  0.000  0.008  0.013
   30  0.004  0.000  0.008  0.012
   31  0.004  0.000  0.008  0.012
   32  0.004  0.000  0.008  0.012
   33  0.004  0.000  0.008  0.012
   34  0.004  0.000  0.008  0.013
   35  0.009  0.000  0.007  0.015
   36  0.004  0.004  0.009  0.017
   37  0.000  0.001  0.000  0.001
   38  0.000  0.002  0.000  0.002
tot    0.202  0.018  0.562  0.781
 
band    18 # energy   -4.90540938 # occ.  2.00000000
 
ion      s      p      d    tot
    1  0.035  0.003  0.000  0.039
    2  0.000  0.003  0.010  0.013
    3  0.000  0.003  0.010  0.013
    4  0.000  0.003  0.010  0.013
    5  0.000  0.000  0.001  0.001
    6  0.000  0.003  0.010  0.013
    7  0.000  0.003  0.010  0.013
    8  0.000  0.003  0.010  0.013
    9  0.028  0.004  0.001  0.033
   10  0.007  0.004  0.011  0.022
   11  0.001  0.000  0.015  0.016
   12  0.008  0.004  0.011  0.022
   13  0.001  0.000  0.015  0.016
   14  0.001  0.000  0.015  0.016
   15  0.007  0.003  0.018  0.028
   16  0.008  0.004  0.011  0.022
   17  0.007  0.003  0.018  0.028
   18  0.007  0.003  0.018  0.028
   19  0.005  0.004  0.018  0.026
   20  0.000  0.000  0.015  0.015
   21  0.000  0.000  0.015  0.015
   22  0.012  0.003  0.010  0.026
   23  0.000  0.000  0.015  0.015
   24  0.013  0.003  0.010  0.026
   25  0.005  0.004  0.018  0.026
   26  0.005  0.004  0.018  0.026
   27  0.012  0.003  0.010  0.026
   28  0.037  0.003  0.000  0.041
   29  0.000  0.003  0.010  0.013
   30  0.000  0.003  0.010  0.013
   31  0.000  0.003  0.010  0.013
   32  0.000  0.003  0.010  0.013
   33  0.000  0.003  0.010  0.013
   34  0.000  0.003  0.010  0.013
   35  0.027  0.004  0.002  0.032
   36  0.000  0.000  0.000  0.000
   37  0.000  0.000  0.000  0.000
   38  0.000  0.000  0.000  0.000
tot    0.229  0.092  0.384  0.705
 
band    19 # energy   -4.89645525 # occ.  2.00000000
 
ion      s      p      d    tot
    1  0.000  0.003  0.010  0.012
    2  0.020  0.004  0.006  0.029
    3  0.001  0.002  0.005  0.008
    4  0.020  0.004  0.006  0.029
    5  0.000  0.006  0.010  0.016
    6  0.012  0.003  0.006  0.021
    7  0.001  0.002  0.005  0.008
    8  0.013  0.003  0.006  0.021
    9  0.000  0.001  0.013  0.014
   10  0.015  0.005  0.009  0.030
   11  0.005  0.002  0.023  0.030
   12  0.004  0.001  0.016  0.021
   13  0.004  0.002  0.023  0.030
   14  0.018  0.004  0.005  0.026
   15  0.000  0.003  0.016  0.019
   16  0.004  0.001  0.016  0.021
   17  0.000  0.003  0.016  0.019
   18  0.000  0.000  0.009  0.009
   19  0.001  0.003  0.017  0.021
   20  0.022  0.005  0.004  0.031
   21  0.005  0.002  0.024  0.031
   22  0.002  0.001  0.013  0.017
   23  0.006  0.002  0.024  0.031
   24  0.008  0.003  0.009  0.021
   25  0.003  0.000  0.007  0.010
   26  0.001  0.003  0.018  0.021
   27  0.002  0.002  0.013  0.017
   28  0.000  0.002  0.011  0.013
   29  0.015  0.003  0.006  0.025
   30  0.000  0.001  0.005  0.006
   31  0.015  0.003  0.006  0.024
   32  0.011  0.003  0.006  0.020
   33  0.000  0.001  0.005  0.006
   34  0.012  0.003  0.006  0.021
   35  0.000  0.001  0.009  0.010
   36  0.000  0.010  0.018  0.027
   37  0.000  0.000  0.000  0.000
   38  0.000  0.000  0.000  0.000
tot    0.220  0.096  0.400  0.716
 
band    20 # energy   -4.89640508 # occ.  2.00000000
 
ion      s      p      d    tot
    1  0.000  0.003  0.010  0.012
    2  0.002  0.002  0.006  0.009
    3  0.021  0.004  0.006  0.031
    4  0.002  0.002  0.006  0.010
    5  0.000  0.006  0.010  0.016
    6  0.010  0.003  0.005  0.018
    7  0.021  0.004  0.006  0.031
    8  0.010  0.003  0.005  0.018
    9  0.000  0.001  0.013  0.014
   10  0.000  0.000  0.018  0.018
   11  0.013  0.003  0.011  0.027
   12  0.012  0.004  0.011  0.027
   13  0.013  0.003  0.011  0.027
   14  0.000  0.002  0.029  0.031
   15  0.000  0.001  0.011  0.012
   16  0.011  0.004  0.012  0.027
   17  0.000  0.001  0.011  0.012
   18  0.000  0.004  0.019  0.022
   19  0.002  0.001  0.011  0.014
   20  0.000  0.001  0.030  0.031
   21  0.017  0.004  0.010  0.031
   22  0.006  0.003  0.011  0.019
   23  0.016  0.004  0.011  0.031
   24  0.000  0.001  0.014  0.015
   25  0.000  0.004  0.021  0.025
   26  0.002  0.001  0.010  0.014
   27  0.006  0.003  0.011  0.019
   28  0.000  0.002  0.011  0.013
   29  0.003  0.002  0.005  0.009
   30  0.018  0.004  0.007  0.028
   31  0.003  0.002  0.005  0.010
   32  0.007  0.002  0.005  0.014
   33  0.018  0.004  0.007  0.028
   34  0.006  0.002  0.005  0.014
   35  0.000  0.001  0.009  0.010
   36  0.000  0.010  0.018  0.027
   37  0.000  0.000  0.000  0.000
   38  0.000  0.000  0.000  0.000
tot    0.220  0.096  0.400  0.716
 
band    21 # energy   -4.68941568 # occ.  2.00000000
 
ion      s      p      d    tot
    1  0.016  0.001  0.000  0.018
    2  0.000  0.003  0.012  0.015
    3  0.000  0.003  0.012  0.015
    4  0.000  0.003  0.012  0.015
    5  0.042  0.004  0.000  0.045
    6  0.000  0.003  0.012  0.015
    7  0.000  0.003  0.012  0.015
    8  0.000  0.003  0.012  0.015
    9  0.005  0.001  0.000  0.006
   10  0.000  0.001  0.031  0.032
   11  0.003  0.004  0.024  0.032
   12  0.000  0.001  0.031  0.032
   13  0.003  0.004  0.024  0.032
   14  0.003  0.004  0.024  0.032
   15  0.002  0.001  0.006  0.009
   16  0.000  0.001  0.031  0.032