PROCAR new format
# of k-points:   10         # of bands:  252         # of ions:   37

 k-point     1 :    0.00000000 0.00000000 0.00000000     weight = 0.01562500

band     1 # energy   -8.85196912 # occ.  2.00000000
 
ion      s      p      d    tot
    1  0.006  0.001  0.000  0.007
    2  0.006  0.001  0.000  0.007
    3  0.006  0.001  0.000  0.007
    4  0.006  0.001  0.000  0.007
    5  0.006  0.001  0.000  0.007
    6  0.006  0.001  0.000  0.007
    7  0.006  0.001  0.000  0.007
    8  0.006  0.001  0.000  0.007
    9  0.006  0.001  0.000  0.007
   10  0.024  0.000  0.000  0.024
   11  0.024  0.000  0.000  0.024
   12  0.024  0.000  0.000  0.024
   13  0.024  0.000  0.000  0.024
   14  0.024  0.000  0.000  0.024
   15  0.023  0.000  0.000  0.023
   16  0.024  0.000  0.000  0.024
   17  0.023  0.000  0.000  0.023
   18  0.023  0.000  0.000  0.023
   19  0.024  0.000  0.000  0.024
   20  0.027  0.000  0.000  0.027
   21  0.027  0.000  0.000  0.027
   22  0.024  0.000  0.000  0.024
   23  0.027  0.000  0.000  0.027
   24  0.024  0.000  0.000  0.024
   25  0.024  0.000  0.000  0.024
   26  0.024  0.000  0.000  0.024
   27  0.024  0.000  0.000  0.024
   28  0.007  0.001  0.000  0.008
   29  0.007  0.001  0.000  0.008
   30  0.007  0.001  0.000  0.008
   31  0.007  0.001  0.000  0.008
   32  0.007  0.001  0.000  0.008
   33  0.007  0.001  0.000  0.008
   34  0.007  0.001  0.000  0.008
   35  0.007  0.001  0.000  0.008
   36  0.019  0.001  0.000  0.020
   37  0.000  0.000  0.000  0.001
tot    0.569  0.016  0.001  0.587
 
band     2 # energy   -7.60396671 # occ.  2.00000000
 
ion      s      p      d    tot
    1  0.017  0.001  0.000  0.019
    2  0.017  0.001  0.000  0.019
    3  0.017  0.001  0.000  0.019
    4  0.017  0.001  0.000  0.019
    5  0.017  0.001  0.000  0.018
    6  0.017  0.001  0.000  0.019
    7  0.017  0.001  0.000  0.019
    8  0.017  0.001  0.000  0.019
    9  0.017  0.001  0.000  0.019
   10  0.011  0.002  0.001  0.014
   11  0.011  0.002  0.001  0.014
   12  0.011  0.002  0.001  0.014
   13  0.011  0.002  0.001  0.014
   14  0.011  0.002  0.001  0.014
   15  0.011  0.002  0.001  0.014
   16  0.011  0.002  0.001  0.014
   17  0.011  0.002  0.001  0.014
   18  0.011  0.002  0.001  0.014
   19  0.007  0.002  0.000  0.010
   20  0.009  0.003  0.000  0.012
   21  0.009  0.003  0.000  0.012
   22  0.008  0.002  0.000  0.010
   23  0.009  0.003  0.000  0.012
   24  0.008  0.002  0.000  0.010
   25  0.007  0.002  0.000  0.010
   26  0.007  0.002  0.000  0.010
   27  0.008  0.002  0.000  0.010
   28  0.017  0.001  0.001  0.018
   29  0.019  0.001  0.001  0.020
   30  0.019  0.001  0.001  0.020
   31  0.019  0.001  0.001  0.020
   32  0.019  0.001  0.001  0.020
   33  0.019  0.001  0.001  0.020
   34  0.019  0.001  0.001  0.020
   35  0.016  0.001  0.001  0.018
   36  0.045  0.001  0.001  0.046
   37  0.002  0.000  0.000  0.002
tot    0.523  0.053  0.019  0.595
 
band     3 # energy   -6.00133482 # occ.  2.00000000
 
ion      s      p      d    tot
    1  0.015  0.000  0.006  0.020
    2  0.017  0.000  0.005  0.022
    3  0.017  0.000  0.005  0.022
    4  0.017  0.000  0.005  0.022
    5  0.018  0.000  0.005  0.023
    6  0.017  0.000  0.005  0.022
    7  0.017  0.000  0.005  0.022
    8  0.017  0.000  0.005  0.022
    9  0.018  0.000  0.005  0.023
   10  0.004  0.004  0.001  0.009
   11  0.002  0.004  0.002  0.007
   12  0.004  0.004  0.001  0.009
   13  0.002  0.004  0.002  0.007
   14  0.002  0.004  0.002  0.007
   15  0.002  0.004  0.001  0.007
   16  0.004  0.004  0.001  0.009
   17  0.002  0.004  0.001  0.007
   18  0.002  0.004  0.001  0.007
   19  0.009  0.003  0.003  0.015
   20  0.005  0.003  0.006  0.014
   21  0.005  0.003  0.006  0.014
   22  0.005  0.003  0.003  0.011
   23  0.005  0.003  0.006  0.014
   24  0.005  0.003  0.003  0.011
   25  0.009  0.003  0.003  0.015
   26  0.009  0.003  0.003  0.015
   27  0.005  0.003  0.003  0.011
   28  0.011  0.000  0.007  0.018
   29  0.017  0.000  0.009  0.026
   30  0.017  0.000  0.009  0.026
   31  0.017  0.000  0.009  0.026
   32  0.017  0.000  0.009  0.026
   33  0.017  0.000  0.009  0.026
   34  0.017  0.000  0.009  0.026
   35  0.014  0.000  0.006  0.020
   36  0.041  0.001  0.013  0.055
   37  0.002  0.000  0.000  0.002
tot    0.405  0.064  0.176  0.644
 
band     4 # energy   -5.89404840 # occ.  2.00000000
 
ion      s      p      d    tot
    1  0.002  0.000  0.000  0.002
    2  0.000  0.001  0.003  0.004
    3  0.000  0.001  0.003  0.004
    4  0.000  0.001  0.003  0.004
    5  0.014  0.002  0.001  0.017
    6  0.000  0.001  0.003  0.004
    7  0.000  0.001  0.003  0.004
    8  0.000  0.001  0.003  0.004
    9  0.008  0.001  0.000  0.010
   10  0.001  0.004  0.007  0.011
   11  0.025  0.008  0.002  0.035
   12  0.001  0.004  0.007  0.011
   13  0.025  0.008  0.002  0.035
   14  0.024  0.008  0.002  0.035
   15  0.015  0.001  0.009  0.024
   16  0.001  0.004  0.007  0.011
   17  0.015  0.001  0.009  0.024
   18  0.015  0.001  0.009  0.024
   19  0.011  0.000  0.012  0.023
   20  0.034  0.009  0.005  0.048
   21  0.033  0.009  0.005  0.047
   22  0.007  0.006  0.005  0.018
   23  0.033  0.009  0.005  0.048
   24  0.007  0.006  0.004  0.018
   25  0.011  0.000  0.012  0.023
   26  0.011  0.000  0.012  0.023
   27  0.007  0.006  0.005  0.018
   28  0.008  0.001  0.000  0.009
   29  0.000  0.002  0.005  0.007
   30  0.000  0.002  0.004  0.007
   31  0.000  0.002  0.005  0.007
   32  0.000  0.002  0.004  0.007
   33  0.000  0.002  0.004  0.007
   34  0.000  0.002  0.004  0.007
   35  0.010  0.001  0.000  0.011
   36  0.049  0.004  0.012  0.065
   37  0.006  0.000  0.000  0.006
tot    0.373  0.116  0.176  0.664
 
band     5 # energy   -5.88132293 # occ.  2.00000000
 
ion      s      p      d    tot
    1  0.000  0.002  0.005  0.007
    2  0.009  0.002  0.002  0.013
    3  0.002  0.001  0.002  0.004
    4  0.009  0.002  0.002  0.013
    5  0.000  0.002  0.003  0.005
    6  0.003  0.001  0.002  0.007
    7  0.001  0.001  0.002  0.004
    8  0.003  0.001  0.002  0.006
    9  0.000  0.000  0.002  0.002
   10  0.056  0.005  0.004  0.064
   11  0.005  0.010  0.004  0.020
   12  0.016  0.002  0.011  0.030
   13  0.007  0.009  0.004  0.021
   14  0.026  0.000  0.006  0.033
   15  0.001  0.004  0.007  0.013
   16  0.012  0.002  0.012  0.026
   17  0.002  0.004  0.007  0.013
   18  0.005  0.002  0.003  0.011
   19  0.006  0.010  0.003  0.020
   20  0.068  0.004  0.007  0.079
   21  0.020  0.002  0.015  0.038
   22  0.002  0.005  0.007  0.014
   23  0.015  0.002  0.016  0.033
   24  0.006  0.003  0.003  0.012
   25  0.027  0.000  0.007  0.034
   26  0.008  0.009  0.004  0.021
   27  0.001  0.005  0.008  0.014
   28  0.000  0.003  0.004  0.006
   29  0.011  0.003  0.004  0.017
   30  0.005  0.001  0.003  0.009
   31  0.010  0.003  0.004  0.017
   32  0.002  0.001  0.003  0.006
   33  0.004  0.001  0.003  0.008
   34  0.001  0.001  0.003  0.005
   35  0.000  0.000  0.003  0.003
   36  0.000  0.006  0.017  0.023
   37  0.000  0.000  0.000  0.000
tot    0.343  0.113  0.193  0.649
 
band     6 # energy   -5.88111726 # occ.  2.00000000
 
ion      s      p      d    tot
    1  0.000  0.002  0.005  0.007
    2  0.000  0.001  0.002  0.003
    3  0.007  0.002  0.002  0.011
    4  0.000  0.001  0.002  0.003
    5  0.000  0.002  0.003  0.005
    6  0.005  0.002  0.002  0.009
    7  0.008  0.002  0.002  0.012
    8  0.006  0.002  0.002  0.010
    9  0.000  0.000  0.002  0.002
   10  0.000  0.001  0.014  0.016
   11  0.021  0.003  0.006  0.029
   12  0.040  0.004  0.007  0.050
   13  0.019  0.004  0.006  0.028
   14  0.000  0.013  0.003  0.016
   15  0.004  0.003  0.004  0.011
   16  0.044  0.004  0.006  0.054
   17  0.004  0.003  0.004  0.011
   18  0.000  0.005  0.008  0.013
   19  0.021  0.003  0.006  0.030
   20  0.000  0.002  0.019  0.021
   21  0.049  0.003  0.010  0.062
   22  0.004  0.004  0.005  0.013
   23  0.054  0.003  0.009  0.066
   24  0.000  0.005  0.009  0.014
   25  0.000  0.013  0.002  0.016
   26  0.019  0.004  0.006  0.029
   27  0.005  0.003  0.004  0.013
   28  0.000  0.003  0.004  0.006
   29  0.000  0.001  0.003  0.004
   30  0.006  0.002  0.004  0.012
   31  0.000  0.001  0.003  0.004
   32  0.009  0.002  0.003  0.015
   33  0.007  0.002  0.004  0.013
   34  0.010  0.003  0.003  0.015
   35  0.000  0.000  0.003  0.003
   36  0.000  0.006  0.017  0.023
   37  0.000  0.000  0.000  0.000
tot    0.343  0.113  0.193  0.649
 
band     7 # energy   -5.81725891 # occ.  2.00000000
 
ion      s      p      d    tot
    1  0.000  0.001  0.002  0.003
    2  0.009  0.002  0.002  0.014
    3  0.003  0.001  0.002  0.006
    4  0.010  0.002  0.002  0.014
    5  0.000  0.001  0.004  0.005
    6  0.004  0.001  0.002  0.007
    7  0.001  0.001  0.002  0.004
    8  0.002  0.001  0.002  0.006
    9  0.000  0.003  0.005  0.008
   10  0.000  0.011  0.003  0.014
   11  0.028  0.004  0.004  0.036
   12  0.001  0.004  0.005  0.010
   13  0.023  0.003  0.006  0.033
   14  0.000  0.000  0.015  0.016
   15  0.043  0.003  0.006  0.052
   16  0.002  0.003  0.005  0.009
   17  0.035  0.004  0.006  0.045
   18  0.000  0.008  0.008  0.017
   19  0.029  0.004  0.005  0.038
   20  0.000  0.013  0.002  0.015
   21  0.002  0.005  0.005  0.011
   22  0.038  0.004  0.006  0.048
   23  0.002  0.003  0.005  0.010
   24  0.000  0.008  0.008  0.017
   25  0.000  0.000  0.016  0.017
   26  0.024  0.003  0.007  0.034
   27  0.046  0.003  0.006  0.055
   28  0.000  0.001  0.005  0.006
   29  0.012  0.003  0.003  0.018
   30  0.004  0.002  0.003  0.009
   31  0.012  0.003  0.003  0.018
   32  0.004  0.001  0.003  0.008
   33  0.002  0.002  0.003  0.007
   34  0.002  0.001  0.003  0.006
   35  0.000  0.004  0.005  0.009
   36  0.000  0.002  0.009  0.010
   37  0.000  0.000  0.000  0.000
tot    0.341  0.116  0.181  0.637
 
band     8 # energy   -5.81703255 # occ.  2.00000000
 
ion      s      p      d    tot
    1  0.000  0.001  0.002  0.003
    2  0.000  0.001  0.002  0.003
    3  0.007  0.002  0.002  0.011
    4  0.000  0.001  0.002  0.003
    5  0.000  0.001  0.004  0.005
    6  0.006  0.002  0.002  0.010
    7  0.008  0.002  0.002  0.013
    8  0.007  0.002  0.002  0.011
    9  0.000  0.003  0.005  0.008
   10  0.002  0.001  0.005  0.008
   11  0.006  0.001  0.013  0.020
   12  0.001  0.008  0.004  0.012
   13  0.011  0.002  0.011  0.024
   14  0.034  0.004  0.002  0.040
   15  0.009  0.007  0.008  0.024
   16  0.000  0.009  0.003  0.013
   17  0.017  0.006  0.007  0.030
   18  0.052  0.002  0.005  0.059
   19  0.007  0.001  0.014  0.022
   20  0.002  0.001  0.006  0.010
   21  0.001  0.009  0.003  0.013
   22  0.019  0.006  0.007  0.032
   23  0.000  0.011  0.002  0.014
   24  0.056  0.002  0.005  0.063
   25  0.035  0.005  0.002  0.042
   26  0.012  0.002  0.012  0.025
   27  0.010  0.007  0.008  0.025
   28  0.000  0.001  0.005  0.006
   29  0.000  0.001  0.003  0.004
   30  0.008  0.002  0.003  0.013
   31  0.000  0.001  0.003  0.004
   32  0.008  0.002  0.003  0.014
   33  0.010  0.002  0.003  0.015
   34  0.010  0.003  0.003  0.016
   35  0.000  0.004  0.005  0.009
   36  0.000  0.002  0.009  0.010
   37  0.000  0.000  0.000  0.000
tot    0.341  0.116  0.181  0.637
 
band     9 # energy   -5.80653684 # occ.  2.00000000
 
ion      s      p      d    tot
    1  0.022  0.003  0.001  0.026
    2  0.000  0.002  0.004  0.006
    3  0.000  0.002  0.004  0.006
    4  0.000  0.002  0.004  0.006
    5  0.001  0.000  0.001  0.001
    6  0.000  0.002  0.004  0.006
    7  0.000  0.002  0.004  0.006
    8  0.000  0.002  0.004  0.006
    9  0.009  0.002  0.001  0.011
   10  0.028  0.005  0.007  0.040
   11  0.004  0.000  0.011  0.016
   12  0.029  0.005  0.007  0.040
   13  0.004  0.000  0.011  0.016
   14  0.004  0.001  0.011  0.016
   15  0.014  0.008  0.003  0.025
   16  0.028  0.005  0.007  0.040
   17  0.014  0.008  0.003  0.025
   18  0.014  0.008  0.003  0.025
   19  0.019  0.009  0.002  0.030
   20  0.000  0.002  0.012  0.014
   21  0.000  0.002  0.012  0.015
   22  0.026  0.003  0.008  0.037
   23  0.000  0.002  0.012  0.014
   24  0.027  0.003  0.008  0.037
   25  0.019  0.009  0.002  0.031
   26  0.019  0.009  0.002  0.030
   27  0.026  0.003  0.008  0.037
   28  0.018  0.002  0.000  0.021
   29  0.000  0.002  0.004  0.006
   30  0.000  0.002  0.004  0.006
   31  0.000  0.002  0.004  0.006
   32  0.000  0.002  0.004  0.006
   33  0.000  0.002  0.004  0.006
   34  0.000  0.002  0.004  0.006
   35  0.013  0.002  0.001  0.016
   36  0.000  0.000  0.000  0.000
   37  0.000  0.000  0.000  0.000
tot    0.342  0.113  0.184  0.639
 
band    10 # energy   -5.16294099 # occ.  2.00000000
 
ion      s      p      d    tot
    1  0.010  0.001  0.000  0.011
    2  0.000  0.003  0.009  0.013
    3  0.000  0.003  0.009  0.013
    4  0.000  0.003  0.009  0.013
    5  0.042  0.005  0.000  0.048
    6  0.000  0.003  0.009  0.013
    7  0.000  0.003  0.009  0.013
    8  0.000  0.003  0.009  0.013
    9  0.009  0.001  0.001  0.011
   10  0.002  0.002  0.015  0.018
   11  0.014  0.005  0.008  0.027
   12  0.002  0.002  0.015  0.018
   13  0.014  0.005  0.008  0.027
   14  0.014  0.005  0.008  0.027
   15  0.008  0.001  0.012  0.021
   16  0.002  0.002  0.015  0.018
   17  0.008  0.001  0.012  0.021
   18  0.008  0.001  0.012  0.021
   19  0.004  0.002  0.004  0.011
   20  0.005  0.005  0.029  0.039
   21  0.005  0.005  0.029  0.038
   22  0.000  0.001  0.014  0.015
   23  0.005  0.005  0.029  0.038
   24  0.000  0.001  0.014  0.015
   25  0.004  0.002  0.004  0.011
   26  0.004  0.002  0.004  0.011
   27  0.000  0.001  0.014  0.015
   28  0.016  0.001  0.000  0.017
   29  0.000  0.003  0.009  0.012
   30  0.000  0.003  0.009  0.012
   31  0.000  0.003  0.009  0.012
   32  0.000  0.003  0.009  0.012
   33  0.000  0.003  0.009  0.012
   34  0.000  0.003  0.009  0.012
   35  0.009  0.001  0.000  0.009
   36  0.077  0.002  0.012  0.092
   37  0.012  0.000  0.000  0.013
tot    0.275  0.093  0.367  0.735
 
band    11 # energy   -5.13464456 # occ.  2.00000000
 
ion      s      p      d    tot
    1  0.000  0.003  0.009  0.012
    2  0.016  0.003  0.004  0.024
    3  0.003  0.002  0.004  0.009
    4  0.018  0.003  0.005  0.026
    5  0.000  0.000  0.009  0.009
    6  0.011  0.003  0.005  0.018
    7  0.000  0.001  0.004  0.006
    8  0.007  0.002  0.004  0.013
    9  0.000  0.005  0.008  0.013
   10  0.000  0.005  0.013  0.018
   11  0.006  0.002  0.008  0.016
   12  0.004  0.002  0.009  0.015
   13  0.005  0.002  0.009  0.016
   14  0.000  0.002  0.015  0.017
   15  0.022  0.004  0.006  0.032
   16  0.005  0.001  0.007  0.013
   17  0.016  0.003  0.010  0.029
   18  0.000  0.001  0.019  0.021
   19  0.007  0.005  0.009  0.021
   20  0.000  0.003  0.025  0.028
   21  0.000  0.001  0.017  0.018
   22  0.007  0.003  0.011  0.022
   23  0.000  0.001  0.014  0.014
   24  0.000  0.001  0.026  0.028
   25  0.000  0.000  0.010  0.011
   26  0.005  0.004  0.009  0.018
   27  0.010  0.004  0.006  0.020
   28  0.000  0.003  0.009  0.012
   29  0.022  0.003  0.010  0.035
   30  0.003  0.003  0.011  0.016
   31  0.026  0.003  0.010  0.039
   32  0.018  0.002  0.010  0.030
   33  0.000  0.002  0.011  0.013
   34  0.012  0.002  0.010  0.024
   35  0.000  0.006  0.008  0.014
   36  0.000  0.001  0.040  0.041
   37  0.000  0.000  0.000  0.000
tot    0.225  0.089  0.396  0.710
 
band    12 # energy   -5.13455539 # occ.  2.00000000
 
ion      s      p      d    tot
    1  0.000  0.003  0.009  0.012
    2  0.002  0.002  0.004  0.008
    3  0.016  0.003  0.005  0.023
    4  0.000  0.001  0.004  0.006
    5  0.000  0.000  0.009  0.009
    6  0.007  0.002  0.004  0.014
    7  0.018  0.003  0.005  0.026
    8  0.012  0.003  0.004  0.019
    9  0.000  0.005  0.008  0.013
   10  0.006  0.000  0.006  0.013
   11  0.001  0.002  0.014  0.016
   12  0.002  0.003  0.011  0.016
   13  0.003  0.002  0.012  0.016
   14  0.008  0.002  0.006  0.016
   15  0.004  0.001  0.017  0.023
   16  0.001  0.004  0.012  0.017
   17  0.009  0.002  0.014  0.025
   18  0.025  0.004  0.004  0.034
   19  0.001  0.001  0.010  0.012
   20  0.000  0.000  0.012  0.012
   21  0.000  0.002  0.020  0.022
   22  0.004  0.002  0.018  0.024
   23  0.000  0.003  0.023  0.026
   24  0.011  0.004  0.003  0.018
   25  0.008  0.005  0.009  0.023
   26  0.003  0.002  0.010  0.015
   27  0.002  0.002  0.023  0.026
   28  0.000  0.003  0.009  0.012
   29  0.005  0.002  0.011  0.018
   30  0.024  0.002  0.010  0.037
   31  0.001  0.002  0.011  0.014
   32  0.008  0.003  0.011  0.022
   33  0.027  0.003  0.010  0.039
   34  0.015  0.003  0.010  0.029
   35  0.000  0.006  0.008  0.014
   36  0.000  0.001  0.040  0.041
   37  0.000  0.000  0.000  0.000
tot    0.225  0.089  0.396  0.710
 
band    13 # energy   -5.12824635 # occ.  2.00000000
 
ion      s      p      d    tot
    1  0.003  0.001  0.011  0.014
    2  0.006  0.001  0.010  0.017
    3  0.006  0.001  0.010  0.016
    4  0.006  0.001  0.010  0.017
    5  0.005  0.001  0.009  0.015
    6  0.006  0.001  0.010  0.017
    7  0.006  0.001  0.010  0.016
    8  0.006  0.001  0.010  0.017
    9  0.013  0.000  0.009  0.022
   10  0.011  0.000  0.025  0.036
   11  0.007  0.000  0.023  0.030
   12  0.011  0.000  0.025  0.036
   13  0.007  0.000  0.023  0.030
   14  0.007  0.000  0.023  0.030
   15  0.004  0.000  0.022  0.027
   16  0.011  0.000  0.025  0.036
   17  0.004  0.000  0.022  0.027
   18  0.004  0.000  0.022  0.027
   19  0.007  0.000  0.018  0.025
   20  0.007  0.000  0.032  0.039
   21  0.007  0.000  0.032  0.039
   22  0.003  0.000  0.016  0.019
   23  0.007  0.000  0.032  0.039
   24  0.003  0.000  0.016  0.019
   25  0.007  0.000  0.018  0.025
   26  0.007  0.000  0.018  0.025
   27  0.003  0.000  0.016  0.019
   28  0.000  0.001  0.006  0.007
   29  0.003  0.000  0.008  0.011
   30  0.003  0.000  0.008  0.011
   31  0.003  0.000  0.008  0.012
   32  0.003  0.000  0.008  0.012
   33  0.003  0.000  0.008  0.011
   34  0.003  0.000  0.008  0.011
   35  0.005  0.000  0.005  0.010
   36  0.004  0.001  0.018  0.023
   37  0.000  0.000  0.000  0.000
tot    0.202  0.012  0.572  0.786
 
band    14 # energy   -5.07800329 # occ.  2.00000000
 
ion      s      p      d    tot
    1  0.000  0.004  0.009  0.013
    2  0.021  0.004  0.006  0.030
    3  0.004  0.002  0.005  0.011
    4  0.022  0.004  0.006  0.032
    5  0.000  0.006  0.010  0.016
    6  0.011  0.003  0.006  0.019
    7  0.002  0.002  0.005  0.009
    8  0.008  0.003  0.006  0.016
    9  0.000  0.000  0.012  0.012
   10  0.021  0.005  0.008  0.034
   11  0.003  0.003  0.022  0.029
   12  0.007  0.002  0.017  0.025
   13  0.005  0.003  0.020  0.028
   14  0.017  0.003  0.005  0.025
   15  0.000  0.003  0.014  0.017
   16  0.004  0.001  0.019  0.024
   17  0.000  0.003  0.014  0.016
   18  0.000  0.000  0.009  0.009
   19  0.001  0.002  0.020  0.023
   20  0.020  0.006  0.005  0.031
   21  0.006  0.002  0.024  0.032
   22  0.001  0.002  0.011  0.014
   23  0.004  0.001  0.028  0.033
   24  0.005  0.002  0.010  0.017
   25  0.004  0.001  0.006  0.010
   26  0.001  0.002  0.018  0.021
   27  0.001  0.001  0.011  0.013
   28  0.000  0.003  0.010  0.013
   29  0.016  0.003  0.006  0.026
   30  0.002  0.001  0.005  0.009
   31  0.017  0.004  0.007  0.028
   32  0.010  0.003  0.007  0.020
   33  0.001  0.001  0.005  0.007
   34  0.007  0.002  0.007  0.016
   35  0.000  0.000  0.010  0.010
   36  0.000  0.010  0.014  0.024
   37  0.000  0.000  0.000  0.000
tot    0.219  0.096  0.397  0.713
 
band    15 # energy   -5.07790950 # occ.  2.00000000
 
ion      s      p      d    tot
    1  0.000  0.004  0.009  0.013
    2  0.001  0.002  0.005  0.008
    3  0.019  0.004  0.006  0.028
    4  0.000  0.002  0.005  0.007
    5  0.000  0.006  0.010  0.016
    6  0.011  0.003  0.005  0.020
    7  0.020  0.004  0.006  0.030
    8  0.015  0.003  0.005  0.023
    9  0.000  0.000  0.012  0.012
   10  0.000  0.000  0.021  0.022
   11  0.014  0.003  0.009  0.026
   12  0.014  0.004  0.012  0.030
   13  0.012  0.003  0.012  0.026
   14  0.000  0.003  0.026  0.029
   15  0.000  0.001  0.010  0.011
   16  0.017  0.004  0.010  0.032
   17  0.000  0.001  0.011  0.013
   18  0.000  0.004  0.016  0.019
   19  0.003  0.001  0.009  0.013
   20  0.000  0.000  0.033  0.033
   21  0.013  0.004  0.014  0.031
   22  0.003  0.002  0.010  0.015
   23  0.016  0.005  0.010  0.031
   24  0.000  0.001  0.011  0.013
   25  0.000  0.003  0.024  0.026
   26  0.003  0.001  0.011  0.015
   27  0.004  0.002  0.010  0.016
   28  0.000  0.003  0.010  0.013
   29  0.002  0.001  0.006  0.009
   30  0.016  0.003  0.007  0.026
   31  0.001  0.001  0.006  0.008
   32  0.008  0.002  0.005  0.016
   33  0.017  0.004  0.007  0.028
   34  0.010  0.003  0.006  0.019
   35  0.000  0.000  0.010  0.010
   36  0.000  0.010  0.014  0.024
   37  0.000  0.000  0.000  0.000
tot    0.219  0.096  0.397  0.713
 
band    16 # energy   -5.05736617 # occ.  2.00000000
 
ion      s      p      d    tot
    1  0.031  0.003  0.000  0.034
    2  0.000  0.003  0.010  0.013
    3  0.000  0.003  0.010  0.013
    4  0.000  0.003  0.010  0.013
    5  0.001  0.000  0.001  0.002
    6  0.000  0.003  0.010  0.013
    7  0.000  0.003  0.010  0.013
    8  0.000  0.003  0.010  0.013
    9  0.029  0.004  0.001  0.035
   10  0.006  0.003  0.010  0.020
   11  0.001  0.000  0.017  0.018
   12  0.006  0.003  0.010  0.020
   13  0.001  0.000  0.017  0.018
   14  0.001  0.000  0.017  0.018
   15  0.009  0.004  0.016  0.029
   16  0.006  0.003  0.010  0.020
   17  0.009  0.004  0.016  0.029
   18  0.009  0.004  0.016  0.029
   19  0.003  0.003  0.018  0.024
   20  0.000  0.000  0.015  0.015
   21  0.000  0.000  0.015  0.015
   22  0.013  0.004  0.010  0.027
   23  0.000  0.000  0.015  0.015
   24  0.013  0.004  0.010  0.027
   25  0.003  0.003  0.018  0.024
   26  0.003  0.003  0.018  0.024
   27  0.013  0.004  0.010  0.027
   28  0.035  0.003  0.000  0.037
   29  0.000  0.003  0.012  0.015
   30  0.000  0.003  0.012  0.015
   31  0.000  0.003  0.012  0.015
   32  0.000  0.003  0.012  0.015
   33  0.000  0.003  0.012  0.015
   34  0.000  0.003  0.012  0.015
   35  0.029  0.004  0.001  0.034
   36  0.000  0.000  0.000  0.000
   37  0.000  0.000  0.000  0.000
tot    0.225  0.088  0.394  0.707
 
band    17 # energy   -4.51961015 # occ.  2.00000000
 
ion      s      p      d    tot
    1  0.000  0.001  0.026  0.027
    2  0.015  0.002  0.007  0.024
    3  0.008  0.001  0.007  0.016
    4  0.015  0.002  0.007  0.024
    5  0.000  0.001  0.012  0.013
    6  0.002  0.001  0.007  0.010
    7  0.006  0.001  0.007  0.014
    8  0.001  0.001  0.007  0.009
    9  0.000  0.003  0.004  0.008
   10  0.000  0.000  0.057  0.057
   11  0.000  0.004  0.016  0.019
   12  0.000  0.000  0.021  0.021
   13  0.000  0.003  0.014  0.017
   14  0.000  0.000  0.003  0.003
   15  0.000  0.005  0.014  0.019
   16  0.000  0.000  0.016  0.017
   17  0.000  0.004  0.015  0.020
   18  0.000  0.000  0.029  0.029
   19  0.005  0.003  0.011  0.019
   20  0.000  0.000  0.070  0.070
   21  0.000  0.000  0.033  0.033
   22  0.003  0.001  0.014  0.019
   23  0.000  0.000  0.028  0.029
   24  0.000  0.000  0.011  0.011
   25  0.000  0.000  0.020  0.020
   26  0.005  0.002  0.012  0.019
   27  0.003  0.002  0.015  0.020
   28  0.000  0.001  0.005  0.006
   29  0.007  0.000  0.022  0.029
   30  0.000  0.001  0.018  0.019
   31  0.008  0.000  0.022  0.030
   32  0.010  0.000  0.021  0.031
   33  0.000  0.001  0.018  0.019
   34  0.009  0.000  0.020  0.030
   35  0.000  0.001  0.008  0.008
   36  0.000  0.000  0.058  0.058
   37  0.000  0.000  0.000  0.000
tot    0.098  0.043  0.675  0.816
 
band    18 # energy   -4.51949514 # occ.  2.00000000
 
ion      s      p      d    tot
    1  0.000  0.001  0.026  0.027
    2  0.000  0.001  0.007  0.008
    3  0.008  0.001  0.007  0.017
    4  0.001  0.001  0.007  0.009
    5  0.000  0.001  0.012  0.013
    6  0.014  0.001  0.007  0.022
    7  0.010  0.001  0.007  0.018
    8  0.015  0.002  0.007  0.023
    9  0.000  0.003  0.004  0.008
   10  0.000  0.000  0.006  0.006
   11  0.000  0.001  0.006  0.007
   12  0.000  0.000  0.042  0.042
   13  0.000  0.001  0.008  0.009
   14  0.000  0.005  0.019  0.023
   15  0.000  0.001  0.025  0.026
   16  0.000  0.000  0.047  0.047
   17  0.000  0.002  0.023  0.025
   18  0.000  0.006  0.010  0.016
   19  0.001  0.001  0.017  0.020
   20  0.000  0.000  0.018  0.018
   21  0.000  0.000  0.054  0.054
   22  0.001  0.001  0.012  0.014
   23  0.000  0.000  0.059  0.059
   24  0.004  0.002  0.016  0.022
   25  0.007  0.003  0.009  0.019
   26  0.002  0.001  0.016  0.019
   27  0.001  0.001  0.012  0.013
   28  0.000  0.001  0.005  0.006
   29  0.005  0.001  0.018  0.024
   30  0.011  0.000  0.022  0.034
   31  0.004  0.001  0.018  0.022
   32  0.001  0.001  0.020  0.022
   33  0.011  0.000  0.022  0.034
   34  0.002  0.001  0.020  0.023
   35  0.000  0.001  0.008  0.008
   36  0.000  0.000  0.058  0.058
   37  0.000  0.000  0.000  0.000
tot    0.098  0.043  0.675  0.816
 
band    19 # energy   -4.45075135 # occ.  2.00000000
 
ion      s      p      d    tot
    1  0.031  0.001  0.000  0.033
    2  0.000  0.002  0.017  0.019
    3  0.000  0.002  0.017  0.019
    4  0.000  0.002  0.017  0.019
    5  0.020  0.001  0.001  0.022
    6  0.000  0.002  0.017  0.019
    7  0.000  0.002  0.017  0.019
    8  0.000  0.002  0.017  0.019
    9  0.001  0.000  0.000  0.001
   10  0.000  0.003  0.040  0.042
   11  0.000  0.004  0.028  0.032
   12  0.000  0.003  0.040  0.042
   13  0.000  0.004  0.028  0.032
   14  0.000  0.004  0.028  0.032
   15  0.000  0.000  0.004  0.004
   16  0.000  0.003  0.040  0.042
   17  0.000  0.000  0.004  0.004
   18  0.000  0.000  0.004  0.004
   19  0.002  0.002  0.021  0.025
   20  0.002  0.002  0.047  0.050
   21  0.002  0.002  0.047  0.050
   22  0.000  0.000  0.007  0.007
   23  0.002  0.002  0.047  0.050
   24  0.000  0.000  0.007  0.007
   25  0.002  0.002  0.021  0.025
   26  0.002  0.002  0.021  0.025
   27  0.000  0.000  0.007  0.007
   28  0.008  0.000  0.005  0.013
   29  0.000  0.001  0.014  0.015
   30  0.000  0.001  0.014  0.015
   31  0.000  0.001  0.014  0.015
   32  0.000  0.001  0.014  0.015
   33  0.000  0.001  0.014  0.015
   34  0.000  0.001  0.014  0.015
   35  0.003  0.000  0.000  0.003
   36  0.036  0.000  0.004  0.040
   37  0.010  0.000  0.000  0.010
tot    0.122  0.052  0.635  0.808
 
band    20 # energy   -4.38826081 # occ.  2.00000000
 
ion      s      p      d    tot
    1  0.001  0.000  0.000  0.002
    2  0.000  0.001  0.014  0.015
    3  0.000  0.001  0.014  0.015
    4  0.000  0.001  0.014  0.015
    5  0.012  0.000  0.001  0.013
    6  0.000  0.001  0.013  0.015
    7  0.000  0.001  0.014  0.015
    8  0.000  0.001  0.013  0.015
    9  0.021  0.001  0.001  0.022
   10  0.000  0.001  0.005  0.007
   11  0.000  0.000  0.019  0.019
   12  0.000  0.001  0.005  0.007
   13  0.000  0.000  0.019  0.019
   14  0.000  0.000  0.019  0.019
   15  0.000  0.003  0.028  0.031
   16  0.000  0.001  0.005  0.007
   17  0.000  0.003  0.028  0.031
   18  0.000  0.003  0.028  0.031
   19  0.000  0.001  0.021  0.022
   20  0.000  0.001  0.022  0.023
   21  0.000  0.001  0.022  0.023
   22  0.001  0.003  0.036  0.041
   23  0.000  0.001  0.022  0.023
   24  0.001  0.003  0.036  0.041
   25  0.000  0.001  0.021  0.022
   26  0.000  0.001  0.021  0.022
   27  0.001  0.003  0.036  0.041
   28  0.015  0.000  0.000  0.016
   29  0.000  0.002  0.029  0.031
   30  0.000  0.002  0.029  0.031
   31  0.000  0.002  0.029  0.031
   32  0.000  0.002  0.029  0.031
   33  0.000  0.002  0.029  0.031
   34  0.000  0.002  0.029  0.031
   35  0.035  0.001  0.006  0.042
   36  0.001  0.000  0.010  0.010
   37  0.001  0.000  0.000  0.001
tot    0.092  0.047  0.669  0.809
 
band    21 # energy   -4.37389740 # occ.  2.00000000
 
ion      s      p      d    tot
    1  0.000  0.002  0.002  0.004
    2  0.015  0.001  0.009  0.025
    3  0.008  0.001  0.009  0.018
    4  0.014  0.001  0.010  0.024
    5  0.000  0.002  0.020  0.022
    6  0.002  0.001  0.009  0.011
    7  0.006  0.001  0.009  0.016
    8  0.001  0.001  0.009  0.010
    9  0.000  0.000  0.030  0.030
   10  0.001  0.007  0.021  0.029
   11  0.000  0.000  0.043  0.043
   12  0.000  0.002  0.011  0.013
   13  0.000  0.001  0.037  0.038
   14  0.001  0.002  0.004  0.007
   15  0.000  0.000  0.030  0.030
   16  0.000  0.002  0.009  0.011
   17  0.000  0.000  0.027  0.028
   18  0.000  0.001  0.011  0.012
   19  0.000  0.000  0.048  0.049
   20  0.002  0.007  0.024  0.033
   21  0.001  0.002  0.018  0.021
   22  0.000  0.001  0.022  0.023
   23  0.000  0.001  0.017  0.019
   24  0.000  0.002  0.014  0.016
   25  0.001  0.001  0.003  0.005
   26  0.000  0.000  0.042  0.043
   27  0.000  0.001  0.023  0.024
   28  0.000  0.002  0.032  0.034
   29  0.012  0.001  0.013  0.026
   30  0.000  0.001  0.012  0.013
   31  0.013  0.001  0.013  0.028
   32  0.012  0.001  0.012  0.025
   33  0.000  0.001  0.012  0.012
   34  0.010  0.001  0.012  0.023
   35  0.000  0.000  0.030  0.031
   36  0.000  0.004  0.000  0.004