 vasp.6.2.0 18Jan21 (build Jun 12 2021 23:27:24) complex                        
  
 executed on             LinuxIFC date 2022.05.27  05:05:55
 running on   28 total cores
 distrk:  each k-point on   28 cores,    1 groups
 distr:  one band on NCORE=   1 cores,   28 groups


--------------------------------------------------------------------------------------------------------


 INCAR:
   ISMEAR = -5
   SIGMA = 0.1
   ISPIN = 1
   EDIFF = 1.d-5
   EDIFFG = -0.01
   NSW = 0
   NELM = 150
   ENCUT = 500
   ISIF = 2
   IBRION = 2
   LREAL = Auto
   ALGO = Fast
   ICHARG = 11
   LORBIT = 10
   LCHARG = .F.
   LWAVE = .F.

 POTCAR:    PAW_PBE Au 04Oct2007                  
 POTCAR:    PAW_PBE Ni 02Aug2007                  
 POTCAR:    PAW_PBE C 08Apr2002                   
 POTCAR:    PAW_PBE O 08Apr2002                   
 -----------------------------------------------------------------------------
|                                                                             |
|           W    W    AA    RRRRR   N    N  II  N    N   GGGG   !!!           |
|           W    W   A  A   R    R  NN   N  II  NN   N  G    G  !!!           |
|           W    W  A    A  R    R  N N  N  II  N N  N  G       !!!           |
|           W WW W  AAAAAA  RRRRR   N  N N  II  N  N N  G  GGG   !            |
|           WW  WW  A    A  R   R   N   NN  II  N   NN  G    G                |
|           W    W  A    A  R    R  N    N  II  N    N   GGGG   !!!           |
|                                                                             |
|     For optimal performance we recommend to set                             |
|       NCORE = 2 up to number-of-cores-per-socket                            |
|     NCORE specifies how many cores store one orbital (NPAR=cpu/NCORE).      |
|     This setting can greatly improve the performance of VASP for DFT.       |
|     The default, NCORE=1 might be grossly inefficient on modern             |
|     multi-core architectures or massively parallel machines. Do your        |
|     own testing! More info at https://www.vasp.at/wiki/index.php/NCORE      |
|     Unfortunately you need to use the default for GW and RPA                |
|     calculations (for HF NCORE is supported but not extensively tested      |
|     yet).                                                                   |
|                                                                             |
 -----------------------------------------------------------------------------

 POTCAR:    PAW_PBE Au 04Oct2007                  
   VRHFIN =Au: s1d10                                                                                
   LEXCH  = PE                                                                                      
   EATOM  =   926.0867 eV,   68.0654 Ry                                                             
                                                                                                    
   TITEL  = PAW_PBE Au 04Oct2007                                                                    
   LULTRA =        F    use ultrasoft PP ?                                                          
   IUNSCR =        1    unscreen: 0-lin 1-nonlin 2-no                                               
   RPACOR =    2.330    partial core radius                                                         
   POMASS =  196.966; ZVAL   =   11.000    mass and valenz                                          
   RCORE  =    2.500    outmost cutoff radius                                                       
   RWIGS  =    2.840; RWIGS  =    1.503    wigner-seitz radius (au A)                               
   ENMAX  =  229.943; ENMIN  =  172.457 eV                                                          
   ICORE  =        3    local potential                                                             
   LCOR   =        T    correct aug charges                                                         
   LPAW   =        T    paw PP                                                                      
   EAUG   =  356.670                                                                                
   DEXC   =    0.000                                                                                
   RMAX   =    2.562    core radius for proj-oper                                                   
   RAUG   =    1.300    factor for augmentation sphere                                              
   RDEP   =    2.598    radius for radial grids                                                     
   RDEPT  =    2.193    core radius for aug-charge                                                  
                                                                                                    
   Atomic configuration                                                                             
   16 entries                                                                                       
     n  l   j            E        occ.                                                              
     1  0  0.50    -80748.5001   2.0000                                                             
     2  0  0.50    -14244.7466   2.0000                                                             
     2  1  1.50    -12310.9591   6.0000                                                             
     3  0  0.50     -3362.1768   2.0000                                                             
     3  1  1.50     -2801.5463   6.0000                                                             
     3  2  2.50     -2203.8206  10.0000                                                             
     4  0  0.50      -729.8168   2.0000                                                             
     4  1  1.50      -546.0527   6.0000                                                             
     4  2  2.50      -325.7302  10.0000                                                             
     4  3  3.50       -81.1472  14.0000                                                             
     5  0  0.50      -108.3201   2.0000                                                             
     5  1  1.50       -59.7479   6.0000                                                             
     5  2  2.50        -6.8783  10.0000                                                             
     6  0  0.50        -5.7602   1.0000                                                             
     6  1  1.50        -6.8029   0.0000                                                             
     5  3  2.50        -1.3606   0.0000                                                             
   Description                                                                                      
     l       E           TYP  RCUT    TYP  RCUT                                                     
     2     -6.8782861     23  2.500                                                                 
     2     -8.2388687     23  2.500                                                                 
     0     -5.7601759     23  2.500                                                                 
     0     -0.8493231     23  2.500                                                                 
     1     -2.7211652     23  2.500                                                                 
     1     27.2116520     23  2.500                                                                 
     3     -1.3605826     23  2.500                                                                 
  local pseudopotential read in
  partial core-charges read in
  partial kinetic energy density read in
  atomic valenz-charges read in
  non local Contribution for L=           2  read in
    real space projection operators read in
  non local Contribution for L=           2  read in
    real space projection operators read in
  non local Contribution for L=           0  read in
    real space projection operators read in
  non local Contribution for L=           0  read in
    real space projection operators read in
  non local Contribution for L=           1  read in
    real space projection operators read in
  non local Contribution for L=           1  read in
    real space projection operators read in
    PAW grid and wavefunctions read in
 
   number of l-projection  operators is LMAX  =           6
   number of lm-projection operators is LMMAX =          18
 
 POTCAR:    PAW_PBE Ni 02Aug2007                  
   VRHFIN =Ni:                                                                                      
   LEXCH  = PE                                                                                      
   EATOM  =  1077.6739 eV,   79.2068 Ry                                                             
                                                                                                    
   TITEL  = PAW_PBE Ni 02Aug2007                                                                    
   LULTRA =        F    use ultrasoft PP ?                                                          
   IUNSCR =        1    unscreen: 0-lin 1-nonlin 2-no                                               
   RPACOR =    2.000    partial core radius                                                         
   POMASS =   58.690; ZVAL   =   10.000    mass and valenz                                          
   RCORE  =    2.300    outmost cutoff radius                                                       
   RWIGS  =    2.430; RWIGS  =    1.286    wigner-seitz radius (au A)                               
   ENMAX  =  269.532; ENMIN  =  202.149 eV                                                          
   RCLOC  =    1.201    cutoff for local pot                                                        
   LCOR   =        T    correct aug charges                                                         
   LPAW   =        T    paw PP                                                                      
   EAUG   =  544.565                                                                                
   DEXC   =    0.000                                                                                
   RMAX   =    2.357    core radius for proj-oper                                                   
   RAUG   =    1.300    factor for augmentation sphere                                              
   RDEP   =    2.390    radius for radial grids                                                     
   RDEPT  =    1.838    core radius for aug-charge                                                  
                                                                                                    
   Atomic configuration                                                                             
    9 entries                                                                                       
     n  l   j            E        occ.                                                              
     1  0  0.50     -8206.4253   2.0000                                                             
     2  0  0.50      -976.1748   2.0000                                                             
     2  1  1.50      -839.0571   6.0000                                                             
     3  0  0.50      -105.9991   2.0000                                                             
     3  1  1.50       -66.4603   6.0000                                                             
     3  2  2.50        -4.6458   9.0000                                                             
     4  0  0.50        -4.4926   1.0000                                                             
     4  1  1.50        -4.0817   0.0000                                                             
     4  3  2.50        -1.3606   0.0000                                                             
   Description                                                                                      
     l       E           TYP  RCUT    TYP  RCUT                                                     
     2     -4.6457903     23  2.300                                                                 
     2     -6.0063729     23  2.300                                                                 
     0     -4.4925590     23  2.300                                                                 
     0      5.0102601     23  2.300                                                                 
     1     -2.7211652     23  2.300                                                                 
     1     16.5183231     23  2.300                                                                 
  local pseudopotential read in
  partial core-charges read in
  partial kinetic energy density read in
  atomic valenz-charges read in
  non local Contribution for L=           2  read in
    real space projection operators read in
  non local Contribution for L=           2  read in
    real space projection operators read in
  non local Contribution for L=           0  read in
    real space projection operators read in
  non local Contribution for L=           0  read in
    real space projection operators read in
  non local Contribution for L=           1  read in
    real space projection operators read in
  non local Contribution for L=           1  read in
    real space projection operators read in
    PAW grid and wavefunctions read in
 
   number of l-projection  operators is LMAX  =           6
   number of lm-projection operators is LMMAX =          18
 
 POTCAR:    PAW_PBE C 08Apr2002                   
   VRHFIN =C: s2p2                                                                                  
   LEXCH  = PE                                                                                      
   EATOM  =   147.1560 eV,   10.8157 Ry                                                             
                                                                                                    
   TITEL  = PAW_PBE C 08Apr2002                                                                     
   LULTRA =        F    use ultrasoft PP ?                                                          
   IUNSCR =        1    unscreen: 0-lin 1-nonlin 2-no                                               
   RPACOR =    1.200    partial core radius                                                         
   POMASS =   12.011; ZVAL   =    4.000    mass and valenz                                          
   RCORE  =    1.500    outmost cutoff radius                                                       
   RWIGS  =    1.630; RWIGS  =    0.863    wigner-seitz radius (au A)                               
   ENMAX  =  400.000; ENMIN  =  300.000 eV                                                          
   ICORE  =        2    local potential                                                             
   LCOR   =        T    correct aug charges                                                         
   LPAW   =        T    paw PP                                                                      
   EAUG   =  644.873                                                                                
   DEXC   =    0.000                                                                                
   RMAX   =    1.529    core radius for proj-oper                                                   
   RAUG   =    1.300    factor for augmentation sphere                                              
   RDEP   =    1.501    radius for radial grids                                                     
   RDEPT  =    1.300    core radius for aug-charge                                                  
                                                                                                    
   Atomic configuration                                                                             
    4 entries                                                                                       
     n  l   j            E        occ.                                                              
     1  0  0.50      -273.3789   2.0000                                                             
     2  0  0.50       -13.7508   2.0000                                                             
     2  1  0.50        -5.2854   2.0000                                                             
     3  2  1.50        -5.4423   0.0000                                                             
   Description                                                                                      
     l       E           TYP  RCUT    TYP  RCUT                                                     
     0    -13.7508458     23  1.200                                                                 
     0     -8.2022199     23  1.200                                                                 
     1     -5.2854383     23  1.500                                                                 
     1     34.0145650     23  1.500                                                                 
     2     -5.4423304      7  1.500                                                                 
  local pseudopotential read in
  partial core-charges read in
  partial kinetic energy density read in
  atomic valenz-charges read in
  non local Contribution for L=           0  read in
    real space projection operators read in
  non local Contribution for L=           0  read in
    real space projection operators read in
  non local Contribution for L=           1  read in
    real space projection operators read in
  non local Contribution for L=           1  read in
    real space projection operators read in
    PAW grid and wavefunctions read in
 
   number of l-projection  operators is LMAX  =           4
   number of lm-projection operators is LMMAX =           8
 
 POTCAR:    PAW_PBE O 08Apr2002                   
   VRHFIN =O: s2p4                                                                                  
   LEXCH  = PE                                                                                      
   EATOM  =   432.3788 eV,   31.7789 Ry                                                             
                                                                                                    
   TITEL  = PAW_PBE O 08Apr2002                                                                     
   LULTRA =        F    use ultrasoft PP ?                                                          
   IUNSCR =        1    unscreen: 0-lin 1-nonlin 2-no                                               
   RPACOR =    1.200    partial core radius                                                         
   POMASS =   16.000; ZVAL   =    6.000    mass and valenz                                          
   RCORE  =    1.520    outmost cutoff radius                                                       
   RWIGS  =    1.550; RWIGS  =    0.820    wigner-seitz radius (au A)                               
   ENMAX  =  400.000; ENMIN  =  300.000 eV                                                          
   ICORE  =        2    local potential                                                             
   LCOR   =        T    correct aug charges                                                         
   LPAW   =        T    paw PP                                                                      
   EAUG   =  605.392                                                                                
   DEXC   =    0.000                                                                                
   RMAX   =    1.553    core radius for proj-oper                                                   
   RAUG   =    1.300    factor for augmentation sphere                                              
   RDEP   =    1.550    radius for radial grids                                                     
   RDEPT  =    1.329    core radius for aug-charge                                                  
                                                                                                    
   Atomic configuration                                                                             
    4 entries                                                                                       
     n  l   j            E        occ.                                                              
     1  0  0.50      -514.6923   2.0000                                                             
     2  0  0.50       -23.9615   2.0000                                                             
     2  1  0.50        -9.0305   4.0000                                                             
     3  2  1.50        -9.5241   0.0000                                                             
   Description                                                                                      
     l       E           TYP  RCUT    TYP  RCUT                                                     
     0    -23.9615318     23  1.200                                                                 
     0     -9.5240782     23  1.200                                                                 
     1     -9.0304911     23  1.520                                                                 
     1      8.1634956     23  1.520                                                                 
     2     -9.5240782      7  1.500                                                                 
  local pseudopotential read in
  partial core-charges read in
  partial kinetic energy density read in
  kinetic energy density of atom read in
  atomic valenz-charges read in
  non local Contribution for L=           0  read in
    real space projection operators read in
  non local Contribution for L=           0  read in
    real space projection operators read in
  non local Contribution for L=           1  read in
    real space projection operators read in
  non local Contribution for L=           1  read in
    real space projection operators read in
    PAW grid and wavefunctions read in
 
   number of l-projection  operators is LMAX  =           4
   number of lm-projection operators is LMMAX =           8
 
 Optimization of the real space projectors (new method)

 maximal supplied QI-value         = 15.12
 optimisation between [QCUT,QGAM] = [ 11.34, 22.83] = [ 36.00,145.93] Ry 
 Optimized for a Real-space Cutoff    1.39 Angstroem

   l    n(q)    QCUT    max X(q) W(low)/X(q) W(high)/X(q)  e(spline) 
   2      9    11.338    60.898    0.39E-03    0.42E-03    0.21E-06
   2      9    11.338    58.894    0.40E-03    0.42E-03    0.22E-06
   0      9    11.338   109.617    0.13E-03    0.20E-04    0.13E-06
   0      9    11.338    75.026    0.13E-03    0.20E-04    0.13E-06
   1      9    11.338    16.344    0.33E-04    0.24E-03    0.18E-06
   1      9    11.338    10.160    0.26E-04    0.19E-03    0.15E-06
 Optimization of the real space projectors (new method)

 maximal supplied QI-value         = 16.25
 optimisation between [QCUT,QGAM] = [ 11.38, 22.75] = [ 36.24,144.96] Ry 
 Optimized for a Real-space Cutoff    1.39 Angstroem

   l    n(q)    QCUT    max X(q) W(low)/X(q) W(high)/X(q)  e(spline) 
   2      8    11.376    60.317    0.19E-03    0.33E-04    0.13E-06
   2      8    11.376    55.921    0.20E-03    0.34E-04    0.14E-06
   0      9    11.376    51.690    0.82E-04    0.12E-03    0.20E-06
   0      9    11.376    30.015    0.74E-04    0.11E-03    0.18E-06
   1      9    11.376    18.849    0.39E-03    0.12E-03    0.13E-06
   1      9    11.376    14.624    0.33E-03    0.10E-03    0.11E-06
 Optimization of the real space projectors (new method)

 maximal supplied QI-value         = 25.13
 optimisation between [QCUT,QGAM] = [ 11.31, 22.87] = [ 35.82,146.48] Ry 
 Optimized for a Real-space Cutoff    1.00 Angstroem

   l    n(q)    QCUT    max X(q) W(low)/X(q) W(high)/X(q)  e(spline) 
   0      7    11.310   115.676    0.43E-03    0.13E-02    0.19E-06
   0      7    11.310    87.132    0.43E-03    0.13E-02    0.18E-06
   1      6    11.310     4.429    0.42E-03    0.74E-03    0.11E-06
   1      6    11.310     2.733    0.34E-03    0.55E-03    0.92E-07
 Optimization of the real space projectors (new method)

 maximal supplied QI-value         = 24.76
 optimisation between [QCUT,QGAM] = [ 11.39, 22.77] = [ 36.31,145.25] Ry 
 Optimized for a Real-space Cutoff    1.00 Angstroem

   l    n(q)    QCUT    max X(q) W(low)/X(q) W(high)/X(q)  e(spline) 
   0      7    11.387    20.381    0.39E-03    0.13E-02    0.15E-06
   0      7    11.387    15.268    0.42E-03    0.14E-02    0.17E-06
   1      6    11.387     5.964    0.41E-03    0.11E-02    0.17E-06
   1      6    11.387     5.382    0.39E-03    0.87E-03    0.15E-06
  PAW_PBE Au 04Oct2007                  :
 energy of atom  1       EATOM= -926.0867
 kinetic energy error for atom=    0.0042 (will be added to EATOM!!)
  PAW_PBE Ni 02Aug2007                  :
 energy of atom  2       EATOM=-1077.6739
 kinetic energy error for atom=    0.0030 (will be added to EATOM!!)
  PAW_PBE C 08Apr2002                   :
 energy of atom  3       EATOM= -147.1560
 kinetic energy error for atom=    0.0076 (will be added to EATOM!!)
  PAW_PBE O 08Apr2002                   :
 energy of atom  4       EATOM= -432.3788
 kinetic energy error for atom=    0.0224 (will be added to EATOM!!)
 
 
 POSCAR: Au-Ni-CO
  positions in direct lattice
  velocities in cartesian coordinates
 exchange correlation table for  LEXCH =        8
   RHO(1)=    0.500       N(1)  =     2000
   RHO(2)=  100.500       N(2)  =     4000

 VTST: version 3.2, (02/03/18)

 CHAIN: initializing optimizer
 
 OPT: Using VASP Conjugate-Gradient optimizer
 CHAIN: Read ICHAIN            0
 
 POSCAR: Au-Ni-CO
  positions in direct lattice
  velocities in cartesian coordinates
 


--------------------------------------------------------------------------------------------------------


 ion  position               nearest neighbor table
   1  0.000  0.000  0.238-  16 2.94  12 2.94   6 2.94   8 2.94   7 2.94   3 2.94  10 2.94   4 2.94
                             2 2.94
   2  0.333  0.000  0.238-   9 2.94  11 2.94  17 2.94  10 2.94   8 2.94   4 2.94   5 2.94   1 2.94
                             3 2.94
   3  0.667  0.000  0.238-   7 2.94  18 2.94  12 2.94   1 2.94  11 2.94   5 2.94   6 2.94   9 2.94
                             2 2.94
   4  0.000  0.333  0.238-  10 2.94   6 2.94   5 2.94  13 2.94   2 2.94  15 2.94   9 2.94   1 2.94
                             7 2.94
   5  0.333  0.333  0.238-  13 2.94   7 2.94  11 2.94   4 2.94   2 2.94  14 2.94   3 2.94   8 2.94
                             6 2.94
   6  0.667  0.333  0.238-  15 2.94  14 2.94   1 2.94  12 2.94   4 2.94   9 2.94   8 2.94   3 2.94
                             5 2.94
   7  0.000  0.667  0.238-  18 2.94   3 2.94  16 2.94   5 2.94   1 2.94  13 2.94   8 2.94   4 2.94
                             9 2.94
   8  0.333  0.667  0.238-   9 2.94  17 2.94   1 2.94   2 2.94  14 2.94  16 2.94   6 2.94   7 2.94
                             5 2.94
   9  0.667  0.667  0.238-   2 2.94   8 2.94  17 2.94   6 2.94  15 2.94   4 2.94   3 2.94  18 2.94
                             7 2.94
  10  0.111  0.111  0.346-  20 2.93  26 2.93  19 2.93  11 2.94  17 2.94   2 2.94   4 2.94   1 2.94
                            12 2.94  16 2.94  13 2.94  15 2.94
  11  0.444  0.111  0.346-  20 2.92  21 2.92  27 2.93  13 2.94   2 2.94  10 2.94  17 2.94   5 2.94
                             3 2.94  18 2.94  14 2.94  12 2.94
  12  0.778  0.111  0.346-  21 2.93  25 2.93  19 2.93  16 2.94  18 2.94   1 2.94  14 2.94  15 2.94
                             3 2.94   6 2.94  10 2.94  11 2.94
  13  0.111  0.444  0.346-  23 2.92  20 2.92  22 2.93   5 2.94  18 2.94  11 2.94   7 2.94   4 2.94
                            16 2.94  10 2.94  14 2.94  15 2.94
  14  0.444  0.444  0.346-  21 2.92  23 2.92  24 2.93  15 2.94   6 2.94  12 2.94   8 2.94  17 2.94
                             5 2.94  16 2.94  13 2.94  11 2.94
  15  0.778  0.444  0.346-  24 2.92  22 2.92  19 2.93  14 2.94   6 2.94  17 2.94  12 2.94   9 2.94
                             4 2.94  10 2.94  13 2.94  18 2.94
  16  0.111  0.778  0.346-  23 2.93  25 2.93  26 2.93  18 2.94  12 2.94   7 2.94   1 2.94   8 2.94
                            13 2.94  10 2.94  14 2.94  17 2.94
  17  0.444  0.778  0.346-  27 2.92  24 2.92  26 2.93   9 2.94  15 2.94   2 2.94  10 2.94  11 2.94
                             8 2.94  14 2.94  16 2.94  18 2.94
  18  0.778  0.778  0.346-  22 2.92  27 2.92  25 2.93  16 2.94   7 2.94  13 2.94  12 2.94   3 2.94
                            11 2.94   9 2.94  15 2.94  17 2.94
  19  0.889  0.222  0.454-  10 2.93  12 2.93  15 2.93  26 2.93  25 2.93  24 2.94  22 2.94  21 2.95
                            20 2.95  28 2.95  32 2.96  31 2.96
  20  0.223  0.223  0.453-  36 2.70  29 2.91  31 2.91  11 2.92  13 2.92  23 2.92  21 2.92  10 2.93
                            27 2.95  22 2.95  26 2.95  19 2.95
  21  0.554  0.223  0.453-  36 2.70  30 2.91  32 2.91  14 2.92  11 2.92  20 2.92  23 2.92  12 2.93
                            27 2.95  24 2.95  25 2.95  19 2.95
  22  0.888  0.556  0.453-  18 2.92  15 2.92  24 2.92  27 2.92  13 2.93  25 2.94  19 2.94  33 2.94
                            31 2.94  23 2.95  20 2.95  35 2.96
  23  0.223  0.554  0.453-  36 2.70  33 2.91  34 2.91  13 2.92  14 2.92  20 2.92  21 2.92  16 2.93
                            22 2.95  24 2.95  25 2.95  26 2.95
  24  0.556  0.556  0.453-  15 2.92  17 2.92  27 2.92  22 2.92  14 2.93  26 2.94  19 2.94  32 2.94
                            34 2.94  21 2.95  23 2.95  35 2.96
  25  0.889  0.889  0.454-  16 2.93  12 2.93  18 2.93  19 2.93  26 2.93  22 2.94  27 2.94  23 2.95
                            21 2.95  28 2.95  33 2.96  30 2.96
  26  0.222  0.889  0.454-  10 2.93  16 2.93  17 2.93  19 2.93  25 2.93  27 2.94  24 2.94  20 2.95
                            23 2.95  28 2.95  29 2.96  34 2.96
  27  0.556  0.888  0.453-  17 2.92  18 2.92  24 2.92  22 2.92  11 2.93  26 2.94  25 2.94  29 2.94
                            30 2.94  20 2.95  21 2.95  35 2.96
  28  0.000  0.000  0.563-  25 2.95  19 2.95  26 2.95  34 2.97  32 2.97  33 2.97  30 2.97  31 2.97
                            29 2.97
  29  0.334  0.007  0.561-  30 2.87  31 2.88  36 2.89  20 2.91  27 2.94  26 2.96  35 2.97  28 2.97
                            34 3.06
  30  0.660  0.007  0.561-  29 2.87  32 2.88  36 2.89  21 2.91  27 2.94  25 2.96  35 2.97  28 2.97
                            33 3.06
  31  0.007  0.334  0.561-  33 2.87  29 2.88  36 2.89  20 2.91  22 2.94  19 2.96  35 2.97  28 2.97
                            32 3.06
  32  0.660  0.334  0.561-  34 2.87  30 2.88  36 2.89  21 2.91  24 2.94  19 2.96  35 2.97  28 2.97
                            31 3.06
  33  0.007  0.660  0.561-  31 2.87  34 2.88  36 2.89  23 2.91  22 2.94  25 2.96  35 2.97  28 2.97
                            30 3.06
  34  0.334  0.660  0.561-  32 2.87  33 2.88  36 2.89  23 2.91  24 2.94  26 2.96  35 2.97  28 2.97
                            29 3.06
  35  0.667  0.667  0.563-  24 2.96  27 2.96  22 2.96  29 2.97  34 2.97  32 2.97  31 2.97  30 2.97
                            33 2.97
  36  0.333  0.333  0.548-  37 1.77  20 2.70  23 2.70  21 2.70  33 2.89  31 2.89  29 2.89  30 2.89
                            34 2.89  32 2.89
  37  0.333  0.333  0.628-  38 1.16  36 1.77
  38  0.333  0.333  0.680-  37 1.16
 
  LATTYP: Found a hexagonal cell.
 ALAT       =     8.8135128021
 C/A-ratio  =     2.5184286595
  
  Lattice vectors:
  
 A1 = (  -4.4067569092,  -7.6327256898,   0.0000000000)
 A2 = (   8.8135128021,   0.0000000000,   0.0000000000)
 A3 = (   0.0000000000,   0.0000000000,  22.1962032318)


Analysis of symmetry for initial positions (statically):
=====================================================================
 Subroutine PRICEL returns:
 Original cell was already a primitive cell.
 

 Routine SETGRP: Setting up the symmetry group for a 
 hexagonal supercell.


 Subroutine GETGRP returns: Found  6 space group operations
 (whereof  6 operations were pure point group operations)
 out of a pool of 24 trial point group operations.


The static configuration has the point symmetry C_3v.


Analysis of symmetry for dynamics (positions and initial velocities):
=====================================================================
 Subroutine PRICEL returns:
 Original cell was already a primitive cell.
 

 Routine SETGRP: Setting up the symmetry group for a 
 hexagonal supercell.


 Subroutine GETGRP returns: Found  6 space group operations
 (whereof  6 operations were pure point group operations)
 out of a pool of 24 trial point group operations.


The dynamic configuration has the point symmetry C_3v.


Analysis of constrained symmetry for selective dynamics:
=====================================================================
 Subroutine PRICEL returns:
 Original cell was already a primitive cell.
 

 Routine SETGRP: Setting up the symmetry group for a 
 hexagonal supercell.


 Subroutine GETGRP returns: Found  6 space group operations
 (whereof  6 operations were pure point group operations)
 out of a pool of 24 trial point group operations.


The constrained configuration has the point symmetry C_3v.


 Subroutine INISYM returns: Found  6 space group operations
 (whereof  6 operations are pure point group operations),
 and found     1 'primitive' translations


----------------------------------------------------------------------------------------

                                     Primitive cell                                     

  volume of cell :    1493.1636

  direct lattice vectors                    reciprocal lattice vectors
     8.813512802  0.000000000  0.000000000     0.113462137 -0.065507406  0.000000000
     4.406756909  7.632725690  0.000000000     0.000000000  0.131014796  0.000000000
     0.000000000  0.000000000 22.196203232     0.000000000  0.000000000  0.045052750

  length of vectors
     8.813512802  8.813512802 22.196203232     0.131014796  0.131014796  0.045052750

  position of ions in fractional coordinates (direct lattice)
     0.000000000  0.000000000  0.237895638
     0.333333343  0.000000000  0.237895638
     0.666666687  0.000000000  0.237895638
     1.000000000  0.333333343  0.237895638
     0.333333313  0.333333343  0.237895638
     0.666666687  0.333333343  0.237895638
     1.000000000  0.666666687  0.237895638
     0.333333343  0.666666687  0.237895638
     0.666666627  0.666666687  0.237895638
     0.111111119  0.111111112  0.345965207
     0.444444418  0.111111112  0.345965207
     0.777777791  0.111111112  0.345965207
     0.111111127  0.444444448  0.345965207
     0.444444478  0.444444448  0.345965207
     0.777777731  0.444444448  0.345965207
     0.111111090  0.777777791  0.345965207
     0.444444448  0.777777791  0.345965207
     0.777777851  0.777777791  0.345965207
     0.889034572  0.221930873  0.453705800
     0.222892879  0.222892864  0.453161960
     0.554214302  0.222892864  0.453161960
     0.887576566  0.556211747  0.453206016
     0.222892834  0.554214302  0.453161960
     0.556211747  0.556211747  0.453206016
     0.889034572  0.889034572  0.453705800
     0.221930903  0.889034572  0.453705800
     0.556211687  0.887576566  0.453206016
     0.000000000  0.000000000  0.562643426
     0.333602496  0.006773743  0.561295001
     0.659623791  0.006773743  0.561295001
     0.006773743  0.333602496  0.561295001
     0.659623791  0.333602496  0.561295001
     0.006773743  0.659623791  0.561295001
     0.333602496  0.659623791  0.561295001
     0.666666627  0.666666687  0.562800356
     0.333333313  0.333333343  0.547908350
     0.333333313  0.333333343  0.627516673
     0.333333313  0.333333343  0.679831036

  ion indices of the primitive-cell ions
   primitive index   ion index
                 1           1
                 2           2
                 3           3
                 4           4
                 5           5
                 6           6
                 7           7
                 8           8
                 9           9
                10          10
                11          11
                12          12
                13          13
                14          14
                15          15
                16          16
                17          17
                18          18
                19          19
                20          20
                21          21
                22          22
                23          23
                24          24
                25          25
                26          26
                27          27
                28          28
                29          29
                30          30
                31          31
                32          32
                33          33
                34          34
                35          35
                36          36
                37          37
                38          38

----------------------------------------------------------------------------------------

 
 
 KPOINTS: Automatic mesh                          

Automatic generation of k-mesh.
 Grid dimensions read from file:
 generate k-points for:    8    8    1

 Generating k-lattice:

  Cartesian coordinates                     Fractional coordinates (reciprocal lattice)
     0.014182767 -0.008188426  0.000000000     0.125000000 -0.000000000  0.000000000
     0.000000000  0.016376850  0.000000000     0.000000000  0.125000000  0.000000000
     0.000000000  0.000000000  0.045052750     0.000000000  0.000000000  1.000000000

  Length of vectors
     0.016376850  0.016376850  0.045052750

  Shift w.r.t. Gamma in fractional coordinates (k-lattice)
     0.000000000  0.000000000  0.000000000

 TETIRR: Found     36 inequivalent tetrahedra from      384
 
 Subroutine IBZKPT returns following result:
 ===========================================
 
 Found     10 irreducible k-points:
 
 Following reciprocal coordinates:
            Coordinates               Weight
  0.000000  0.000000  0.000000      1.000000
  0.125000 -0.000000  0.000000      6.000000
  0.250000 -0.000000  0.000000      6.000000
  0.375000  0.000000  0.000000      6.000000
  0.500000 -0.000000  0.000000      3.000000
  0.250000  0.125000  0.000000      6.000000
  0.375000  0.125000  0.000000     12.000000
  0.500000  0.125000  0.000000     12.000000
  0.500000  0.250000  0.000000      6.000000
 -0.375000  0.250000  0.000000      6.000000
 
 Following cartesian coordinates:
            Coordinates               Weight
  0.000000  0.000000  0.000000      1.000000
  0.014183 -0.008188  0.000000      6.000000
  0.028366 -0.016377  0.000000      6.000000
  0.042548 -0.024565  0.000000      6.000000
  0.056731 -0.032754  0.000000      3.000000
  0.028366 -0.000000  0.000000      6.000000
  0.042548 -0.008188  0.000000     12.000000
  0.056731 -0.016377  0.000000     12.000000
  0.056731 -0.000000  0.000000      6.000000
 -0.042548  0.057319  0.000000      6.000000
 


--------------------------------------------------------------------------------------------------------




 Dimension of arrays:
   k-points           NKPTS =     10   k-points in BZ     NKDIM =     10   number of bands    NBANDS=    252
   number of dos      NEDOS =    301   number of ions     NIONS =     38
   non local maximal  LDIM  =      6   non local SUM 2l+1 LMDIM =     18
   total plane-waves  NPLWV = 290304
   max r-space proj   IRMAX =   2236   max aug-charges    IRDMAX=  12088
   dimension x,y,z NGX =    48 NGY =   48 NGZ =  126
   dimension x,y,z NGXF=    96 NGYF=   96 NGZF=  252
   support grid    NGXF=    96 NGYF=   96 NGZF=  252
   ions per type =              35   1   1   1
   NGX,Y,Z   is equivalent  to a cutoff of   9.05,  9.05,  9.44 a.u.
   NGXF,Y,Z  is equivalent  to a cutoff of  18.11, 18.11, 18.87 a.u.

 SYSTEM =  unknown system                          
 POSCAR =  Au-Ni-CO                                

 Startparameter for this run:
   NWRITE =      2    write-flag & timer
   PREC   = normal    normal or accurate (medium, high low for compatibility)
   ISTART =      0    job   : 0-new  1-cont  2-samecut
   ICHARG =     11    charge: 1-file 2-atom 10-const
   ISPIN  =      1    spin polarized calculation?
   LNONCOLLINEAR =      F non collinear calculations
   LSORBIT =      F    spin-orbit coupling
   INIWAV =      1    electr: 0-lowe 1-rand  2-diag
   LASPH  =      F    aspherical Exc in radial PAW
   METAGGA=      F    non-selfconsistent MetaGGA calc.

 Electronic Relaxation 1
   ENCUT  =  500.0 eV  36.75 Ry    6.06 a.u.  16.07 16.07 40.47*2*pi/ulx,y,z
   ENINI  =  500.0     initial cutoff
   ENAUG  =  644.9 eV  augmentation charge cutoff
   NELM   =    150;   NELMIN=  2; NELMDL= -5     # of ELM steps 
   EDIFF  = 0.1E-04   stopping-criterion for ELM
   LREAL  =      T    real-space projection
   NLSPLINE    = F    spline interpolate recip. space projectors
   LCOMPAT=      F    compatible to vasp.4.4
   GGA_COMPAT  = T    GGA compatible to vasp.4.4-vasp.4.6
   LMAXPAW     = -100 max onsite density
   LMAXMIX     =    2 max onsite mixed and CHGCAR
   VOSKOWN=      0    Vosko Wilk Nusair interpolation
   ROPT   =   -0.00050  -0.00050  -0.00050  -0.00050
 Ionic relaxation
   EDIFFG = -.1E-01   stopping-criterion for IOM
   NSW    =      0    number of steps for IOM
   NBLOCK =      1;   KBLOCK =      1    inner block; outer block 
   IBRION =     -1    ionic relax: 0-MD 1-quasi-New 2-CG
   NFREE  =      1    steps in history (QN), initial steepest desc. (CG)
   ISIF   =      2    stress and relaxation
   IWAVPR =     10    prediction:  0-non 1-charg 2-wave 3-comb
   ISYM   =      2    0-nonsym 1-usesym 2-fastsym
   LCORR  =      T    Harris-Foulkes like correction to forces

   POTIM  = 0.5000    time-step for ionic-motion
   TEIN   =    0.0    initial temperature
   TEBEG  =    0.0;   TEEND  =   0.0 temperature during run
   SMASS  =  -3.00    Nose mass-parameter (am)
   estimated Nose-frequenzy (Omega)   =  0.10E-29 period in steps = 0.13E+47 mass=  -0.178E-26a.u.
   SCALEE = 1.0000    scale energy and forces
   NPACO  =    256;   APACO  = 16.0  distance and # of slots for P.C.
   PSTRESS=    0.0 pullay stress

  Mass of Ions in am
   POMASS = 196.97 58.69 12.01 16.00
  Ionic Valenz
   ZVAL   =  11.00 10.00  4.00  6.00
  Atomic Wigner-Seitz radii
   RWIGS  =  -1.00 -1.00 -1.00 -1.00
  virtual crystal weights 
   VCA    =   1.00  1.00  1.00  1.00
   NELECT =     405.0000    total number of electrons
   NUPDOWN=      -1.0000    fix difference up-down

 DOS related values:
   EMIN   =  10.00;   EMAX   =-10.00  energy-range for DOS
   EFERMI =   0.00
   ISMEAR =    -5;   SIGMA  =   0.10  broadening in eV -4-tet -1-fermi 0-gaus

 Electronic relaxation 2 (details)
   IALGO  =     68    algorithm
   LDIAG  =      T    sub-space diagonalisation (order eigenvalues)
   LSUBROT=      F    optimize rotation matrix (better conditioning)
   TURBO    =      0    0=normal 1=particle mesh
   IRESTART =      0    0=no restart 2=restart with 2 vectors
   NREBOOT  =      0    no. of reboots
   NMIN     =      0    reboot dimension
   EREF     =   0.00    reference energy to select bands
   IMIX   =      4    mixing-type and parameters
     AMIX     =   0.40;   BMIX     =  1.00
     AMIX_MAG =   1.60;   BMIX_MAG =  1.00
     AMIN     =   0.10
     WC   =   100.;   INIMIX=   1;  MIXPRE=   1;  MAXMIX= -45

 Intra band minimization:
   WEIMIN = 0.0000     energy-eigenvalue tresh-hold
   EBREAK =  0.99E-08  absolut break condition
   DEPER  =   0.30     relativ break condition  

   TIME   =   0.40     timestep for ELM

  volume/ion in A,a.u.               =      39.29       265.17
  Fermi-wavevector in a.u.,A,eV,Ry     =   1.059719  2.002578 15.279401  1.123004
  Thomas-Fermi vector in A             =   2.195074
 
 Write flags
   LWAVE        =      F    write WAVECAR
   LDOWNSAMPLE  =      F    k-point downsampling of WAVECAR
   LCHARG       =      F    write CHGCAR
   LVTOT        =      F    write LOCPOT, total local potential
   LVHAR        =      F    write LOCPOT, Hartree potential only
   LELF         =      F    write electronic localiz. function (ELF)
   LORBIT       =     10    0 simple, 1 ext, 2 COOP (PROOUT), +10 PAW based schemes


 Dipole corrections
   LMONO  =      F    monopole corrections only (constant potential shift)
   LDIPOL =      F    correct potential (dipole corrections)
   IDIPOL =      0    1-x, 2-y, 3-z, 4-all directions 
   EPSILON=  1.0000000 bulk dielectric constant

 Exchange correlation treatment:
   GGA     =    --    GGA type
   LEXCH   =     8    internal setting for exchange type
   VOSKOWN=      0    Vosko Wilk Nusair interpolation
   LHFCALC =     F    Hartree Fock is set to
   LHFONE  =     F    Hartree Fock one center treatment
   AEXX    =    0.0000 exact exchange contribution

 Linear response parameters
   LEPSILON=     F    determine dielectric tensor
   LRPA    =     F    only Hartree local field effects (RPA)
   LNABLA  =     F    use nabla operator in PAW spheres
   LVEL    =     F    velocity operator in full k-point grid
   LINTERFAST=   F  fast interpolation
   KINTER  =     0    interpolate to denser k-point grid
   CSHIFT  =0.1000    complex shift for real part using Kramers Kronig
   OMEGAMAX=  -1.0    maximum frequency
   DEG_THRESHOLD= 0.2000000E-02 threshold for treating states as degnerate
   RTIME   =   -0.100 relaxation time in fs
  (WPLASMAI=    0.000 imaginary part of plasma frequency in eV, 0.658/RTIME)
   DFIELD  = 0.0000000 0.0000000 0.0000000 field for delta impulse in time
 
 Orbital magnetization related:
   ORBITALMAG=     F  switch on orbital magnetization
   LCHIMAG   =     F  perturbation theory with respect to B field
   DQ        =  0.001000  dq finite difference perturbation B field
   LLRAUG    =     F  two centre corrections for induced B field



--------------------------------------------------------------------------------------------------------


 Static calculation
 charge density and potential remain constant during run
 non-spin polarized calculation
 RMM-DIIS sequential band-by-band and
  variant of blocked Davidson during initial phase
 perform sub-space diagonalisation
    before iterative eigenvector-optimisation
 no mixing
 using additional bands           49
 real space projection scheme for non local part
 use partial core corrections
 calculate Harris-corrections to forces 
   (improved forces if not selfconsistent)
 use gradient corrections 
 WARNING: stress and forces are not correct
  (second derivative of E(xc) not defined)
 use of overlap-Matrix (Vanderbilt PP)
 Fermi weights with tetrahedron method with Bloechl corrections


--------------------------------------------------------------------------------------------------------


  energy-cutoff  :      500.00
  volume of cell :     1493.16
      direct lattice vectors                 reciprocal lattice vectors
     8.813512802  0.000000000  0.000000000     0.113462137 -0.065507406  0.000000000
     4.406756909  7.632725690  0.000000000     0.000000000  0.131014796  0.000000000
     0.000000000  0.000000000 22.196203232     0.000000000  0.000000000  0.045052750

  length of vectors
     8.813512802  8.813512802 22.196203232     0.131014796  0.131014796  0.045052750


 
 k-points in units of 2pi/SCALE and weight: Automatic mesh                          
   0.00000000  0.00000000  0.00000000       0.016
   0.01418277 -0.00818843  0.00000000       0.094
   0.02836553 -0.01637685  0.00000000       0.094
   0.04254830 -0.02456528  0.00000000       0.094
   0.05673107 -0.03275370  0.00000000       0.047
   0.02836553 -0.00000000  0.00000000       0.094
   0.04254830 -0.00818843  0.00000000       0.188
   0.05673107 -0.01637685  0.00000000       0.188
   0.05673107 -0.00000000  0.00000000       0.094
  -0.04254830  0.05731898  0.00000000       0.094
 
 k-points in reciprocal lattice and weights: Automatic mesh                          
   0.00000000  0.00000000  0.00000000       0.016
   0.12500000 -0.00000000  0.00000000       0.094
   0.25000000 -0.00000000  0.00000000       0.094
   0.37500000  0.00000000  0.00000000       0.094
   0.50000000 -0.00000000  0.00000000       0.047
   0.25000000  0.12500000  0.00000000       0.094
   0.37500000  0.12500000  0.00000000       0.188
   0.50000000  0.12500000  0.00000000       0.188
   0.50000000  0.25000000  0.00000000       0.094
  -0.37500000  0.25000000  0.00000000       0.094
 
 position of ions in fractional coordinates (direct lattice) 
   0.00000000  0.00000000  0.23789564
   0.33333334  0.00000000  0.23789564
   0.66666669  0.00000000  0.23789564
   0.00000000  0.33333334  0.23789564
   0.33333331  0.33333334  0.23789564
   0.66666669  0.33333334  0.23789564
   0.00000000  0.66666669  0.23789564
   0.33333334  0.66666669  0.23789564
   0.66666663  0.66666669  0.23789564
   0.11111112  0.11111111  0.34596521
   0.44444442  0.11111111  0.34596521
   0.77777779  0.11111111  0.34596521
   0.11111113  0.44444445  0.34596521
   0.44444448  0.44444445  0.34596521
   0.77777773  0.44444445  0.34596521
   0.11111109  0.77777779  0.34596521
   0.44444445  0.77777779  0.34596521
   0.77777785  0.77777779  0.34596521
   0.88903457  0.22193087  0.45370580
   0.22289288  0.22289286  0.45316196
   0.55421430  0.22289286  0.45316196
   0.88757657  0.55621175  0.45320602
   0.22289283  0.55421430  0.45316196
   0.55621175  0.55621175  0.45320602
   0.88903457  0.88903457  0.45370580
   0.22193090  0.88903457  0.45370580
   0.55621169  0.88757657  0.45320602
   0.00000000  0.00000000  0.56264343
   0.33360250  0.00677374  0.56129500
   0.65962379  0.00677374  0.56129500
   0.00677374  0.33360250  0.56129500
   0.65962379  0.33360250  0.56129500
   0.00677374  0.65962379  0.56129500
   0.33360250  0.65962379  0.56129500
   0.66666663  0.66666669  0.56280036
   0.33333331  0.33333334  0.54790835
   0.33333331  0.33333334  0.62751667
   0.33333331  0.33333334  0.67983104
 
 position of ions in cartesian coordinates  (Angst):
   0.00000000  0.00000000  5.28037993
   2.93783769  0.00000000  5.28037993
   5.87567538  0.00000000  5.28037993
   1.46891901  2.54424197  5.28037993
   4.40675643  2.54424197  5.28037993
   7.34459439  2.54424197  5.28037993
   2.93783803  5.08848395  5.28037993
   5.87567571  5.08848395  5.28037993
   8.81351288  5.08848395  5.28037993
   1.46891893  0.84808064  7.67911405
   4.40675623  0.84808064  7.67911405
   7.34459418  0.84808064  7.67911405
   2.93783798  3.39232256  7.67911405
   5.87567574  3.39232256  7.67911405
   8.81351263  3.39232256  7.67911405
   4.40675667  5.93656453  7.67911405
   7.34459449  5.93656453  7.67911405
  10.28243270  5.93656453  7.67911405
   8.81351299  1.69393747 10.07054615
   2.94670391  1.70128009 10.05847497
   5.86680951  1.70128009 10.05847497
  10.27375739  4.24541169 10.05945283
   4.40675655  4.23016574 10.05847497
   7.35326931  4.24541169 10.05945283
  11.75327682  6.78575701 10.07054615
   5.87375009  6.78575701 10.07054615
   8.81351299  6.77462846 10.05945283
   0.00000000  0.00000000 12.48854784
   2.97006011  0.05170212 12.45861791
   5.84345296  0.05170212 12.45861791
   1.52980557  2.54629634 12.45861791
   7.28370783  2.54629634 12.45861791
   2.96650217  5.03472745 12.45861791
   5.84701157  5.03472745 12.45861791
   8.81351288  5.08848395 12.49203108
   4.40675643  2.54424197 12.16148509
   4.40675643  2.54424197 13.92848760
   4.40675643  2.54424197 15.08966785
 


--------------------------------------------------------------------------------------------------------


 k-point   1 :   0.0000 0.0000 0.0000  plane waves:   37827
 k-point   2 :   0.1250-0.0000 0.0000  plane waves:   37876
 k-point   3 :   0.2500-0.0000 0.0000  plane waves:   37924
 k-point   4 :   0.3750 0.0000 0.0000  plane waves:   37904
 k-point   5 :   0.5000-0.0000 0.0000  plane waves:   37912
 k-point   6 :   0.2500 0.1250 0.0000  plane waves:   37858
 k-point   7 :   0.3750 0.1250 0.0000  plane waves:   37928
 k-point   8 :   0.5000 0.1250 0.0000  plane waves:   37924
 k-point   9 :   0.5000 0.2500 0.0000  plane waves:   37926
 k-point  10 :  -0.3750 0.2500 0.0000  plane waves:   37916

 maximum and minimum number of plane-waves per node :     37928    37827

 maximum number of plane-waves:     37928
 maximum index in each direction: 
   IXMAX=   16   IYMAX=   16   IZMAX=   40
   IXMIN=  -16   IYMIN=  -16   IZMIN=  -40


 serial   3D FFT for wavefunctions
 parallel 3D FFT for charge:
    minimum data exchange during FFTs selected (reduces bandwidth)


 total amount of memory used by VASP MPI-rank0   122753. kBytes
=======================================================================

   base      :      30000. kBytes
   nonlr-proj:      13573. kBytes
   fftplans  :       4330. kBytes
   grid      :      18659. kBytes
   one-center:        590. kBytes
   wavefun   :      55601. kBytes
 
     INWAV:  cpu time    0.0000: real time    0.0000
 initial charge density was supplied:
 number of electron     405.0000045 magnetization 
 keeping initial charge density in first step


--------------------------------------------------------------------------------------------------------


 Maximum index for non-local projection operator         2122
 Maximum index for augmentation-charges          854 (set IRDMAX)


--------------------------------------------------------------------------------------------------------


 First call to EWALD:  gamma=   0.155
 Maximum number of real-space cells 4x 4x 2
 Maximum number of reciprocal cells 2x 2x 5

    FEWALD:  cpu time    0.0013: real time    0.0013


--------------------------------------- Iteration      1(   1)  ---------------------------------------


    POTLOK:  cpu time    0.0429: real time    0.0433
    SETDIJ:  cpu time    0.0053: real time    0.0054
     EDDAV:  cpu time    7.1285: real time    7.1301
 BZINTS: Fermi energy:   11.705705;  405.000000 electrons
         Band energy: 0.161614E+04;  BLOECHL correction:   -0.012483
       DOS:  cpu time    0.0107: real time    0.0108
    --------------------------------------------
      LOOP:  cpu time    7.1874: real time    7.1896

 eigenvalue-minimisations  :  5040
 total energy-change (2. order) : 0.2730630E+04  (-0.1845023E+05)
 number of electron     405.0000045 magnetization 
 augmentation part      405.0000045 magnetization 

 Free energy of the ion-electron system (eV)
  ---------------------------------------------------
  alpha Z        PSCENC =      1030.93198237
  Ewald energy   TEWEN  =     96765.22769654
  -Hartree energ DENC   =   -132000.62304924
  -exchange      EXHF   =         0.00000000
  -V(xc)+E(xc)   XCENC  =       589.35665567
  PAW double counting   =     37180.51865098   -36520.98697140
  entropy T*S    EENTRO =         0.00000000
  eigenvalues    EBANDS =      1616.14295747
  atomic energy  EATOM  =     34070.06197058
  Solvation  Ediel_sol  =         0.00000000
  ---------------------------------------------------
  free energy    TOTEN  =      2730.62989297 eV

  energy without entropy =     2730.62989297  energy(sigma->0) =     2730.62989297


--------------------------------------------------------------------------------------------------------




--------------------------------------- Iteration      1(   2)  ---------------------------------------


     EDDAV:  cpu time    7.7246: real time    7.7248
 BZINTS: Fermi energy:    1.484198;  405.000000 electrons
         Band energy:-0.109229E+04;  BLOECHL correction:   -0.059353
       DOS:  cpu time    0.0094: real time    0.0094
    --------------------------------------------
      LOOP:  cpu time    7.7341: real time    7.7343

 eigenvalue-minimisations  :  5600
 total energy-change (2. order) :-0.2708437E+04  (-0.2521985E+04)
 number of electron     405.0000045 magnetization 
 augmentation part      405.0000045 magnetization 

 Free energy of the ion-electron system (eV)
  ---------------------------------------------------
  alpha Z        PSCENC =      1030.93198237
  Ewald energy   TEWEN  =     96765.22769654
  -Hartree energ DENC   =   -132000.62304924
  -exchange      EXHF   =         0.00000000
  -V(xc)+E(xc)   XCENC  =       589.35665567
  PAW double counting   =     37180.51865098   -36520.98697140
  entropy T*S    EENTRO =         0.00000000
  eigenvalues    EBANDS =     -1092.29386788
  atomic energy  EATOM  =     34070.06197058
  Solvation  Ediel_sol  =         0.00000000
  ---------------------------------------------------
  free energy    TOTEN  =        22.19306761 eV

  energy without entropy =       22.19306761  energy(sigma->0) =       22.19306761


--------------------------------------------------------------------------------------------------------




--------------------------------------- Iteration      1(   3)  ---------------------------------------


     EDDAV:  cpu time    7.8747: real time    7.8748
 BZINTS: Fermi energy:    0.766094;  405.000000 electrons
         Band energy:-0.123868E+04;  BLOECHL correction:   -0.075997
       DOS:  cpu time    0.0100: real time    0.0100
    --------------------------------------------
      LOOP:  cpu time    7.8847: real time    7.8848

 eigenvalue-minimisations  :  5712
 total energy-change (2. order) :-0.1463812E+03  (-0.1421040E+03)
 number of electron     405.0000045 magnetization 
 augmentation part      405.0000045 magnetization 

 Free energy of the ion-electron system (eV)
  ---------------------------------------------------
  alpha Z        PSCENC =      1030.93198237
  Ewald energy   TEWEN  =     96765.22769654
  -Hartree energ DENC   =   -132000.62304924
  -exchange      EXHF   =         0.00000000
  -V(xc)+E(xc)   XCENC  =       589.35665567
  PAW double counting   =     37180.51865098   -36520.98697140
  entropy T*S    EENTRO =         0.00000000
  eigenvalues    EBANDS =     -1238.67511520
  atomic energy  EATOM  =     34070.06197058
  Solvation  Ediel_sol  =         0.00000000
  ---------------------------------------------------
  free energy    TOTEN  =      -124.18817970 eV

  energy without entropy =     -124.18817970  energy(sigma->0) =     -124.18817970


--------------------------------------------------------------------------------------------------------




--------------------------------------- Iteration      1(   4)  ---------------------------------------


     EDDAV:  cpu time    7.8462: real time    7.8463
 BZINTS: Fermi energy:    0.746969;  405.000000 electrons
         Band energy:-0.124208E+04;  BLOECHL correction:   -0.075051
       DOS:  cpu time    0.0103: real time    0.0103
    --------------------------------------------
      LOOP:  cpu time    7.8564: real time    7.8565

 eigenvalue-minimisations  :  5684
 total energy-change (2. order) :-0.3400246E+01  (-0.3384972E+01)
 number of electron     405.0000045 magnetization 
 augmentation part      405.0000045 magnetization 

 Free energy of the ion-electron system (eV)
  ---------------------------------------------------
  alpha Z        PSCENC =      1030.93198237
  Ewald energy   TEWEN  =     96765.22769654
  -Hartree energ DENC   =   -132000.62304924
  -exchange      EXHF   =         0.00000000
  -V(xc)+E(xc)   XCENC  =       589.35665567
  PAW double counting   =     37180.51865098   -36520.98697140
  entropy T*S    EENTRO =         0.00000000
  eigenvalues    EBANDS =     -1242.07536165
  atomic energy  EATOM  =     34070.06197058
  Solvation  Ediel_sol  =         0.00000000
  ---------------------------------------------------
  free energy    TOTEN  =      -127.58842615 eV

  energy without entropy =     -127.58842615  energy(sigma->0) =     -127.58842615


--------------------------------------------------------------------------------------------------------




--------------------------------------- Iteration      1(   5)  ---------------------------------------


     EDDAV:  cpu time    8.7000: real time    8.7002
 BZINTS: Fermi energy:    0.746863;  405.000000 electrons
         Band energy:-0.124218E+04;  BLOECHL correction:   -0.075017
       DOS:  cpu time    0.0096: real time    0.0096
    --------------------------------------------
      LOOP:  cpu time    8.7096: real time    8.7098

 eigenvalue-minimisations  :  6440
 total energy-change (2. order) :-0.1054850E+00  (-0.1054206E+00)
 number of electron     405.0000045 magnetization 
 augmentation part      405.0000045 magnetization 

 Free energy of the ion-electron system (eV)
  ---------------------------------------------------
  alpha Z        PSCENC =      1030.93198237
  Ewald energy   TEWEN  =     96765.22769654
  -Hartree energ DENC   =   -132000.62304924
  -exchange      EXHF   =         0.00000000
  -V(xc)+E(xc)   XCENC  =       589.35665567
  PAW double counting   =     37180.51865098   -36520.98697140
  entropy T*S    EENTRO =         0.00000000
  eigenvalues    EBANDS =     -1242.18084668
  atomic energy  EATOM  =     34070.06197058
  Solvation  Ediel_sol  =         0.00000000
  ---------------------------------------------------
  free energy    TOTEN  =      -127.69391118 eV

  energy without entropy =     -127.69391118  energy(sigma->0) =     -127.69391118


--------------------------------------------------------------------------------------------------------




--------------------------------------- Iteration      1(   6)  ---------------------------------------


    EDDIAG:  cpu time    1.4011: real time    1.4013
  RMM-DIIS:  cpu time    3.9545: real time    3.9546
    ORTHCH:  cpu time    0.2619: real time    0.2619
 BZINTS: Fermi energy:    0.746862;  405.000000 electrons
         Band energy:-0.124218E+04;  BLOECHL correction:   -0.075017
       DOS:  cpu time    0.0101: real time    0.0101
    --------------------------------------------
      LOOP:  cpu time    5.6275: real time    5.6278

 eigenvalue-minimisations  :  5115
 total energy-change (2. order) :-0.2398851E-02  (-0.2398921E-02)
 number of electron     405.0000045 magnetization 
 augmentation part      405.0000045 magnetization 

 Free energy of the ion-electron system (eV)
  ---------------------------------------------------
  alpha Z        PSCENC =      1030.93198237
  Ewald energy   TEWEN  =     96765.22769654
  -Hartree energ DENC   =   -132000.62304924
  -exchange      EXHF   =         0.00000000
  -V(xc)+E(xc)   XCENC  =       589.35665567
  PAW double counting   =     37180.51865098   -36520.98697140
  entropy T*S    EENTRO =         0.00000000
  eigenvalues    EBANDS =     -1242.18324553
  atomic energy  EATOM  =     34070.06197058
  Solvation  Ediel_sol  =         0.00000000
  ---------------------------------------------------
  free energy    TOTEN  =      -127.69631003 eV

  energy without entropy =     -127.69631003  energy(sigma->0) =     -127.69631003


--------------------------------------------------------------------------------------------------------




--------------------------------------- Iteration      1(   7)  ---------------------------------------


    EDDIAG:  cpu time    1.4020: real time    1.4023
  RMM-DIIS:  cpu time    5.4300: real time    5.4300
    ORTHCH:  cpu time    0.2620: real time    0.2620
 BZINTS: Fermi energy:    0.746862;  405.000000 electrons
         Band energy:-0.124218E+04;  BLOECHL correction:   -0.075017
       DOS:  cpu time    0.0103: real time    0.0103
    --------------------------------------------
      LOOP:  cpu time    7.1043: real time    7.1046

 eigenvalue-minimisations  :  7158
 total energy-change (2. order) :-0.8305471E-03  (-0.8214951E-03)
 number of electron     405.0000045 magnetization 
 augmentation part      405.0000045 magnetization 

 Free energy of the ion-electron system (eV)
  ---------------------------------------------------
  alpha Z        PSCENC =      1030.93198237
  Ewald energy   TEWEN  =     96765.22769654
  -Hartree energ DENC   =   -132000.62304924
  -exchange      EXHF   =         0.00000000
  -V(xc)+E(xc)   XCENC  =       589.35665567
  PAW double counting   =     37180.51865098   -36520.98697140
  entropy T*S    EENTRO =         0.00000000
  eigenvalues    EBANDS =     -1242.18407608
  atomic energy  EATOM  =     34070.06197058
  Solvation  Ediel_sol  =         0.00000000
  ---------------------------------------------------
  free energy    TOTEN  =      -127.69714058 eV

  energy without entropy =     -127.69714058  energy(sigma->0) =     -127.69714058


--------------------------------------------------------------------------------------------------------




--------------------------------------- Iteration      1(   8)  ---------------------------------------


    EDDIAG:  cpu time    1.4029: real time    1.4030
  RMM-DIIS:  cpu time    4.1728: real time    4.1729
    ORTHCH:  cpu time    0.2621: real time    0.2621
 BZINTS: Fermi energy:    0.746862;  405.000000 electrons
         Band energy:-0.124218E+04;  BLOECHL correction:   -0.075017
       DOS:  cpu time    0.0103: real time    0.0103
    --------------------------------------------
      LOOP:  cpu time    5.8480: real time    5.8481

 eigenvalue-minimisations  :  5327
 total energy-change (2. order) :-0.4451085E-04  (-0.4433322E-04)
 number of electron     405.0000045 magnetization 
 augmentation part      405.0000045 magnetization 

 Free energy of the ion-electron system (eV)
  ---------------------------------------------------
  alpha Z        PSCENC =      1030.93198237
  Ewald energy   TEWEN  =     96765.22769654
  -Hartree energ DENC   =   -132000.62304924
  -exchange      EXHF   =         0.00000000
  -V(xc)+E(xc)   XCENC  =       589.35665567
  PAW double counting   =     37180.51865098   -36520.98697140
  entropy T*S    EENTRO =         0.00000000
  eigenvalues    EBANDS =     -1242.18412059
  atomic energy  EATOM  =     34070.06197058
  Solvation  Ediel_sol  =         0.00000000
  ---------------------------------------------------
  free energy    TOTEN  =      -127.69718509 eV

  energy without entropy =     -127.69718509  energy(sigma->0) =     -127.69718509


--------------------------------------------------------------------------------------------------------




--------------------------------------- Iteration      1(   9)  ---------------------------------------


    EDDIAG:  cpu time    1.4019: real time    1.4052
  RMM-DIIS:  cpu time    4.0727: real time    4.0728
    ORTHCH:  cpu time    0.2620: real time    0.2620
 BZINTS: Fermi energy:    0.746862;  405.000000 electrons
         Band energy:-0.124218E+04;  BLOECHL correction:   -0.075017
       DOS:  cpu time    0.0100: real time    0.0100
    --------------------------------------------
      LOOP:  cpu time    5.7467: real time    5.7501

 eigenvalue-minimisations  :  4681
 total energy-change (2. order) :-0.1120090E-04  (-0.1120570E-04)
 number of electron     405.0000045 magnetization 
 augmentation part      405.0000045 magnetization 

 Free energy of the ion-electron system (eV)
  ---------------------------------------------------
  alpha Z        PSCENC =      1030.93198237
  Ewald energy   TEWEN  =     96765.22769654
  -Hartree energ DENC   =   -132000.62304924
  -exchange      EXHF   =         0.00000000
  -V(xc)+E(xc)   XCENC  =       589.35665567
  PAW double counting   =     37180.51865098   -36520.98697140
  entropy T*S    EENTRO =         0.00000000
  eigenvalues    EBANDS =     -1242.18413179
  atomic energy  EATOM  =     34070.06197058
  Solvation  Ediel_sol  =         0.00000000
  ---------------------------------------------------
  free energy    TOTEN  =      -127.69719629 eV

  energy without entropy =     -127.69719629  energy(sigma->0) =     -127.69719629


--------------------------------------------------------------------------------------------------------




--------------------------------------- Iteration      1(  10)  ---------------------------------------


    EDDIAG:  cpu time    1.4014: real time    1.4015
  RMM-DIIS:  cpu time    2.9769: real time    2.9769
    ORTHCH:  cpu time    0.2616: real time    0.2616
 BZINTS: Fermi energy:    0.746862;  405.000000 electrons
         Band energy:-0.124218E+04;  BLOECHL correction:   -0.075017
       DOS:  cpu time    0.0102: real time    0.0102
    --------------------------------------------
      LOOP:  cpu time    4.6501: real time    4.6503

 eigenvalue-minimisations  :  3130
 total energy-change (2. order) :-0.1099892E-05  (-0.1229494E-05)
 number of electron     405.0000045 magnetization 
 augmentation part      405.0000045 magnetization 

 Free energy of the ion-electron system (eV)
  ---------------------------------------------------
  alpha Z        PSCENC =      1030.93198237
  Ewald energy   TEWEN  =     96765.22769654
  -Hartree energ DENC   =   -132000.62304924
  -exchange      EXHF   =         0.00000000
  -V(xc)+E(xc)   XCENC  =       589.35665567
  PAW double counting   =     37180.51865098   -36520.98697140
  entropy T*S    EENTRO =         0.00000000
  eigenvalues    EBANDS =     -1242.18413289
  atomic energy  EATOM  =     34070.06197058
  Solvation  Ediel_sol  =         0.00000000
  ---------------------------------------------------
  free energy    TOTEN  =      -127.69719739 eV

  energy without entropy =     -127.69719739  energy(sigma->0) =     -127.69719739


--------------------------------------------------------------------------------------------------------




 average (electrostatic) potential at core
  the test charge radii are     1.2098  0.9791  0.6991  0.7215
  (the norm of the test charge is              1.0000)
       1 -72.3025       2 -72.2481       3 -72.2480       4 -72.2481       5 -72.2473
       6 -72.2478       7 -72.2480       8 -72.2478       9 -72.2562      10 -72.6083
      11 -72.5660      12 -72.6080      13 -72.5660      14 -72.5656      15 -72.6019
      16 -72.6080      17 -72.6019      18 -72.6020      19 -72.5534      20 -72.6501
      21 -72.6497      22 -72.5887      23 -72.6497      24 -72.5883      25 -72.5534
      26 -72.5534      27 -72.5887      28 -72.1938      29 -72.1994      30 -72.1994
      31 -72.1994      32 -72.1991      33 -72.1994      34 -72.1991      35 -72.1586
      36 -90.4951      37 -56.2709      38 -77.0621
 
 
 
 E-fermi :   0.7469     XC(G=0):  -6.1871     alpha+bet : -5.8031

 Fermi energy:         0.7468619712

 k-point     1 :       0.0000    0.0000    0.0000
  band No.  band energies     occupation 
      1     -22.8452      2.00000
      2      -8.6039      2.00000
      3      -8.0246      2.00000
      4      -6.8811      2.00000
      5      -6.1420      2.00000
      6      -5.9153      2.00000
      7      -5.8970      2.00000
      8      -5.8969      2.00000
      9      -5.8813      2.00000
     10      -5.8712      2.00000
     11      -5.8699      2.00000
     12      -5.8699      2.00000
     13      -5.7213      2.00000
     14      -5.7212      2.00000
     15      -5.6106      2.00000
     16      -5.4104      2.00000
     17      -5.3985      2.00000
     18      -5.3985      2.00000
     19      -5.3766      2.00000
     20      -5.3765      2.00000
     21      -5.3296      2.00000
     22      -5.0193      2.00000
     23      -5.0193      2.00000
     24      -5.0101      2.00000
     25      -4.9886      2.00000
     26      -4.9776      2.00000
     27      -4.9776      2.00000
     28      -4.8402      2.00000
     29      -4.8401      2.00000
     30      -4.8399      2.00000
     31      -4.8173      2.00000
     32      -4.8173      2.00000
     33      -4.7667      2.00000
     34      -4.6862      2.00000
     35      -4.6862      2.00000
     36      -4.6636      2.00000
     37      -4.6636      2.00000
     38      -4.6560      2.00000
     39      -4.6396      2.00000
     40      -4.6396      2.00000
     41      -4.6386      2.00000
     42      -4.6346      2.00000
     43      -4.4677      2.00000
     44      -4.4677      2.00000
     45      -4.4013      2.00000
     46      -4.1694      2.00000
     47      -4.1694      2.00000
     48      -4.1313      2.00000
     49      -4.1247      2.00000
     50      -4.1246      2.00000
     51      -4.0991      2.00000
     52      -4.0990      2.00000
     53      -4.0655      2.00000
     54      -4.0389      2.00000
     55      -4.0389      2.00000
     56      -4.0102      2.00000
     57      -4.0008      2.00000
     58      -3.9791      2.00000
     59      -3.9433      2.00000
     60      -3.5822      2.00000
     61      -3.5755      2.00000
     62      -3.5602      2.00000
     63      -3.5602      2.00000
     64      -3.5354      2.00000
     65      -3.5354      2.00000
     66      -3.5132      2.00000
     67      -3.5061      2.00000
     68      -3.5061      2.00000
     69      -3.4536      2.00000
     70      -3.4536      2.00000
     71      -3.4060      2.00000
     72      -3.4060      2.00000
     73      -3.3967      2.00000
     74      -3.3487      2.00000
     75      -3.3417      2.00000
     76      -3.3416      2.00000
     77      -3.3166      2.00000
     78      -3.3166      2.00000
     79      -3.3141      2.00000
     80      -3.3068      2.00000
     81      -3.3068      2.00000
     82      -3.3016      2.00000
     83      -3.2887      2.00000
     84      -3.2887      2.00000
     85      -3.2496      2.00000
     86      -3.2496      2.00000
     87      -3.2231      2.00000
     88      -3.1900      2.00000
     89      -3.1900      2.00000
     90      -3.1867      2.00000
     91      -3.1704      2.00000
     92      -3.1704      2.00000
     93      -3.1117      2.00000
     94      -3.0822      2.00000
     95      -3.0822      2.00000
     96      -2.9242      2.00000
     97      -2.9242      2.00000
     98      -2.8978      2.00000
     99      -2.8978      2.00000
    100      -2.8891      2.00000
    101      -2.8891      2.00000
    102      -2.7849      2.00000
    103      -2.7849      2.00000
    104      -2.7216      2.00000
    105      -2.7216      2.00000
    106      -2.7154      2.00000
    107      -2.6653      2.00000
    108      -2.6592      2.00000
    109      -2.6592      2.00000
    110      -2.5213      2.00000
    111      -2.5080      2.00000
    112      -2.5080      2.00000
    113      -2.4971      2.00000
    114      -2.4971      2.00000
    115      -2.4855      2.00000
    116      -2.4624      2.00000
    117      -2.4090      2.00000
    118      -2.4090      2.00000
    119      -2.3853      2.00000
    120      -2.3769      2.00000
    121      -2.2482      2.00000
    122      -2.2367      2.00000
    123      -2.2367      2.00000
    124      -2.1989      2.00000
    125      -2.1989      2.00000
    126      -2.1849      2.00000
    127      -2.1386      2.00000
    128      -2.1386      2.00000
    129      -2.1088      2.00000
    130      -2.1088      2.00000
    131      -2.0554      2.00000
    132      -2.0554      2.00000
    133      -1.9542      2.00000
    134      -1.9542      2.00000
    135      -1.9521      2.00000
    136      -1.9520      2.00000
    137      -1.9472      2.00000
    138      -1.9366      2.00000
    139      -1.9339      2.00000
    140      -1.9339      2.00000
    141      -1.9213      2.00000
    142      -1.8909      2.00000
    143      -1.8908      2.00000
    144      -1.7952      2.00000
    145      -1.7951      2.00000
    146      -1.7850      2.00000
    147      -1.6830      2.00000
    148      -1.6829      2.00000
    149      -1.6772      2.00000
    150      -1.6635      2.00000
    151      -1.6634      2.00000
    152      -1.6528      2.00000
    153      -1.6527      2.00000
    154      -1.6355      2.00000
    155      -1.6189      2.00000
    156      -1.6188      2.00000
    157      -1.6186      2.00000
    158      -1.6178      2.00000
    159      -1.5048      2.00000
    160      -1.4825      2.00000
    161      -1.4799      2.00000
    162      -1.4799      2.00000
    163      -1.4781      2.00000
    164      -1.4717      2.00000
    165      -1.4665      2.00000
    166      -1.4664      2.00000
    167      -1.4321      2.00000
    168      -1.4320      2.00000
    169      -1.4209      2.00000
    170      -1.4209      2.00000
    171      -1.4137      2.00000
    172      -1.4137      2.00000
    173      -1.3861      2.00000
    174      -1.3861      2.00000
    175      -1.3687      2.00000
    176      -1.3585      2.00000
    177      -1.3537      2.00000
    178      -1.3537      2.00000
    179      -1.3507      2.00000
    180      -1.3004      2.00000
    181      -1.3004      2.00000
    182      -1.2971      2.00000
    183      -1.2877      2.00000
    184      -1.2812      2.00000
    185      -1.2573      2.00000
    186      -1.2573      2.00000
    187      -1.2447      2.00000
    188      -1.1994      2.00000
    189      -1.1993      2.00000
    190      -1.1037      2.00000
    191      -1.1037      2.00000
    192      -1.0537      2.00000
    193      -1.0537      2.00000
    194      -1.0297      2.00000
    195      -1.0188      2.00000
    196      -0.7451      2.00000
    197      -0.7451      2.00000
    198      -0.5113      2.00000
    199      -0.1645      2.00000
    200      -0.1645      2.00000
    201      -0.1260      2.00000
    202       0.2116      2.00000
    203       0.2133      2.00000
    204       0.2134      2.00000
    205       0.2560      2.00000
    206       0.2561      2.00000
    207       0.9571      0.00000
    208       1.5743      0.00000
    209       2.3331      0.00000
    210       2.3331      0.00000
    211       2.3555      0.00000
    212       2.3822      0.00000
    213       2.3822      0.00000
    214       3.0637      0.00000
    215       3.4038      0.00000
    216       3.4039      0.00000
    217       3.5417      0.00000
    218       3.5418      0.00000
    219       3.6284      0.00000
    220       3.8068      0.00000
    221       3.9731      0.00000
    222       3.9731      0.00000
    223       4.2188      0.00000
    224       4.7942      0.00000
[...]
  0.000   0.000   0.000   0.000   0.000   0.000   0.000   0.000   0.000   0.000   0.000   0.000   0.000   0.000   0.000   0.000
  0.000   0.000   0.000   0.000   0.000   0.000   0.000   0.000   0.000   0.000   0.000   0.000   0.000   0.000   0.000   0.000
  0.000   0.000   0.000   0.000   0.000   0.000   0.000   0.000   0.000   0.000   1.000   0.000   0.000   0.000   0.000   0.000
  0.000   0.000   0.000   0.000   0.000   0.000   0.000   0.000   0.000   0.000   0.000   0.000   0.000   0.000   0.000   0.000
  0.000   0.000   0.000   0.000   0.000   0.000   0.000   0.000   0.000   0.000   0.000   0.000   0.000   0.000   0.000   0.000
  0.000   0.000   0.000   0.000   0.000   0.000   0.000   0.000   0.000   0.000   0.000   0.000   0.000   0.000   0.000   0.000
  0.000   0.000   0.000   0.000   0.000   0.000   0.000   0.000   0.000   0.000   0.000   0.000   0.000   0.000   0.000   0.000
  0.000   0.000   0.000   0.000   0.000   0.000   0.000   0.000   0.000   0.000   0.000   0.000   0.000   0.000   0.000   0.000
  0.000   0.000   0.000   0.000   0.000   0.000   0.000   0.000   0.000   0.000   0.000   0.000   0.000   0.000   0.000   0.000
  0.000   0.000   0.000   0.000   0.000   0.000   0.000   0.000   0.000   0.000   0.000   0.000   0.000   0.000   0.000   0.000


------------------------ aborting loop because EDIFF is reached ----------------------------------------





 total charge

# of ion       s       p       d       tot
------------------------------------------
    1        0.542   0.239   8.767   9.547
    2        0.545   0.240   8.766   9.550
    3        0.545   0.240   8.766   9.550
    4        0.545   0.240   8.766   9.550
    5        0.543   0.241   8.765   9.549
    6        0.545   0.240   8.766   9.550
    7        0.545   0.240   8.766   9.550
    8        0.545   0.240   8.766   9.550
    9        0.541   0.240   8.768   9.549
   10        0.520   0.307   8.774   9.600
   11        0.523   0.307   8.778   9.608
   12        0.520   0.307   8.774   9.600
   13        0.523   0.307   8.778   9.608
   14        0.523   0.307   8.778   9.608
   15        0.514   0.310   8.775   9.599
   16        0.520   0.307   8.774   9.600
   17        0.514   0.310   8.775   9.599
   18        0.514   0.310   8.775   9.599
   19        0.517   0.302   8.777   9.596
   20        0.538   0.326   8.759   9.622
   21        0.538   0.326   8.759   9.622
   22        0.514   0.310   8.774   9.598
   23        0.538   0.326   8.759   9.622
   24        0.514   0.310   8.774   9.598
   25        0.517   0.302   8.777   9.596
   26        0.517   0.302   8.777   9.596
   27        0.514   0.310   8.774   9.598
   28        0.539   0.226   8.767   9.532
   29        0.542   0.233   8.773   9.548
   30        0.542   0.233   8.773   9.548
   31        0.542   0.233   8.773   9.548
   32        0.542   0.233   8.773   9.548
   33        0.542   0.233   8.773   9.548
   34        0.542   0.233   8.773   9.548
   35        0.540   0.225   8.769   9.534
   36        0.420   0.478   8.399   9.298
   37        0.972   1.539   0.000   2.511
   38        1.618   3.526   0.000   5.144
--------------------------------------------------
tot         21.610  15.136 315.376 352.122
 
    CHARGE:  cpu time    0.3354: real time    0.3355
    FORLOC:  cpu time    0.0110: real time    0.0110
    FORNL :  cpu time    1.4492: real time    1.4493
    STRESS:  cpu time    4.3362: real time    4.3364
    FORCOR:  cpu time    0.0461: real time    0.0462
    FORHAR:  cpu time    0.0177: real time    0.0178
    OFIELD:  cpu time    0.0002: real time    0.0002

  FORCE on cell =-STRESS in cart. coord.  units (eV):
  Direction    XX          YY          ZZ          XY          YZ          ZX
  --------------------------------------------------------------------------------------
  Alpha Z  1030.93198  1030.93198  1030.93198
  Ewald  119459.74888119459.74934************    -0.00031    -0.00008    -0.00011
  Hartree128578.71459128578.71461************     0.00001    -0.00002    -0.00002
  E(xc)   -1827.73023 -1827.73031 -1832.92235     0.00007    -0.00001    -0.00002
  Local  ************************259965.36691     0.00229     0.00001    -0.00004
  n-local  -109.55722   -65.41301   -74.66722    22.36765    -1.39134     1.39969
  augment  2554.38018  2554.38195  2555.05800    -0.00153     0.00001     0.00005
  Kinetic  5623.63426  5630.76451  5637.88460     4.99153     0.20030     0.43095
  Fock        0.00000     0.00000     0.00000     0.00000     0.00000     0.00000
  -------------------------------------------------------------------------------------
  Total     -18.60012   -18.60012     2.37087    -0.00000     0.00000     0.00000
  in kB     -19.95809   -19.95808     2.54396    -0.00000     0.00000     0.00000
  external pressure =      -12.46 kB  Pullay stress =        0.00 kB


 VOLUME and BASIS-vectors are now :
 -----------------------------------------------------------------------------
  energy-cutoff  :      500.00
  volume of cell :     1493.16
      direct lattice vectors                 reciprocal lattice vectors
     8.813512802  0.000000000  0.000000000     0.113462137 -0.065507406  0.000000000
     4.406756909  7.632725690  0.000000000     0.000000000  0.131014796  0.000000000
     0.000000000  0.000000000 22.196203232     0.000000000  0.000000000  0.045052750

  length of vectors
     8.813512802  8.813512802 22.196203232     0.131014796  0.131014796  0.045052750


 FORCES acting on ions
    electron-ion (+dipol)            ewald-force                    non-local-force                 convergence-correction
 -----------------------------------------------------------------------------------------------
   -.194E-04 -.162E-04 0.251E+04   0.519E-04 0.434E-04 -.251E+04   -.131E-17 0.218E-17 -.980E+00   -.261E-03 -.164E-03 -.582E+00
   0.558E+00 0.591E+00 0.251E+04   -.600E+00 -.600E+00 -.251E+04   0.397E-01 0.552E-01 -.366E+00   -.194E-03 -.350E-01 -.641E+00
   -.558E+00 0.591E+00 0.251E+04   0.600E+00 -.600E+00 -.251E+04   -.397E-01 0.552E-01 -.366E+00   0.539E-03 -.330E-01 -.640E+00
   0.790E+00 0.188E+00 0.251E+04   -.820E+00 -.219E+00 -.251E+04   0.677E-01 0.680E-02 -.366E+00   -.304E-01 0.173E-01 -.641E+00
   0.924E-05 -.229E-04 0.251E+04   0.951E-04 0.172E-05 -.251E+04   -.189E-17 -.297E-17 -.285E+00   0.434E-02 0.264E-02 -.612E+00
   -.790E+00 0.188E+00 0.251E+04   0.820E+00 -.219E+00 -.251E+04   -.677E-01 0.680E-02 -.366E+00   0.288E-01 0.182E-01 -.640E+00
   0.233E+00 -.778E+00 0.251E+04   -.220E+00 0.820E+00 -.251E+04   0.280E-01 -.620E-01 -.366E+00   -.283E-01 0.170E-01 -.640E+00
   -.233E+00 -.778E+00 0.251E+04   0.220E+00 0.820E+00 -.251E+04   -.280E-01 -.620E-01 -.366E+00   0.302E-01 0.158E-01 -.640E+00
   0.194E-04 -.415E-04 0.251E+04   0.166E-03 -.201E-04 -.251E+04   -.163E-17 -.114E-17 -.617E+00   -.462E-02 -.239E-02 -.660E+00
   0.515E+01 0.297E+01 0.883E+03   -.474E+01 -.274E+01 -.882E+03   -.266E+00 -.154E+00 -.619E+00   -.968E-01 -.560E-01 -.321E+00
   0.152E-04 0.685E+01 0.893E+03   0.147E-03 -.683E+01 -.892E+03   0.243E-08 0.365E-01 -.374E+00   0.417E-02 -.862E-01 -.308E+00
   -.515E+01 0.297E+01 0.883E+03   0.474E+01 -.274E+01 -.882E+03   0.266E+00 -.154E+00 -.619E+00   0.952E-01 -.544E-01 -.320E+00
   0.593E+01 -.342E+01 0.893E+03   -.591E+01 0.341E+01 -.892E+03   0.316E-01 -.183E-01 -.374E+00   -.723E-01 0.470E-01 -.308E+00
   -.593E+01 -.342E+01 0.893E+03   0.591E+01 0.341E+01 -.892E+03   -.316E-01 -.183E-01 -.374E+00   0.803E-01 0.462E-01 -.308E+00
   0.303E-04 0.172E+01 0.883E+03   0.237E-03 -.171E+01 -.883E+03   -.226E-08 -.339E-01 -.489E+00   -.262E-02 0.114E-01 -.304E+00
   -.218E-04 -.594E+01 0.883E+03   0.163E-03 0.548E+01 -.882E+03   0.204E-07 0.307E+00 -.619E+00   0.190E-03 0.110E+00 -.320E+00
   0.149E+01 -.860E+00 0.883E+03   -.149E+01 0.857E+00 -.883E+03   -.293E-01 0.169E-01 -.489E+00   0.883E-02 -.755E-02 -.304E+00
   -.149E+01 -.860E+00 0.883E+03   0.148E+01 0.857E+00 -.883E+03   0.293E-01 0.169E-01 -.489E+00   -.859E-02 -.521E-02 -.303E+00
   -.392E-04 0.348E+01 -.784E+03   0.526E-04 -.357E+01 0.783E+03   0.636E-08 0.955E-01 0.736E+00   -.460E-02 0.545E-02 0.321E+00
   0.443E+02 0.256E+02 -.720E+03   -.434E+02 -.251E+02 0.721E+03   -.819E+00 -.473E+00 -.875E+00   -.269E-01 -.156E-01 0.413E+00
   -.443E+02 0.256E+02 -.720E+03   0.434E+02 -.251E+02 0.721E+03   0.819E+00 -.473E+00 -.875E+00   0.293E-01 -.144E-01 0.413E+00
   0.168E+02 -.970E+01 -.769E+03   -.169E+02 0.975E+01 0.768E+03   0.220E+00 -.127E+00 0.566E+00   -.766E-01 0.414E-01 0.342E+00
   -.142E-04 -.511E+02 -.720E+03   0.145E-03 0.501E+02 0.721E+03   0.629E-07 0.945E+00 -.875E+00   0.193E-02 0.326E-01 0.413E+00
   -.168E+02 -.970E+01 -.769E+03   0.169E+02 0.975E+01 0.768E+03   -.220E+00 -.127E+00 0.566E+00   0.697E-01 0.403E-01 0.342E+00
   -.301E+01 -.174E+01 -.784E+03   0.309E+01 0.179E+01 0.783E+03   -.827E-01 -.478E-01 0.736E+00   -.761E-02 -.446E-02 0.321E+00
   0.301E+01 -.174E+01 -.784E+03   -.309E+01 0.179E+01 0.783E+03   0.827E-01 -.478E-01 0.736E+00   0.274E-02 -.668E-02 0.321E+00
   0.110E-04 0.194E+02 -.769E+03   0.196E-03 -.195E+02 0.768E+03   0.169E-07 0.254E+00 0.566E+00   -.297E-02 -.871E-01 0.342E+00
   -.134E-04 -.149E-04 -.244E+04   0.306E-04 0.364E-04 0.244E+04   -.501E-17 -.396E-17 0.467E+00   -.229E-03 -.152E-03 0.610E+00
   0.475E+02 0.797E+02 -.241E+04   -.475E+02 -.796E+02 0.241E+04   -.179E+00 -.306E+00 0.777E+00   0.292E-01 0.190E-01 0.597E+00
   -.475E+02 0.797E+02 -.241E+04   0.475E+02 -.796E+02 0.241E+04   0.179E+00 -.306E+00 0.777E+00   -.286E-01 0.211E-01 0.597E+00
   0.928E+02 0.133E+01 -.241E+04   -.927E+02 -.132E+01 0.241E+04   -.354E+00 -.171E-02 0.777E+00   0.311E-01 0.158E-01 0.597E+00
   -.928E+02 0.133E+01 -.241E+04   0.927E+02 -.132E+01 0.241E+04   0.354E+00 -.171E-02 0.777E+00   -.329E-01 0.165E-01 0.596E+00
   0.452E+02 -.810E+02 -.241E+04   -.452E+02 0.810E+02 0.241E+04   -.176E+00 0.308E+00 0.777E+00   0.404E-02 -.354E-01 0.597E+00
   -.452E+02 -.810E+02 -.241E+04   0.452E+02 0.810E+02 0.241E+04   0.176E+00 0.308E+00 0.777E+00   -.215E-02 -.367E-01 0.596E+00
   0.340E-04 -.259E-04 -.244E+04   0.142E-03 -.518E-04 0.244E+04   0.247E-17 -.949E-17 0.426E+00   -.464E-02 -.238E-02 0.568E+00
   -.421E-04 -.180E-04 -.188E+04   0.105E-03 0.985E-05 0.188E+04   0.333E-17 0.216E-17 -.480E+00   0.104E-01 0.635E-02 0.700E+00
   -.452E-05 -.831E-04 -.909E+03   0.163E-04 0.107E-05 0.892E+03   -.604E-20 -.121E-18 0.175E+02   0.138E-02 0.843E-03 0.559E-01
   0.242E-03 -.911E-04 -.158E+04   0.647E-05 0.610E-06 0.164E+04   0.116E-18 0.755E-19 -.600E+02   0.380E-02 0.233E-02 -.533E-01
 -----------------------------------------------------------------------------------------------
   -.507E-03 -.936E-03 0.451E+02   0.106E-12 -.857E-13 0.318E-11   0.145E-15 -.118E-15 -.447E+02   0.497E-02 0.390E-02 0.198E+00
 
 
 POSITION                                       TOTAL-FORCE (eV/Angst)
 -----------------------------------------------------------------------------------
      0.00000      0.00000      5.28038        -0.000000     -0.000000     -0.059208
      2.93784      0.00000      5.28038        -0.002155      0.011296     -0.035397
      5.87568      0.00000      5.28038         0.002155      0.011296     -0.035397
      1.46892      2.54424      5.28038         0.008705     -0.007514     -0.035397
      4.40676      2.54424      5.28038        -0.000000      0.000000     -0.052513
      7.34459      2.54424      5.28038        -0.008705     -0.007514     -0.035397
      2.93784      5.08848      5.28038         0.010860     -0.003782     -0.035397
      5.87568      5.08848      5.28038        -0.010860     -0.003782     -0.035397
      8.81351      5.08848      5.28038        -0.000000      0.000000     -0.040095
      1.46892      0.84808      7.67911         0.043432      0.025076      0.105871
      4.40676      0.84808      7.67911        -0.000000     -0.031419      0.027275
      7.34459      0.84808      7.67911        -0.043432      0.025076      0.105871
      2.93784      3.39232      7.67911        -0.027210      0.015710      0.027275
      5.87568      3.39232      7.67911         0.027210      0.015710      0.027275
      8.81351      3.39232      7.67911        -0.000000     -0.017056      0.090575
      4.40676      5.93656      7.67911        -0.000000     -0.050151      0.105871
      7.34459      5.93656      7.67911        -0.014771      0.008528      0.090575
     10.28243      5.93656      7.67911         0.014771      0.008528      0.090575
      8.81351      1.69394     10.07055         0.000000      0.005159      0.002401
      2.94670      1.70128     10.05847         0.007663      0.004424     -0.120748
      5.86681      1.70128     10.05847        -0.007663      0.004424     -0.120748
     10.27376      4.24541     10.05945         0.053630     -0.030963     -0.010452
      4.40676      4.23017     10.05847        -0.000000     -0.008848     -0.120748
      7.35327      4.24541     10.05945        -0.053630     -0.030963     -0.010452
     11.75328      6.78576     10.07055        -0.004468     -0.002580      0.002401
      5.87375      6.78576     10.07055         0.004468     -0.002580      0.002401
      8.81351      6.77463     10.05945         0.000000      0.061927     -0.010452
      0.00000      0.00000     12.48855        -0.000000      0.000000     -0.023457
      2.97006      0.05170     12.45862        -0.110236     -0.230730     -0.099804
      5.84345      0.05170     12.45862         0.110236     -0.230730     -0.099804
      1.52981      2.54630     12.45862        -0.254936      0.019898     -0.099804
      7.28371      2.54630     12.45862         0.254936      0.019898     -0.099804
      2.96650      5.03473     12.45862        -0.144700      0.210832     -0.099804
      5.84701      5.03473     12.45862         0.144700      0.210832     -0.099804
      8.81351      5.08848     12.49203        -0.000000      0.000000     -0.005236
      4.40676      2.54424     12.16149        -0.000000     -0.000000      0.700866
      4.40676      2.54424     13.92849        -0.000000     -0.000000      0.009450
      4.40676      2.54424     15.08967        -0.000000      0.000000     -0.003362
 -----------------------------------------------------------------------------------
    total drift:                                0.004460      0.002959      0.619427


--------------------------------------------------------------------------------------------------------



  FREE ENERGIE OF THE ION-ELECTRON SYSTEM (eV)
  ---------------------------------------------------
  free  energy   TOTEN  =      -127.69719739 eV

  energy  without entropy=     -127.69719739  energy(sigma->0) =     -127.69719739
 


--------------------------------------------------------------------------------------------------------


    POTLOK:  cpu time    0.0435: real time    0.0435


--------------------------------------------------------------------------------------------------------


 stress matrix after NEB project (eV)
    -18.60012     -0.00000      0.00000
     -0.00000    -18.60012      0.00000
      0.00000      0.00000      2.37087
  FORCES: max atom, RMS     0.009450    0.001627
  FORCE total and by dimension    0.010030    0.009450
  Stress total and by dimension   26.411166   18.600117
     LOOP+:  cpu time   74.6351: real time   74.6469
 -----------------------------------------------------------------------------
|                                                                             |
|           W    W    AA    RRRRR   N    N  II  N    N   GGGG   !!!           |
|           W    W   A  A   R    R  NN   N  II  NN   N  G    G  !!!           |
|           W    W  A    A  R    R  N N  N  II  N N  N  G       !!!           |
|           W WW W  AAAAAA  RRRRR   N  N N  II  N  N N  G  GGG   !            |
|           WW  WW  A    A  R   R   N   NN  II  N   NN  G    G                |
|           W    W  A    A  R    R  N    N  II  N    N   GGGG   !!!           |
|                                                                             |
|     Tetrahedron method does not include variations of the Fermi             |
|     occupations, so forces and stress will be inaccurate. We suggest        |
|     using a different smearing scheme ISMEAR = 1 or 2 for metals in         |
|     relaxations.                                                            |
|                                                                             |
 -----------------------------------------------------------------------------

    4ORBIT:  cpu time    0.0000: real time    0.0000



 total charge

# of ion       s       p       d       tot
------------------------------------------
    1        0.542   0.239   8.767   9.547
    2        0.545   0.240   8.766   9.550
    3        0.545   0.240   8.766   9.550
    4        0.545   0.240   8.766   9.550
    5        0.543   0.241   8.765   9.549
    6        0.545   0.240   8.766   9.550
    7        0.545   0.240   8.766   9.550
    8        0.545   0.240   8.766   9.550
    9        0.541   0.240   8.768   9.549
   10        0.520   0.307   8.774   9.600
   11        0.523   0.307   8.778   9.608
   12        0.520   0.307   8.774   9.600
   13        0.523   0.307   8.778   9.608
   14        0.523   0.307   8.778   9.608
   15        0.514   0.310   8.775   9.599
   16        0.520   0.307   8.774   9.600
   17        0.514   0.310   8.775   9.599
   18        0.514   0.310   8.775   9.599
   19        0.517   0.302   8.777   9.596
   20        0.538   0.326   8.759   9.622
   21        0.538   0.326   8.759   9.622
   22        0.514   0.310   8.774   9.598
   23        0.538   0.326   8.759   9.622
   24        0.514   0.310   8.774   9.598
   25        0.517   0.302   8.777   9.596
   26        0.517   0.302   8.777   9.596
   27        0.514   0.310   8.774   9.598
   28        0.539   0.226   8.767   9.532
   29        0.542   0.233   8.773   9.548
   30        0.542   0.233   8.773   9.548
   31        0.542   0.233   8.773   9.548
   32        0.542   0.233   8.773   9.548
   33        0.542   0.233   8.773   9.548
   34        0.542   0.233   8.773   9.548
   35        0.540   0.225   8.769   9.534
   36        0.420   0.478   8.399   9.298
   37        0.972   1.539   0.000   2.511
   38        1.618   3.526   0.000   5.144
--------------------------------------------------
tot         21.610  15.136 315.376 352.122
 
 BZINTS: Fermi energy:    0.746862;  405.000000 electrons
         Band energy:-0.124218E+04;  BLOECHL correction:   -0.075017

 total amount of memory used by VASP MPI-rank0   122753. kBytes
=======================================================================

   base      :      30000. kBytes
   nonlr-proj:      13573. kBytes
   fftplans  :       4330. kBytes
   grid      :      18659. kBytes
   one-center:        590. kBytes
   wavefun   :      55601. kBytes
 
  
  
 General timing and accounting informations for this job:
 ========================================================
  
                  Total CPU time used (sec):       81.982
                            User time (sec):       78.940
                          System time (sec):        3.042
                         Elapsed time (sec):       82.359
  
                   Maximum memory used (kb):      379988.
                   Average memory used (kb):          N/A
  
                          Minor page faults:        82338
                          Major page faults:            0
                 Voluntary context switches:         4885
