PROCAR new format
# of k-points:   10         # of bands:  252         # of ions:   38

 k-point     1 :    0.00000000 0.00000000 0.00000000     weight = 0.01562500

band     1 # energy  -22.84516487 # occ.  2.00000000
 
ion      s      p      d    tot
    1  0.000  0.000  0.000  0.000
    2  0.000  0.000  0.000  0.000
    3  0.000  0.000  0.000  0.000
    4  0.000  0.000  0.000  0.000
    5  0.000  0.000  0.000  0.000
    6  0.000  0.000  0.000  0.000
    7  0.000  0.000  0.000  0.000
    8  0.000  0.000  0.000  0.000
    9  0.000  0.000  0.000  0.000
   10  0.000  0.000  0.000  0.000
   11  0.000  0.000  0.000  0.000
   12  0.000  0.000  0.000  0.000
   13  0.000  0.000  0.000  0.000
   14  0.000  0.000  0.000  0.000
   15  0.000  0.000  0.000  0.000
   16  0.000  0.000  0.000  0.000
   17  0.000  0.000  0.000  0.000
   18  0.000  0.000  0.000  0.000
   19  0.000  0.000  0.000  0.000
   20  0.000  0.000  0.000  0.000
   21  0.000  0.000  0.000  0.000
   22  0.000  0.000  0.000  0.000
   23  0.000  0.000  0.000  0.000
   24  0.000  0.000  0.000  0.000
   25  0.000  0.000  0.000  0.000
   26  0.000  0.000  0.000  0.000
   27  0.000  0.000  0.000  0.000
   28  0.000  0.000  0.000  0.000
   29  0.000  0.000  0.000  0.000
   30  0.000  0.000  0.000  0.000
   31  0.000  0.000  0.000  0.000
   32  0.000  0.000  0.000  0.000
   33  0.000  0.000  0.000  0.000
   34  0.000  0.000  0.000  0.000
   35  0.000  0.000  0.000  0.000
   36  0.000  0.000  0.000  0.000
   37  0.160  0.118  0.000  0.278
   38  0.638  0.096  0.000  0.734
tot    0.798  0.214  0.000  1.013
 
band     2 # energy   -8.60392333 # occ.  2.00000000
 
ion      s      p      d    tot
    1  0.000  0.000  0.000  0.000
    2  0.000  0.000  0.000  0.000
    3  0.000  0.000  0.000  0.000
    4  0.000  0.000  0.000  0.000
    5  0.000  0.000  0.000  0.000
    6  0.000  0.000  0.000  0.000
    7  0.000  0.000  0.000  0.000
    8  0.000  0.000  0.000  0.000
    9  0.000  0.000  0.000  0.000
   10  0.001  0.000  0.000  0.001
   11  0.001  0.000  0.000  0.001
   12  0.001  0.000  0.000  0.001
   13  0.001  0.000  0.000  0.001
   14  0.001  0.000  0.000  0.001
   15  0.001  0.000  0.000  0.001
   16  0.001  0.000  0.000  0.001
   17  0.001  0.000  0.000  0.001
   18  0.001  0.000  0.000  0.001
   19  0.001  0.000  0.000  0.001
   20  0.003  0.000  0.000  0.004
   21  0.003  0.000  0.000  0.004
   22  0.001  0.000  0.000  0.001
   23  0.003  0.000  0.000  0.004
   24  0.001  0.000  0.000  0.001
   25  0.001  0.000  0.000  0.001
   26  0.001  0.000  0.000  0.001
   27  0.001  0.000  0.000  0.001
   28  0.001  0.000  0.000  0.001
   29  0.003  0.000  0.001  0.004
   30  0.003  0.000  0.001  0.004
   31  0.003  0.000  0.001  0.004
   32  0.003  0.000  0.001  0.004
   33  0.003  0.000  0.001  0.004
   34  0.003  0.000  0.001  0.004
   35  0.001  0.000  0.000  0.001
   36  0.060  0.027  0.042  0.128
   37  0.263  0.010  0.000  0.273
   38  0.125  0.173  0.000  0.297
tot    0.490  0.212  0.049  0.751
 
band     3 # energy   -8.02459288 # occ.  2.00000000
 
ion      s      p      d    tot
    1  0.007  0.001  0.000  0.007
    2  0.007  0.001  0.000  0.007
    3  0.007  0.001  0.000  0.007
    4  0.007  0.001  0.000  0.007
    5  0.007  0.001  0.000  0.007
    6  0.007  0.001  0.000  0.007
    7  0.007  0.001  0.000  0.007
    8  0.007  0.001  0.000  0.007
    9  0.007  0.001  0.000  0.007
   10  0.026  0.000  0.000  0.026
   11  0.026  0.000  0.000  0.027
   12  0.026  0.000  0.000  0.026
   13  0.026  0.000  0.000  0.027
   14  0.026  0.000  0.000  0.027
   15  0.026  0.000  0.000  0.027
   16  0.026  0.000  0.000  0.026
   17  0.026  0.000  0.000  0.027
   18  0.026  0.000  0.000  0.027
   19  0.022  0.000  0.000  0.023
   20  0.023  0.000  0.000  0.023
   21  0.023  0.000  0.000  0.023
   22  0.023  0.000  0.000  0.024
   23  0.023  0.000  0.000  0.023
   24  0.023  0.000  0.000  0.024
   25  0.022  0.000  0.000  0.023
   26  0.022  0.000  0.000  0.023
   27  0.023  0.000  0.000  0.024
   28  0.004  0.000  0.000  0.004
   29  0.003  0.000  0.000  0.004
   30  0.003  0.000  0.000  0.004
   31  0.003  0.000  0.000  0.004
   32  0.003  0.000  0.000  0.004
   33  0.003  0.000  0.000  0.004
   34  0.003  0.000  0.000  0.004
   35  0.004  0.000  0.000  0.005
   36  0.000  0.003  0.001  0.005
   37  0.015  0.000  0.000  0.015
   38  0.010  0.020  0.000  0.030
tot    0.554  0.035  0.006  0.595
 
band     4 # energy   -6.88114400 # occ.  2.00000000
 
ion      s      p      d    tot
    1  0.016  0.000  0.001  0.018
    2  0.016  0.000  0.001  0.017
    3  0.016  0.000  0.001  0.017
    4  0.016  0.000  0.001  0.017
    5  0.015  0.000  0.001  0.017
    6  0.016  0.000  0.001  0.017
    7  0.016  0.000  0.001  0.017
    8  0.016  0.000  0.001  0.017
    9  0.016  0.000  0.001  0.017
   10  0.010  0.001  0.002  0.014
   11  0.010  0.001  0.002  0.013
   12  0.010  0.001  0.002  0.014
   13  0.010  0.001  0.002  0.013
   14  0.010  0.001  0.002  0.013
   15  0.010  0.001  0.002  0.014
   16  0.010  0.001  0.002  0.014
   17  0.010  0.001  0.002  0.014
   18  0.010  0.001  0.002  0.014
   19  0.012  0.001  0.003  0.017
   20  0.014  0.001  0.003  0.019
   21  0.014  0.001  0.003  0.019
   22  0.013  0.001  0.003  0.017
   23  0.014  0.001  0.003  0.019
   24  0.013  0.001  0.003  0.017
   25  0.012  0.001  0.003  0.017
   26  0.012  0.001  0.003  0.017
   27  0.013  0.001  0.003  0.017
   28  0.013  0.000  0.000  0.014
   29  0.013  0.000  0.000  0.014
   30  0.013  0.000  0.000  0.014
   31  0.013  0.000  0.000  0.014
   32  0.013  0.000  0.000  0.014
   33  0.013  0.000  0.000  0.014
   34  0.013  0.000  0.000  0.014
   35  0.012  0.000  0.000  0.013
   36  0.012  0.000  0.000  0.013
   37  0.002  0.010  0.000  0.012
   38  0.007  0.038  0.000  0.045
tot    0.474  0.077  0.064  0.615
 
band     5 # energy   -6.14204940 # occ.  2.00000000
 
ion      s      p      d    tot
    1  0.007  0.000  0.000  0.008
    2  0.003  0.000  0.002  0.005
    3  0.003  0.000  0.002  0.005
    4  0.003  0.000  0.002  0.005
    5  0.004  0.000  0.001  0.005
    6  0.003  0.000  0.002  0.005
    7  0.003  0.000  0.002  0.005
    8  0.003  0.000  0.002  0.005
    9  0.001  0.000  0.002  0.003
   10  0.001  0.000  0.003  0.004
   11  0.000  0.000  0.001  0.002
   12  0.001  0.000  0.003  0.004
   13  0.000  0.000  0.001  0.002
   14  0.000  0.000  0.001  0.002
   15  0.003  0.001  0.001  0.005
   16  0.001  0.000  0.003  0.004
   17  0.003  0.001  0.001  0.005
   18  0.003  0.001  0.001  0.005
   19  0.006  0.000  0.008  0.014
   20  0.000  0.001  0.015  0.016
   21  0.000  0.001  0.015  0.016
   22  0.015  0.001  0.003  0.018
   23  0.000  0.001  0.015  0.016
   24  0.015  0.001  0.003  0.018
   25  0.006  0.000  0.008  0.014
   26  0.006  0.000  0.008  0.014
   27  0.015  0.001  0.003  0.018
   28  0.000  0.000  0.003  0.003
   29  0.002  0.001  0.006  0.008
   30  0.002  0.001  0.006  0.008
   31  0.002  0.001  0.006  0.008
   32  0.002  0.001  0.006  0.008
   33  0.002  0.001  0.006  0.008
   34  0.002  0.001  0.006  0.008
   35  0.000  0.000  0.003  0.003
   36  0.068  0.012  0.041  0.121
   37  0.004  0.137  0.000  0.140
   38  0.024  0.223  0.000  0.246
tot    0.216  0.388  0.184  0.787
 
band     6 # energy   -5.91531977 # occ.  2.00000000
 
ion      s      p      d    tot
    1  0.010  0.000  0.022  0.033
    2  0.017  0.000  0.017  0.035
    3  0.017  0.000  0.017  0.035
    4  0.017  0.000  0.017  0.035
    5  0.011  0.000  0.016  0.027
    6  0.017  0.000  0.017  0.035
    7  0.017  0.000  0.017  0.035
    8  0.017  0.000  0.017  0.035
    9  0.034  0.000  0.012  0.047
   10  0.013  0.001  0.022  0.035
   11  0.016  0.001  0.018  0.035
   12  0.013  0.001  0.022  0.035
   13  0.016  0.001  0.018  0.035
   14  0.016  0.001  0.018  0.035
   15  0.000  0.001  0.026  0.026
   16  0.013  0.001  0.022  0.035
   17  0.000  0.001  0.026  0.026
   18  0.000  0.001  0.026  0.026
   19  0.000  0.001  0.006  0.007
   20  0.005  0.001  0.006  0.012
   21  0.005  0.001  0.006  0.012
   22  0.004  0.001  0.002  0.006
   23  0.005  0.001  0.006  0.012
   24  0.004  0.001  0.001  0.006
   25  0.000  0.001  0.006  0.007
   26  0.000  0.001  0.006  0.007
   27  0.004  0.001  0.002  0.006
   28  0.004  0.000  0.000  0.004
   29  0.002  0.000  0.002  0.004
   30  0.002  0.000  0.002  0.004
   31  0.002  0.000  0.002  0.004
   32  0.002  0.000  0.002  0.004
   33  0.002  0.000  0.002  0.004
   34  0.002  0.000  0.002  0.004
   35  0.005  0.000  0.000  0.006
   36  0.000  0.000  0.000  0.001
   37  0.000  0.000  0.000  0.000
   38  0.000  0.000  0.000  0.000
tot    0.292  0.018  0.401  0.712
 
band     7 # energy   -5.89696400 # occ.  2.00000000
 
ion      s      p      d    tot
    1  0.000  0.000  0.003  0.003
    2  0.007  0.001  0.003  0.011
    3  0.003  0.001  0.003  0.006
    4  0.007  0.001  0.003  0.011
    5  0.000  0.001  0.009  0.010
    6  0.001  0.000  0.003  0.004
    7  0.003  0.001  0.003  0.006
    8  0.001  0.000  0.003  0.004
    9  0.000  0.001  0.003  0.004
   10  0.000  0.001  0.018  0.019
   11  0.040  0.001  0.013  0.054
   12  0.004  0.001  0.011  0.016
   13  0.040  0.001  0.013  0.054
   14  0.000  0.001  0.038  0.039
   15  0.019  0.001  0.012  0.032
   16  0.004  0.001  0.011  0.016
   17  0.019  0.001  0.012  0.033
   18  0.000  0.004  0.006  0.010
   19  0.000  0.001  0.010  0.011
   20  0.000  0.004  0.012  0.016
   21  0.028  0.001  0.013  0.042
   22  0.034  0.001  0.012  0.048
   23  0.027  0.001  0.013  0.042
   24  0.000  0.000  0.039  0.039
   25  0.000  0.002  0.010  0.012
   26  0.000  0.001  0.010  0.011
   27  0.034  0.001  0.012  0.048
   28  0.000  0.000  0.002  0.002
   29  0.002  0.001  0.002  0.005
   30  0.009  0.001  0.002  0.013
   31  0.002  0.001  0.002  0.005
   32  0.003  0.001  0.003  0.006
   33  0.009  0.001  0.002  0.013
   34  0.003  0.001  0.003  0.006
   35  0.000  0.001  0.008  0.008
   36  0.000  0.002  0.000  0.003
   37  0.000  0.008  0.000  0.008
   38  0.000  0.019  0.000  0.019
tot    0.297  0.070  0.323  0.690
 
band     8 # energy   -5.89691828 # occ.  2.00000000
 
ion      s      p      d    tot
    1  0.000  0.000  0.003  0.003
    2  0.000  0.000  0.003  0.003
    3  0.004  0.001  0.003  0.008
    4  0.000  0.000  0.003  0.003
    5  0.000  0.001  0.009  0.010
    6  0.006  0.001  0.003  0.010
    7  0.004  0.001  0.003  0.008
    8  0.006  0.001  0.003  0.010
    9  0.000  0.001  0.003  0.004
   10  0.005  0.001  0.008  0.014
   11  0.013  0.001  0.030  0.044
   12  0.001  0.001  0.015  0.018
   13  0.013  0.001  0.030  0.044
   14  0.053  0.002  0.004  0.059
   15  0.006  0.003  0.008  0.018
   16  0.001  0.001  0.015  0.018
   17  0.006  0.003  0.008  0.018
   18  0.025  0.000  0.015  0.040
   19  0.000  0.002  0.010  0.012
   20  0.037  0.000  0.013  0.051
   21  0.009  0.003  0.013  0.025
   22  0.011  0.001  0.030  0.042
   23  0.009  0.003  0.013  0.025
   24  0.045  0.002  0.003  0.050
   25  0.000  0.001  0.010  0.011
   26  0.000  0.002  0.010  0.012
   27  0.011  0.001  0.030  0.042
   28  0.000  0.000  0.002  0.002
   29  0.007  0.001  0.003  0.011
   30  0.000  0.000  0.003  0.003
   31  0.007  0.001  0.003  0.011
   32  0.006  0.001  0.002  0.009
   33  0.000  0.000  0.003  0.003
   34  0.007  0.001  0.002  0.009
   35  0.000  0.001  0.008  0.008
   36  0.000  0.002  0.000  0.003
   37  0.000  0.008  0.000  0.008
   38  0.000  0.020  0.000  0.020
tot    0.297  0.070  0.323  0.690
 
band     9 # energy   -5.88130485 # occ.  2.00000000
 
ion      s      p      d    tot
    1  0.013  0.002  0.000  0.015
    2  0.000  0.001  0.006  0.006
    3  0.000  0.001  0.006  0.006
    4  0.000  0.001  0.006  0.006
    5  0.010  0.001  0.002  0.014
    6  0.000  0.001  0.006  0.006
    7  0.000  0.001  0.006  0.006
    8  0.000  0.001  0.006  0.006
    9  0.000  0.000  0.000  0.000
   10  0.025  0.003  0.004  0.032
   11  0.019  0.000  0.023  0.042
   12  0.025  0.003  0.004  0.032
   13  0.019  0.000  0.023  0.042
   14  0.019  0.000  0.023  0.042
   15  0.001  0.002  0.020  0.023
   16  0.025  0.003  0.004  0.032
   17  0.001  0.002  0.020  0.023
   18  0.001  0.002  0.019  0.023
   19  0.030  0.003  0.002  0.035
   20  0.001  0.002  0.019  0.022
   21  0.001  0.002  0.019  0.022
   22  0.011  0.000  0.026  0.037
   23  0.001  0.002  0.019  0.022
   24  0.011  0.000  0.026  0.038
   25  0.029  0.003  0.002  0.035
   26  0.030  0.003  0.002  0.035
   27  0.011  0.000  0.026  0.037
   28  0.007  0.001  0.002  0.010
   29  0.000  0.000  0.004  0.005
   30  0.000  0.000  0.004  0.005
   31  0.000  0.000  0.004  0.005
   32  0.000  0.000  0.004  0.005
   33  0.000  0.000  0.004  0.005
   34  0.000  0.000  0.004  0.005
   35  0.009  0.001  0.001  0.011
   36  0.001  0.000  0.000  0.001
   37  0.000  0.001  0.000  0.001
   38  0.000  0.001  0.000  0.001
tot    0.302  0.044  0.347  0.693
 
band    10 # energy   -5.87124780 # occ.  2.00000000
 
ion      s      p      d    tot
    1  0.006  0.000  0.001  0.007
    2  0.002  0.000  0.006  0.009
    3  0.002  0.000  0.006  0.009
    4  0.002  0.000  0.006  0.009
    5  0.011  0.000  0.002  0.013
    6  0.002  0.000  0.006  0.008
    7  0.002  0.000  0.006  0.009
    8  0.002  0.000  0.006  0.008
    9  0.002  0.001  0.007  0.011
   10  0.000  0.000  0.026  0.027
   11  0.003  0.002  0.015  0.020
   12  0.000  0.000  0.027  0.027
   13  0.003  0.002  0.015  0.020
   14  0.003  0.002  0.014  0.019
   15  0.028  0.001  0.011  0.040
   16  0.000  0.000  0.027  0.027
   17  0.028  0.001  0.011  0.040
   18  0.031  0.001  0.011  0.043
   19  0.000  0.000  0.027  0.027
   20  0.030  0.001  0.009  0.041
   21  0.028  0.001  0.009  0.038
   22  0.001  0.002  0.019  0.021
   23  0.028  0.001  0.009  0.038
   24  0.001  0.001  0.018  0.020
   25  0.000  0.000  0.027  0.027
   26  0.000  0.000  0.027  0.027
   27  0.001  0.002  0.019  0.021
   28  0.008  0.000  0.001  0.010
   29  0.004  0.000  0.007  0.011
   30  0.004  0.000  0.007  0.011
   31  0.004  0.000  0.007  0.011
   32  0.003  0.000  0.007  0.011
   33  0.004  0.000  0.007  0.011
   34  0.003  0.000  0.007  0.011
   35  0.008  0.000  0.004  0.012
   36  0.001  0.006  0.000  0.007
   37  0.001  0.010  0.000  0.010
   38  0.001  0.015  0.000  0.016
tot    0.256  0.054  0.418  0.728
 
band    11 # energy   -5.86991617 # occ.  2.00000000
 
ion      s      p      d    tot
    1  0.000  0.001  0.009  0.010
    2  0.008  0.001  0.004  0.013
    3  0.003  0.001  0.003  0.007
    4  0.008  0.001  0.004  0.013
    5  0.000  0.000  0.001  0.002
    6  0.001  0.000  0.004  0.005
    7  0.003  0.001  0.003  0.007
    8  0.001  0.000  0.004  0.005
    9  0.000  0.000  0.008  0.009
   10  0.057  0.001  0.011  0.069
   11  0.001  0.003  0.006  0.010
   12  0.014  0.002  0.022  0.038
   13  0.001  0.003  0.006  0.010
   14  0.004  0.000  0.016  0.020
   15  0.010  0.000  0.031  0.041
   16  0.015  0.002  0.022  0.039
   17  0.009  0.000  0.031  0.041
   18  0.031  0.002  0.003  0.036
   19  0.013  0.002  0.024  0.039
   20  0.019  0.002  0.005  0.026
   21  0.006  0.001  0.025  0.032
   22  0.002  0.003  0.006  0.011
   23  0.006  0.001  0.025  0.032
   24  0.008  0.000  0.015  0.023
   25  0.051  0.001  0.007  0.060
   26  0.012  0.002  0.024  0.039
   27  0.002  0.003  0.006  0.011
   28  0.000  0.001  0.006  0.007
   29  0.001  0.000  0.002  0.003
   30  0.004  0.001  0.003  0.008
   31  0.001  0.000  0.002  0.003
   32  0.002  0.000  0.003  0.005
   33  0.004  0.001  0.003  0.008
   34  0.002  0.000  0.003  0.005
   35  0.000  0.000  0.001  0.001
   36  0.000  0.000  0.002  0.002
   37  0.000  0.002  0.000  0.002
   38  0.000  0.004  0.000  0.004
tot    0.299  0.046  0.349  0.694
 
band    12 # energy   -5.86985107 # occ.  2.00000000
 
ion      s      p      d    tot
    1  0.000  0.001  0.009  0.010
    2  0.000  0.000  0.003  0.004
    3  0.005  0.001  0.004  0.010
    4  0.000  0.000  0.003  0.004
    5  0.000  0.000  0.001  0.002
    6  0.007  0.001  0.003  0.012
    7  0.005  0.001  0.004  0.010
    8  0.007  0.001  0.003  0.012
    9  0.000  0.000  0.008  0.009
   10  0.000  0.003  0.026  0.028
   11  0.003  0.001  0.012  0.016
   12  0.043  0.001  0.014  0.059
   13  0.003  0.001  0.012  0.016
   14  0.000  0.004  0.004  0.008
   15  0.025  0.001  0.013  0.039
   16  0.043  0.001  0.014  0.059
   17  0.025  0.001  0.013  0.039
   18  0.000  0.000  0.040  0.040
   19  0.038  0.002  0.013  0.053
   20  0.000  0.000  0.031  0.032
   21  0.016  0.001  0.012  0.029
   22  0.006  0.001  0.012  0.019
   23  0.016  0.001  0.012  0.029
   24  0.000  0.004  0.004  0.008
   25  0.000  0.002  0.030  0.032
   26  0.039  0.002  0.013  0.053
   27  0.006  0.001  0.012  0.019
   28  0.000  0.001  0.006  0.007
   29  0.004  0.001  0.003  0.007
   30  0.000  0.000  0.002  0.003
   31  0.004  0.001  0.003  0.007
   32  0.003  0.001  0.002  0.006
   33  0.000  0.000  0.002  0.003
   34  0.003  0.001  0.002  0.006
   35  0.000  0.000  0.001  0.001
   36  0.000  0.000  0.002  0.002
   37  0.000  0.002  0.000  0.002
   38  0.000  0.003  0.000  0.003
tot    0.299  0.046  0.349  0.694
 
band    13 # energy   -5.72127558 # occ.  2.00000000
 
ion      s      p      d    tot
    1  0.000  0.000  0.000  0.000
    2  0.000  0.000  0.000  0.000
    3  0.001  0.000  0.000  0.001
    4  0.000  0.000  0.000  0.000
    5  0.000  0.000  0.001  0.001
    6  0.001  0.000  0.000  0.001
    7  0.001  0.000  0.000  0.001
    8  0.001  0.000  0.000  0.001
    9  0.000  0.000  0.001  0.001
   10  0.000  0.000  0.001  0.001
   11  0.001  0.000  0.003  0.004
   12  0.000  0.000  0.001  0.002
   13  0.001  0.000  0.003  0.004
   14  0.005  0.000  0.000  0.005
   15  0.001  0.000  0.001  0.003
   16  0.000  0.000  0.001  0.002
   17  0.001  0.000  0.001  0.003
   18  0.005  0.000  0.001  0.006
   19  0.000  0.000  0.002  0.002
   20  0.000  0.000  0.000  0.001
   21  0.000  0.000  0.001  0.002
   22  0.001  0.000  0.001  0.002
   23  0.000  0.000  0.001  0.002
   24  0.002  0.000  0.001  0.003
   25  0.001  0.000  0.000  0.002
   26  0.000  0.000  0.002  0.002
   27  0.001  0.000  0.001  0.002
   28  0.000  0.000  0.001  0.001
   29  0.002  0.000  0.002  0.005
   30  0.000  0.000  0.001  0.001
   31  0.002  0.000  0.002  0.005
   32  0.002  0.001  0.002  0.004
   33  0.000  0.000  0.001  0.001
   34  0.002  0.001  0.002  0.004
   35  0.000  0.000  0.001  0.001
   36  0.000  0.004  0.016  0.020
   37  0.000  0.163  0.000  0.163
   38  0.000  0.411  0.000  0.411
tot    0.030  0.585  0.058  0.673
 
band    14 # energy   -5.72116275 # occ.  2.00000000
 
ion      s      p      d    tot
    1  0.000  0.000  0.000  0.000
    2  0.001  0.000  0.000  0.001
    3  0.000  0.000  0.000  0.001
    4  0.001  0.000  0.000  0.001
    5  0.000  0.000  0.001  0.001
    6  0.000  0.000  0.000  0.001
    7  0.000  0.000  0.000  0.001
    8  0.000  0.000  0.000  0.001
    9  0.000  0.000  0.001  0.001
   10  0.000  0.000  0.001  0.002
   11  0.003  0.000  0.001  0.005
   12  0.000  0.000  0.001  0.001
   13  0.003  0.000  0.001  0.005
   14  0.000  0.000  0.004  0.004
   15  0.004  0.000  0.001  0.005
   16  0.000  0.000  0.001  0.001
   17  0.004  0.000  0.001  0.005
   18  0.000  0.000  0.001  0.002
   19  0.001  0.000  0.001  0.002
   20  0.000  0.000  0.002  0.002
   21  0.000  0.000  0.001  0.001
   22  0.002  0.000  0.001  0.003
   23  0.000  0.000  0.001  0.001
   24  0.000  0.000  0.001  0.002
   25  0.000  0.000  0.002  0.002
   26  0.001  0.000  0.001  0.002
   27  0.002  0.000  0.001  0.003
   28  0.000  0.000  0.001  0.001
   29  0.000  0.000  0.001  0.002
   30  0.003  0.001  0.002  0.006
   31  0.000  0.000  0.001  0.002
   32  0.001  0.000  0.002  0.003
   33  0.003  0.001  0.002  0.006
   34  0.001  0.000  0.002  0.003
   35  0.000  0.000  0.001  0.001
   36  0.000  0.004  0.016  0.020
   37  0.000  0.163  0.000  0.163
   38  0.000  0.411  0.000  0.411
tot    0.030  0.585  0.058  0.673
 
band    15 # energy   -5.61057745 # occ.  2.00000000
 
ion      s      p      d    tot
    1  0.001  0.000  0.000  0.001
    2  0.000  0.000  0.003  0.003
    3  0.000  0.000  0.003  0.003
    4  0.000  0.000  0.003  0.003
    5  0.007  0.000  0.000  0.007
    6  0.000  0.000  0.003  0.003
    7  0.000  0.000  0.003  0.003
    8  0.000  0.000  0.003  0.003
    9  0.003  0.001  0.002  0.005
   10  0.000  0.000  0.011  0.011
   11  0.004  0.001  0.000  0.005
   12  0.000  0.000  0.011  0.011
   13  0.004  0.001  0.000  0.005
   14  0.004  0.001  0.000  0.005
   15  0.010  0.001  0.008  0.019
   16  0.000  0.000  0.011  0.011
   17  0.010  0.001  0.008  0.019
   18  0.010  0.001  0.008  0.019
   19  0.000  0.002  0.007  0.009
   20  0.001  0.000  0.021  0.023
   21  0.001  0.000  0.021  0.023
   22  0.005  0.002  0.020  0.027
   23  0.001  0.000  0.021  0.023
   24  0.005  0.002  0.020  0.027
   25  0.000  0.002  0.007  0.009
   26  0.000  0.002  0.007  0.009
   27  0.005  0.002  0.020  0.027
   28  0.032  0.000  0.013  0.045
   29  0.015  0.001  0.018  0.033
   30  0.015  0.001  0.018  0.033
   31  0.015  0.001  0.018  0.033
   32  0.015  0.001  0.018  0.033
   33  0.015  0.001  0.018  0.033
   34  0.015  0.001  0.018  0.033
   35  0.027  0.000  0.016  0.043
   36  0.009  0.004  0.039  0.052
   37  0.006  0.038  0.000  0.044
   38  0.002  0.038  0.000  0.041
tot    0.240  0.103  0.398  0.741
 
band    16 # energy   -5.41035150 # occ.  2.00000000
 
ion      s      p      d    tot
    1  0.014  0.002  0.002  0.019
    2  0.000  0.001  0.009  0.009
    3  0.000  0.001  0.009  0.009
    4  0.000  0.001  0.009  0.009
    5  0.000  0.000  0.002  0.002
    6  0.000  0.001  0.009  0.009
    7  0.000  0.001  0.009  0.009
    8  0.000  0.001  0.009  0.009
    9  0.018  0.002  0.000  0.020
   10  0.011  0.002  0.014  0.026
   11  0.002  0.000  0.043  0.045
   12  0.010  0.002  0.014  0.026
   13  0.002  0.000  0.043  0.045
   14  0.002  0.000  0.042  0.045
   15  0.004  0.001  0.023  0.028
   16  0.010  0.002  0.014  0.026
   17  0.004  0.001  0.023  0.028
   18  0.004  0.001  0.023  0.028
   19  0.004  0.001  0.016  0.021
   20  0.002  0.000  0.046  0.048
   21  0.002  0.000  0.046  0.048
   22  0.011  0.001  0.016  0.028
   23  0.002  0.000  0.046  0.048
   24  0.011  0.001  0.016  0.028
   25  0.004  0.001  0.016  0.021
   26  0.004  0.001  0.016  0.021
   27  0.011  0.001  0.016  0.028
   28  0.009  0.001  0.001  0.011
   29  0.000  0.001  0.006  0.006
   30  0.000  0.001  0.006  0.006
   31  0.000  0.001  0.006  0.006
   32  0.000  0.001  0.006  0.006
   33  0.000  0.001  0.006  0.006
   34  0.000  0.001  0.006  0.006
   35  0.012  0.001  0.002  0.015
   36  0.000  0.000  0.001  0.001
   37  0.000  0.000  0.000  0.000
   38  0.000  0.000  0.000  0.000
tot    0.156  0.030  0.564  0.750
 
band    17 # energy   -5.39847989 # occ.  2.00000000
 
ion      s      p      d    tot
    1  0.000  0.001  0.005  0.006
    2  0.003  0.001  0.005  0.009
    3  0.002  0.001  0.005  0.008
    4  0.002  0.000  0.004  0.007
    5  0.000  0.001  0.012  0.013
    6  0.002  0.000  0.004  0.007
    7  0.009  0.001  0.004  0.015
    8  0.009  0.001  0.004  0.015
    9  0.000  0.000  0.007  0.007
   10  0.003  0.001  0.044  0.048
   11  0.018  0.001  0.014  0.033
   12  0.003  0.001  0.046  0.050
   13  0.004  0.000  0.036  0.040
   14  0.005  0.000  0.035  0.040
   15  0.000  0.000  0.023  0.023
   16  0.013  0.002  0.006  0.021
   17  0.000  0.001  0.014  0.015
   18  0.000  0.001  0.014  0.016
   19  0.013  0.000  0.020  0.034
   20  0.006  0.000  0.051  0.058
   21  0.005  0.000  0.054  0.060
   22  0.000  0.001  0.025  0.026
   23  0.021  0.002  0.006  0.029
   24  0.000  0.001  0.024  0.026
   25  0.004  0.001  0.019  0.024
   26  0.003  0.001  0.019  0.023
   27  0.001  0.001  0.017  0.018
   28  0.000  0.001  0.009  0.009
   29  0.004  0.001  0.004  0.009
   30  0.004  0.001  0.004  0.008
   31  0.001  0.001  0.004  0.006
   32  0.000  0.001  0.004  0.005
   33  0.007  0.001  0.004  0.013
   34  0.008  0.001  0.004  0.013
   35  0.000  0.000  0.003  0.003
   36  0.000  0.001  0.003  0.004
   37  0.000  0.002  0.000  0.002
   38  0.000  0.007  0.000  0.007
tot    0.153  0.040  0.558  0.750
 
band    18 # energy   -5.39847975 # occ.  2.00000000
 
ion      s      p      d    tot
    1  0.000  0.001  0.005  0.006
    2  0.007  0.001  0.004  0.011
    3  0.007  0.001  0.004  0.012
    4  0.007  0.001  0.005  0.013
    5  0.000  0.001  0.012  0.013
    6  0.007  0.001  0.005  0.013
    7  0.000  0.000  0.005  0.005
    8  0.000  0.000  0.005  0.005
    9  0.000  0.000  0.007  0.007
   10  0.009  0.002  0.020  0.031
   11  0.000  0.000  0.042  0.043
   12  0.010  0.002  0.018  0.029
   13  0.014  0.001  0.021  0.035
   14  0.013  0.001  0.022  0.035
   15  0.000  0.001  0.011  0.013
   16  0.000  0.000  0.058  0.058
   17  0.000  0.001  0.020  0.021
   18  0.000  0.001  0.020  0.021
   19  0.000  0.001  0.019  0.020
   20  0.016  0.001  0.023  0.040
   21  0.017  0.001  0.020  0.038
   22  0.001  0.001  0.019  0.021
   23  0.000  0.000  0.069  0.069
   24  0.001  0.001  0.019  0.021
   25  0.010  0.000  0.020  0.030
   26  0.010  0.000  0.020  0.031
   27  0.000  0.001  0.027  0.028
   28  0.000  0.001  0.009  0.009
   29  0.004  0.001  0.004  0.009
   30  0.004  0.001  0.004  0.010
   31  0.007  0.001  0.004  0.013
   32  0.008  0.001  0.004  0.013
   33  0.001  0.000  0.004  0.005
   34  0.000  0.000  0.004  0.005
   35  0.000  0.000  0.003  0.003
   36  0.000  0.001  0.003  0.004
   37  0.000  0.002  0.000  0.002
   38  0.000  0.007  0.000  0.007
tot    0.153  0.040  0.557  0.750
 
band    19 # energy   -5.37655952 # occ.  2.00000000
 
ion      s      p      d    tot
    1  0.000  0.000  0.014  0.014
    2  0.011  0.001  0.005  0.017
    3  0.003  0.001  0.005  0.009
    4  0.011  0.001  0.005  0.017
    5  0.000  0.000  0.004  0.005
    6  0.002  0.001  0.006  0.009
    7  0.003  0.001  0.005  0.009
    8  0.002  0.001  0.006  0.009
    9  0.000  0.001  0.009  0.011
   10  0.000  0.001  0.020  0.021
   11  0.002  0.001  0.019  0.023
   12  0.005  0.000  0.022  0.027
   13  0.002  0.001  0.019  0.023
   14  0.000  0.001  0.029  0.030
   15  0.014  0.002  0.021  0.037
   16  0.005  0.000  0.022  0.027
   17  0.014  0.002  0.021  0.036
   18  0.000  0.000  0.065  0.065
   19  0.009  0.001  0.019  0.030
   20  0.000  0.002  0.013  0.014
   21  0.002  0.000  0.021  0.023
   22  0.019  0.001  0.021  0.041
   23  0.002  0.000  0.021  0.023
   24  0.000  0.000  0.045  0.045
   25  0.000  0.001  0.059  0.059
   26  0.009  0.001  0.019  0.029
   27  0.019  0.001  0.021  0.041
   28  0.000  0.000  0.003  0.004
   29  0.006  0.001  0.004  0.011
   30  0.001  0.001  0.004  0.006
   31  0.006  0.001  0.004  0.011
   32  0.003  0.001  0.002  0.005
   33  0.001  0.001  0.004  0.006
   34  0.003  0.001  0.002  0.005
   35  0.000  0.001  0.008  0.009
   36  0.000  0.000  0.001  0.001
   37  0.000  0.000  0.000  0.000
   38  0.000  0.000  0.000  0.000
tot    0.152  0.030  0.568  0.751
 
band    20 # energy   -5.37654090 # occ.  2.00000000
 
ion      s      p      d    tot
    1  0.000  0.000  0.014  0.014
    2  0.000  0.000  0.005  0.006
    3  0.007  0.001  0.005  0.014
    4  0.000  0.000  0.005  0.006
    5  0.000  0.000  0.004  0.005
    6  0.008  0.001  0.005  0.014
    7  0.007  0.001  0.005  0.014
    8  0.008  0.001  0.005  0.014
    9  0.000  0.001  0.009  0.011
   10  0.007  0.000  0.023  0.030
   11  0.001  0.001  0.026  0.028
   12  0.002  0.001  0.021  0.023
   13  0.001  0.001  0.026  0.028
   14  0.003  0.001  0.016  0.020
   15  0.005  0.001  0.050  0.055
   16  0.002  0.001  0.021  0.023
   17  0.005  0.001  0.050  0.055
   18  0.018  0.002  0.007  0.027
   19  0.003  0.001  0.046  0.049
   20  0.002  0.000  0.023  0.025
   21  0.001  0.001  0.015  0.017
   22  0.006  0.000  0.037  0.043
   23  0.001  0.001  0.015  0.017
   24  0.025  0.001  0.013  0.039
   25  0.012  0.001  0.006  0.019
   26  0.003  0.001  0.046  0.050
   27  0.006  0.000  0.037  0.043
   28  0.000  0.000  0.003  0.004
   29  0.000  0.000  0.003  0.003
   30  0.006  0.001  0.003  0.009
   31  0.000  0.000  0.003  0.003
   32  0.004  0.001  0.005  0.010
   33  0.006  0.001  0.003  0.009
   34  0.004  0.001  0.005  0.010
   35  0.000  0.001  0.008  0.009
   36  0.000  0.000  0.001  0.001
   37  0.000  0.000  0.000  0.000
   38  0.000  0.000  0.000  0.000
tot    0.152  0.030  0.568  0.751
 
band    21 # energy   -5.32961550 # occ.  2.00000000
 
ion      s      p      d    tot
    1  0.014  0.001  0.001  0.015
    2  0.000  0.001  0.009  0.010
    3  0.000  0.001  0.009  0.010
    4  0.000  0.001  0.009  0.010
    5  0.015  0.002  0.001  0.018
    6  0.000  0.001  0.009  0.010
    7  0.000  0.001  0.009  0.010
    8  0.000  0.001  0.009  0.010
    9  0.000  0.000  0.002  0.002
   10  0.000  0.001  0.036  0.037
   11  0.005  0.001  0.013  0.019
   12  0.000  0.001  0.036  0.037
   13  0.005  0.001  0.013  0.019
   14  0.005  0.001  0.013  0.019
   15  0.002  0.000  0.026  0.029
   16  0.000  0.001  0.036  0.037