 vasp.6.2.0 18Jan21 (build Jun 12 2021 23:27:24) complex                        
  
 executed on             LinuxIFC date 2022.05.26  20:09:54
 running on   28 total cores
 distrk:  each k-point on   28 cores,    1 groups
 distr:  one band on NCORE=   1 cores,   28 groups


--------------------------------------------------------------------------------------------------------


 INCAR:
   ISMEAR = -5
   SIGMA = 0.1
   ISPIN = 1
   EDIFF = 1.d-5
   EDIFFG = -0.01
   NSW = 0
   NELM = 150
   ENCUT = 500
   ISIF = 2
   IBRION = 2
   LREAL = Auto
   ALGO = Fast
   ICHARG = 11
   LORBIT = 10
   LCHARG = .F.
   LWAVE = .F.

 POTCAR:    PAW_PBE Cu 22Jun2005                  
 POTCAR:    PAW_PBE Ir 06Sep2000                  
 POTCAR:    PAW_PBE O 08Apr2002                   
 -----------------------------------------------------------------------------
|                                                                             |
|           W    W    AA    RRRRR   N    N  II  N    N   GGGG   !!!           |
|           W    W   A  A   R    R  NN   N  II  NN   N  G    G  !!!           |
|           W    W  A    A  R    R  N N  N  II  N N  N  G       !!!           |
|           W WW W  AAAAAA  RRRRR   N  N N  II  N  N N  G  GGG   !            |
|           WW  WW  A    A  R   R   N   NN  II  N   NN  G    G                |
|           W    W  A    A  R    R  N    N  II  N    N   GGGG   !!!           |
|                                                                             |
|     For optimal performance we recommend to set                             |
|       NCORE = 2 up to number-of-cores-per-socket                            |
|     NCORE specifies how many cores store one orbital (NPAR=cpu/NCORE).      |
|     This setting can greatly improve the performance of VASP for DFT.       |
|     The default, NCORE=1 might be grossly inefficient on modern             |
|     multi-core architectures or massively parallel machines. Do your        |
|     own testing! More info at https://www.vasp.at/wiki/index.php/NCORE      |
|     Unfortunately you need to use the default for GW and RPA                |
|     calculations (for HF NCORE is supported but not extensively tested      |
|     yet).                                                                   |
|                                                                             |
 -----------------------------------------------------------------------------

 POTCAR:    PAW_PBE Cu 22Jun2005                  
   VRHFIN =Cu: d10 p1                                                                               
   LEXCH  = PE                                                                                      
   EATOM  =  1390.9808 eV,  102.2342 Ry                                                             
                                                                                                    
   TITEL  = PAW_PBE Cu 22Jun2005                                                                    
   LULTRA =        F    use ultrasoft PP ?                                                          
   IUNSCR =        1    unscreen: 0-lin 1-nonlin 2-no                                               
   RPACOR =    2.000    partial core radius                                                         
   POMASS =   63.546; ZVAL   =   11.000    mass and valenz                                          
   RCORE  =    2.300    outmost cutoff radius                                                       
   RWIGS  =    2.200; RWIGS  =    1.164    wigner-seitz radius (au A)                               
   ENMAX  =  295.446; ENMIN  =  221.585 eV                                                          
   ICORE  =        3    local potential                                                             
   LCOR   =        T    correct aug charges                                                         
   LPAW   =        T    paw PP                                                                      
   EAUG   =  586.980                                                                                
   DEXC   =    0.000                                                                                
   RMAX   =    2.344    core radius for proj-oper                                                   
   RAUG   =    1.300    factor for augmentation sphere                                              
   RDEP   =    2.302    radius for radial grids                                                     
   RDEPT  =    1.771    core radius for aug-charge                                                  
                                                                                                    
   Atomic configuration                                                                             
    9 entries                                                                                       
     n  l   j            E        occ.                                                              
     1  0  0.50     -8850.2468   2.0000                                                             
     2  0  0.50     -1062.3498   2.0000                                                             
     2  1  1.50      -916.8226   6.0000                                                             
     3  0  0.50      -114.6929   2.0000                                                             
     3  1  1.50       -72.1325   6.0000                                                             
     3  2  2.50        -5.0394  10.0000                                                             
     4  0  0.50        -4.6097   1.0000                                                             
     4  1  0.50        -4.0817   0.0000                                                             
     4  3  2.50        -1.3606   0.0000                                                             
   Description                                                                                      
     l       E           TYP  RCUT    TYP  RCUT                                                     
     2     -5.0393973     23  2.200                                                                 
     2     10.8846608     23  2.200                                                                 
     0     -4.6097109     23  2.200                                                                 
     0      8.2520465     23  2.200                                                                 
     1     -2.7211652     23  2.200                                                                 
     1     21.7055443     23  2.200                                                                 
     3      2.7211652     23  2.300                                                                 
  local pseudopotential read in
  partial core-charges read in
  partial kinetic energy density read in
  atomic valenz-charges read in
  non local Contribution for L=           2  read in
    real space projection operators read in
  non local Contribution for L=           2  read in
    real space projection operators read in
  non local Contribution for L=           0  read in
    real space projection operators read in
  non local Contribution for L=           0  read in
    real space projection operators read in
  non local Contribution for L=           1  read in
    real space projection operators read in
  non local Contribution for L=           1  read in
    real space projection operators read in
    PAW grid and wavefunctions read in
 
   number of l-projection  operators is LMAX  =           6
   number of lm-projection operators is LMMAX =          18
 
 POTCAR:    PAW_PBE Ir 06Sep2000                  
   VRHFIN =Ir: s1d8                                                                                 
   LEXCH  = PE                                                                                      
   EATOM  =   560.1833 eV,   41.1723 Ry                                                             
                                                                                                    
   TITEL  = PAW_PBE Ir 06Sep2000                                                                    
   LULTRA =        F    use ultrasoft PP ?                                                          
   IUNSCR =        1    unscreen: 0-lin 1-nonlin 2-no                                               
   RPACOR =    2.250    partial core radius                                                         
   POMASS =  192.220; ZVAL   =    9.000    mass and valenz                                          
   RCORE  =    2.600    outmost cutoff radius                                                       
   RWIGS  =    2.690; RWIGS  =    1.423    wigner-seitz radius (au A)                               
   ENMAX  =  210.864; ENMIN  =  158.148 eV                                                          
   RCLOC  =    1.857    cutoff for local pot                                                        
   LCOR   =        T    correct aug charges                                                         
   LPAW   =        T    paw PP                                                                      
   EAUG   =  318.962                                                                                
   DEXC   =    0.000                                                                                
   RMAX   =    2.667    core radius for proj-oper                                                   
   RAUG   =    1.300    factor for augmentation sphere                                              
   RDEP   =    2.748    radius for radial grids                                                     
   RDEPT  =    2.300    core radius for aug-charge                                                  
                                                                                                    
   Atomic configuration                                                                             
   16 entries                                                                                       
     n  l   j            E        occ.                                                              
     1  0  0.50    -76100.0449   2.0000                                                             
     2  0  0.50    -13308.1683   2.0000                                                             
     2  1  1.50    -11558.0021   6.0000                                                             
     3  0  0.50     -3110.7274   2.0000                                                             
     3  1  1.50     -2599.2109   6.0000                                                             
     3  2  2.50     -2037.1515  10.0000                                                             
     4  0  0.50      -661.6001   2.0000                                                             
     4  1  1.50      -493.8981   6.0000                                                             
     4  2  2.50      -288.1909  10.0000                                                             
     4  3  3.50       -59.5718  14.0000                                                             
     5  0  0.50       -95.3879   2.0000                                                             
     5  1  1.50       -52.2747   6.0000                                                             
     5  2  2.50        -5.4180   8.0000                                                             
     6  0  0.50        -5.5479   1.0000                                                             
     6  1  1.50        -6.8029   0.0000                                                             
     5  3  2.50        -1.3606   0.0000                                                             
   Description                                                                                      
     l       E           TYP  RCUT    TYP  RCUT                                                     
     2     -5.4179967     23  2.600                                                                 
     2     -6.7785793     23  2.600                                                                 
     0     -5.5478636     23  2.600                                                                 
     0      2.2542272     23  2.600                                                                 
     1     -2.7211652     23  2.600                                                                 
     1     20.4087390     23  2.600                                                                 
  local pseudopotential read in
  partial core-charges read in
  partial kinetic energy density read in
  atomic valenz-charges read in
  non local Contribution for L=           2  read in
    real space projection operators read in
  non local Contribution for L=           2  read in
    real space projection operators read in
  non local Contribution for L=           0  read in
    real space projection operators read in
  non local Contribution for L=           0  read in
    real space projection operators read in
  non local Contribution for L=           1  read in
    real space projection operators read in
  non local Contribution for L=           1  read in
    real space projection operators read in
    PAW grid and wavefunctions read in
 
   number of l-projection  operators is LMAX  =           6
   number of lm-projection operators is LMMAX =          18
 
 POTCAR:    PAW_PBE O 08Apr2002                   
   VRHFIN =O: s2p4                                                                                  
   LEXCH  = PE                                                                                      
   EATOM  =   432.3788 eV,   31.7789 Ry                                                             
                                                                                                    
   TITEL  = PAW_PBE O 08Apr2002                                                                     
   LULTRA =        F    use ultrasoft PP ?                                                          
   IUNSCR =        1    unscreen: 0-lin 1-nonlin 2-no                                               
   RPACOR =    1.200    partial core radius                                                         
   POMASS =   16.000; ZVAL   =    6.000    mass and valenz                                          
   RCORE  =    1.520    outmost cutoff radius                                                       
   RWIGS  =    1.550; RWIGS  =    0.820    wigner-seitz radius (au A)                               
   ENMAX  =  400.000; ENMIN  =  300.000 eV                                                          
   ICORE  =        2    local potential                                                             
   LCOR   =        T    correct aug charges                                                         
   LPAW   =        T    paw PP                                                                      
   EAUG   =  605.392                                                                                
   DEXC   =    0.000                                                                                
   RMAX   =    1.553    core radius for proj-oper                                                   
   RAUG   =    1.300    factor for augmentation sphere                                              
   RDEP   =    1.550    radius for radial grids                                                     
   RDEPT  =    1.329    core radius for aug-charge                                                  
                                                                                                    
   Atomic configuration                                                                             
    4 entries                                                                                       
     n  l   j            E        occ.                                                              
     1  0  0.50      -514.6923   2.0000                                                             
     2  0  0.50       -23.9615   2.0000                                                             
     2  1  0.50        -9.0305   4.0000                                                             
     3  2  1.50        -9.5241   0.0000                                                             
   Description                                                                                      
     l       E           TYP  RCUT    TYP  RCUT                                                     
     0    -23.9615318     23  1.200                                                                 
     0     -9.5240782     23  1.200                                                                 
     1     -9.0304911     23  1.520                                                                 
     1      8.1634956     23  1.520                                                                 
     2     -9.5240782      7  1.500                                                                 
  local pseudopotential read in
  partial core-charges read in
  partial kinetic energy density read in
  kinetic energy density of atom read in
  atomic valenz-charges read in
  non local Contribution for L=           0  read in
    real space projection operators read in
  non local Contribution for L=           0  read in
    real space projection operators read in
  non local Contribution for L=           1  read in
    real space projection operators read in
  non local Contribution for L=           1  read in
    real space projection operators read in
    PAW grid and wavefunctions read in
 
   number of l-projection  operators is LMAX  =           4
   number of lm-projection operators is LMMAX =           8
 
 Optimization of the real space projectors (new method)

 maximal supplied QI-value         = 16.25
 optimisation between [QCUT,QGAM] = [ 11.38, 22.75] = [ 36.24,144.96] Ry 
 Optimized for a Real-space Cutoff    1.52 Angstroem

   l    n(q)    QCUT    max X(q) W(low)/X(q) W(high)/X(q)  e(spline) 
   2      9    11.376     4.610    0.21E-03    0.10E-03    0.26E-06
   2      9    11.376     8.522    0.33E-03    0.16E-03    0.37E-06
   0     10    11.376    51.609    0.62E-04    0.20E-04    0.13E-06
   0     10    11.376    27.747    0.54E-04    0.20E-04    0.13E-06
   1     10    11.376    20.408    0.13E-04    0.99E-04    0.19E-06
   1     10    11.376    13.425    0.12E-04    0.87E-04    0.17E-06
 Optimization of the real space projectors (new method)

 maximal supplied QI-value         = 14.36
 optimisation between [QCUT,QGAM] = [ 11.35, 22.84] = [ 36.05,146.02] Ry 
 Optimized for a Real-space Cutoff    1.52 Angstroem

   l    n(q)    QCUT    max X(q) W(low)/X(q) W(high)/X(q)  e(spline) 
   2      9    11.346   134.116    0.47E-03    0.13E-03    0.92E-06
   2      9    11.346   130.192    0.47E-03    0.13E-03    0.92E-06
   0     10    11.346    60.310    0.74E-04    0.13E-03    0.69E-06
   0     10    11.346    39.218    0.68E-04    0.12E-03    0.65E-06
   1     10    11.346    18.439    0.15E-03    0.34E-04    0.20E-06
   1     10    11.346    12.760    0.12E-03    0.31E-04    0.16E-06
 Optimization of the real space projectors (new method)

 maximal supplied QI-value         = 24.76
 optimisation between [QCUT,QGAM] = [ 11.39, 22.77] = [ 36.31,145.25] Ry 
 Optimized for a Real-space Cutoff    1.00 Angstroem

   l    n(q)    QCUT    max X(q) W(low)/X(q) W(high)/X(q)  e(spline) 
   0      7    11.387    20.381    0.39E-03    0.13E-02    0.15E-06
   0      7    11.387    15.268    0.42E-03    0.14E-02    0.17E-06
   1      6    11.387     5.964    0.41E-03    0.11E-02    0.17E-06
   1      6    11.387     5.382    0.39E-03    0.87E-03    0.15E-06
  PAW_PBE Cu 22Jun2005                  :
 energy of atom  1       EATOM=-1390.9808
 kinetic energy error for atom=    0.0043 (will be added to EATOM!!)
  PAW_PBE Ir 06Sep2000                  :
 energy of atom  2       EATOM= -560.1833
 kinetic energy error for atom=    0.0018 (will be added to EATOM!!)
  PAW_PBE O 08Apr2002                   :
 energy of atom  3       EATOM= -432.3788
 kinetic energy error for atom=    0.0224 (will be added to EATOM!!)
 
 
 POSCAR: Cu-Ir-O
  positions in direct lattice
  velocities in cartesian coordinates
 exchange correlation table for  LEXCH =        8
   RHO(1)=    0.500       N(1)  =     2000
   RHO(2)=  100.500       N(2)  =     4000

 VTST: version 3.2, (02/03/18)

 CHAIN: initializing optimizer
 
 OPT: Using VASP Conjugate-Gradient optimizer
 CHAIN: Read ICHAIN            0
 
 POSCAR: Cu-Ir-O
  positions in direct lattice
  velocities in cartesian coordinates
 


--------------------------------------------------------------------------------------------------------


 ion  position               nearest neighbor table
   1  0.000  0.000  0.252-   7 2.57   3 2.57   4 2.57   2 2.57   6 2.57   8 2.57  12 2.57  10 2.57
                            16 2.57
   2  0.333  0.000  0.252-   8 2.57   9 2.57   5 2.57   1 2.57   3 2.57  11 2.57   4 2.57  10 2.57
                            17 2.57
   3  0.667  0.000  0.252-   1 2.57   7 2.57   6 2.57   9 2.57   2 2.57  12 2.57   5 2.57  18 2.57
                            11 2.57
   4  0.000  0.333  0.252-   5 2.57   6 2.57   1 2.57   7 2.57   2 2.57  13 2.57   9 2.57  10 2.57
                            15 2.57
   5  0.333  0.333  0.252-   4 2.57   2 2.57   7 2.57  13 2.57   8 2.57   6 2.57   3 2.57  11 2.57
                            14 2.57
   6  0.667  0.333  0.252-   4 2.57   9 2.57  15 2.57   3 2.57   1 2.57   8 2.57  14 2.57   5 2.57
                            12 2.57
   7  0.000  0.667  0.252-   1 2.57   3 2.57  16 2.57  18 2.57   4 2.57   5 2.57   8 2.57   9 2.57
                            13 2.57
   8  0.333  0.667  0.252-   9 2.57   2 2.57  17 2.57   6 2.57   1 2.57   7 2.57   5 2.57  14 2.57
                            16 2.57
   9  0.667  0.667  0.252-   8 2.57   6 2.57   2 2.57  17 2.57   3 2.57   7 2.57   4 2.57  15 2.57
                            18 2.57
  10  0.111  0.111  0.351-  20 2.53  11 2.57  12 2.57  13 2.57   1 2.57   2 2.57   4 2.57  15 2.57
                            16 2.57  17 2.57  26 2.57  19 2.57
  11  0.444  0.111  0.351-  20 2.55  21 2.55  10 2.57  13 2.57   2 2.57  17 2.57  14 2.57  12 2.57
                             5 2.57   3 2.57  18 2.57  27 2.57
  12  0.778  0.111  0.351-  21 2.53  15 2.57  10 2.57  14 2.57  18 2.57   3 2.57   1 2.57  16 2.57
                            11 2.57   6 2.57  19 2.57  25 2.57
  13  0.111  0.444  0.351-  23 2.55  20 2.55  16 2.57  18 2.57  10 2.57  11 2.57  14 2.57   5 2.57
                             4 2.57   7 2.57  15 2.57  22 2.57
  14  0.444  0.444  0.351-  21 2.55  23 2.55  15 2.57  17 2.57  12 2.57  16 2.57  13 2.57  11 2.57
                             6 2.57   8 2.57   5 2.57  24 2.57
  15  0.778  0.444  0.351-  19 2.56  24 2.56  22 2.56  14 2.57  17 2.57  12 2.57   6 2.57  18 2.57
                            10 2.57   9 2.57  13 2.57   4 2.57
  16  0.111  0.778  0.351-  23 2.53  18 2.57  13 2.57   7 2.57  14 2.57  17 2.57  12 2.57  10 2.57
                             8 2.57   1 2.57  25 2.57  26 2.57
  17  0.444  0.778  0.351-  26 2.56  27 2.56  24 2.56  14 2.57  15 2.57   8 2.57   9 2.57  11 2.57
                            16 2.57  18 2.57  10 2.57   2 2.57
  18  0.778  0.778  0.351-  25 2.56  22 2.56  27 2.56  16 2.57  13 2.57   7 2.57  15 2.57  12 2.57
                            17 2.57   9 2.57   3 2.57  11 2.57
  19  0.888  0.223  0.449-  28 2.55  21 2.55  20 2.55  22 2.56  24 2.56  15 2.56  32 2.56  31 2.56
                            12 2.57  10 2.57  25 2.58  26 2.58
  20  0.221  0.221  0.448-  10 2.53  11 2.55  13 2.55  26 2.55  19 2.55  36 2.55  27 2.57  22 2.57
                            29 2.59  31 2.59  23 2.59  21 2.59
  21  0.558  0.221  0.448-  12 2.53  14 2.55  11 2.55  19 2.55  25 2.55  36 2.55  24 2.57  27 2.57
                            32 2.59  30 2.59  20 2.59  23 2.59
  22  0.888  0.556  0.449-  35 2.54  24 2.56  27 2.56  19 2.56  25 2.56  18 2.56  15 2.56  13 2.57
                            23 2.57  20 2.57  31 2.57  33 2.57
  23  0.221  0.558  0.448-  16 2.53  13 2.55  14 2.55  25 2.55  26 2.55  36 2.55  22 2.57  24 2.57
                            33 2.59  34 2.59  20 2.59  21 2.59
  24  0.556  0.556  0.449-  35 2.54  22 2.56  27 2.56  19 2.56  26 2.56  15 2.56  17 2.56  14 2.57
                            21 2.57  23 2.57  32 2.57  34 2.57
  25  0.888  0.888  0.449-  28 2.55  21 2.55  23 2.55  22 2.56  27 2.56  18 2.56  33 2.56  30 2.56
                            16 2.57  12 2.57  19 2.58  26 2.58
  26  0.223  0.888  0.449-  28 2.55  20 2.55  23 2.55  27 2.56  24 2.56  17 2.56  29 2.56  34 2.56
                            10 2.57  16 2.57  25 2.58  19 2.58
  27  0.556  0.888  0.449-  35 2.54  24 2.56  22 2.56  26 2.56  25 2.56  17 2.56  18 2.56  11 2.57
                            20 2.57  21 2.57  29 2.57  30 2.57
  28  0.000  0.000  0.546-  25 2.55  19 2.55  26 2.55  33 2.56  30 2.56  31 2.56  29 2.56  32 2.56
                            34 2.56
  29  0.333  0.999  0.548-  34 2.55  28 2.56  26 2.56  35 2.57  31 2.57  27 2.57  36 2.57  30 2.58
                            20 2.59
  30  0.668  0.999  0.548-  33 2.55  28 2.56  25 2.56  35 2.57  32 2.57  27 2.57  36 2.57  29 2.58
                            21 2.59
  31  0.999  0.333  0.548-  32 2.55  28 2.56  19 2.56  35 2.57  29 2.57  22 2.57  36 2.57  33 2.58
                            20 2.59
  32  0.668  0.333  0.548-  31 2.55  28 2.56  19 2.56  35 2.57  30 2.57  24 2.57  36 2.57  34 2.58
                            21 2.59
  33  0.999  0.668  0.548-  30 2.55  28 2.56  25 2.56  35 2.57  34 2.57  22 2.57  36 2.57  31 2.58
                            23 2.59
  34  0.333  0.668  0.548-  29 2.55  28 2.56  26 2.56  35 2.57  33 2.57  24 2.57  36 2.57  32 2.58
                            23 2.59
  35  0.667  0.667  0.546-  24 2.54  27 2.54  22 2.54  34 2.57  32 2.57  29 2.57  30 2.57  33 2.57
                            31 2.57
  36  0.333  0.333  0.545-  37 1.81  23 2.55  20 2.55  21 2.55  31 2.57  29 2.57  33 2.57  34 2.57
                            32 2.57  30 2.57
  37  0.333  0.333  0.630-  36 1.81
 
  LATTYP: Found a hexagonal cell.
 ALAT       =     7.6967864036
 C/A-ratio  =     2.7653617908
  
  Lattice vectors:
  
 A1 = (  -3.8483927580,  -6.6656128093,   0.0000000000)
 A2 = (   7.6967864037,   0.0000000000,   0.0000000000)
 A3 = (   0.0000000000,   0.0000000000,  21.2843990326)


Analysis of symmetry for initial positions (statically):
=====================================================================
 Subroutine PRICEL returns:
 Original cell was already a primitive cell.
 

 Routine SETGRP: Setting up the symmetry group for a 
 hexagonal supercell.


 Subroutine GETGRP returns: Found  6 space group operations
 (whereof  6 operations were pure point group operations)
 out of a pool of 24 trial point group operations.


The static configuration has the point symmetry C_3v.


Analysis of symmetry for dynamics (positions and initial velocities):
=====================================================================
 Subroutine PRICEL returns:
 Original cell was already a primitive cell.
 

 Routine SETGRP: Setting up the symmetry group for a 
 hexagonal supercell.


 Subroutine GETGRP returns: Found  6 space group operations
 (whereof  6 operations were pure point group operations)
 out of a pool of 24 trial point group operations.


The dynamic configuration has the point symmetry C_3v.


Analysis of constrained symmetry for selective dynamics:
=====================================================================
 Subroutine PRICEL returns:
 Original cell was already a primitive cell.
 

 Routine SETGRP: Setting up the symmetry group for a 
 hexagonal supercell.


 Subroutine GETGRP returns: Found  6 space group operations
 (whereof  6 operations were pure point group operations)
 out of a pool of 24 trial point group operations.


The constrained configuration has the point symmetry C_3v.


 Subroutine INISYM returns: Found  6 space group operations
 (whereof  6 operations are pure point group operations),
 and found     1 'primitive' translations


----------------------------------------------------------------------------------------

                                     Primitive cell                                     

  volume of cell :    1091.9705

  direct lattice vectors                    reciprocal lattice vectors
     7.696786404  0.000000000  0.000000000     0.129924354 -0.075011849  0.000000000
     3.848392758  6.665612809  0.000000000     0.000000000  0.150023716  0.000000000
     0.000000000  0.000000000 21.284399033     0.000000000  0.000000000  0.046982769

  length of vectors
     7.696786404  7.696786404 21.284399033     0.150023716  0.150023716  0.046982769

  position of ions in fractional coordinates (direct lattice)
     0.000000000  0.000000000  0.252370745
     0.333333343  0.000000000  0.252370745
     0.666666687  0.000000000  0.252370745
     1.000000000  0.333333343  0.252370745
     0.333333313  0.333333343  0.252370745
     0.666666687  0.333333343  0.252370745
     1.000000000  0.666666687  0.252370745
     0.333333373  0.666666687  0.252370745
     0.666666627  0.666666687  0.252370745
     0.111111119  0.111111112  0.350790262
     0.444444418  0.111111112  0.350790262
     0.777777791  0.111111112  0.350790262
     0.111111119  0.444444448  0.350790262
     0.444444478  0.444444448  0.350790262
     0.777777731  0.444444448  0.350790262
     0.111111112  0.777777731  0.350790262
     0.444444478  0.777777731  0.350790262
     0.777777851  0.777777731  0.350790262
     0.888405840  0.223188336  0.449235545
     0.221047320  0.221047305  0.447812217
     0.557905420  0.221047305  0.447812217
     0.888076192  0.555961874  0.449167313
     0.221047290  0.557905360  0.447812217
     0.555961934  0.555961874  0.449167313
     0.888405840  0.888405840  0.449235545
     0.223188351  0.888405840  0.449235545
     0.555961874  0.888076192  0.449167313
     0.000000000  0.000000000  0.546410358
     0.332763824  0.999227797  0.547870318
     0.668008409  0.999227797  0.547870318
     0.999227797  0.332763824  0.547870318
     0.668008409  0.332763824  0.547870318
     0.999227797  0.668008409  0.547870318
     0.332763854  0.668008409  0.547870318
     0.666666627  0.666666687  0.546369580
     0.333333313  0.333333343  0.545005776
     0.333333313  0.333333343  0.630096108

  ion indices of the primitive-cell ions
   primitive index   ion index
                 1           1
                 2           2
                 3           3
                 4           4
                 5           5
                 6           6
                 7           7
                 8           8
                 9           9
                10          10
                11          11
                12          12
                13          13
                14          14
                15          15
                16          16
                17          17
                18          18
                19          19
                20          20
                21          21
                22          22
                23          23
                24          24
                25          25
                26          26
                27          27
                28          28
                29          29
                30          30
                31          31
                32          32
                33          33
                34          34
                35          35
                36          36
                37          37

----------------------------------------------------------------------------------------

 
 
 KPOINTS: Automatic mesh                          

Automatic generation of k-mesh.
 Grid dimensions read from file:
 generate k-points for:    8    8    1

 Generating k-lattice:

  Cartesian coordinates                     Fractional coordinates (reciprocal lattice)
     0.016240544 -0.009376481  0.000000000     0.125000000 -0.000000000  0.000000000
     0.000000000  0.018752964  0.000000000     0.000000000  0.125000000  0.000000000
     0.000000000  0.000000000  0.046982769     0.000000000  0.000000000  1.000000000

  Length of vectors
     0.018752964  0.018752964  0.046982769

  Shift w.r.t. Gamma in fractional coordinates (k-lattice)
     0.000000000  0.000000000  0.000000000

 TETIRR: Found     36 inequivalent tetrahedra from      384
 
 Subroutine IBZKPT returns following result:
 ===========================================
 
 Found     10 irreducible k-points:
 
 Following reciprocal coordinates:
            Coordinates               Weight
  0.000000  0.000000  0.000000      1.000000
  0.125000 -0.000000  0.000000      6.000000
  0.250000 -0.000000  0.000000      6.000000
  0.375000 -0.000000  0.000000      6.000000
  0.500000 -0.000000  0.000000      3.000000
  0.250000  0.125000  0.000000      6.000000
  0.375000  0.125000  0.000000     12.000000
  0.500000  0.125000  0.000000     12.000000
  0.500000  0.250000  0.000000      6.000000
 -0.375000  0.250000  0.000000      6.000000
 
 Following cartesian coordinates:
            Coordinates               Weight
  0.000000  0.000000  0.000000      1.000000
  0.016241 -0.009376  0.000000      6.000000
  0.032481 -0.018753  0.000000      6.000000
  0.048722 -0.028129  0.000000      6.000000
  0.064962 -0.037506  0.000000      3.000000
  0.032481  0.000000  0.000000      6.000000
  0.048722 -0.009376  0.000000     12.000000
  0.064962 -0.018753  0.000000     12.000000
  0.064962  0.000000  0.000000      6.000000
 -0.048722  0.065635  0.000000      6.000000
 


--------------------------------------------------------------------------------------------------------




 Dimension of arrays:
   k-points           NKPTS =     10   k-points in BZ     NKDIM =     10   number of bands    NBANDS=    252
   number of dos      NEDOS =    301   number of ions     NIONS =     37
   non local maximal  LDIM  =      6   non local SUM 2l+1 LMDIM =     18
   total plane-waves  NPLWV = 211680
   max r-space proj   IRMAX =   2893   max aug-charges    IRDMAX=  14216
   dimension x,y,z NGX =    42 NGY =   42 NGZ =  120
   dimension x,y,z NGXF=    84 NGYF=   84 NGZF=  240
   support grid    NGXF=    84 NGYF=   84 NGZF=  240
   ions per type =              35   1   1
   NGX,Y,Z   is equivalent  to a cutoff of   9.07,  9.07,  9.37 a.u.
   NGXF,Y,Z  is equivalent  to a cutoff of  18.14, 18.14, 18.75 a.u.

 SYSTEM =  unknown system                          
 POSCAR =  Cu-Ir-O                                 

 Startparameter for this run:
   NWRITE =      2    write-flag & timer
   PREC   = normal    normal or accurate (medium, high low for compatibility)
   ISTART =      0    job   : 0-new  1-cont  2-samecut
   ICHARG =     11    charge: 1-file 2-atom 10-const
   ISPIN  =      1    spin polarized calculation?
   LNONCOLLINEAR =      F non collinear calculations
   LSORBIT =      F    spin-orbit coupling
   INIWAV =      1    electr: 0-lowe 1-rand  2-diag
   LASPH  =      F    aspherical Exc in radial PAW
   METAGGA=      F    non-selfconsistent MetaGGA calc.

 Electronic Relaxation 1
   ENCUT  =  500.0 eV  36.75 Ry    6.06 a.u.  14.03 14.03 38.81*2*pi/ulx,y,z
   ENINI  =  500.0     initial cutoff
   ENAUG  =  605.4 eV  augmentation charge cutoff
   NELM   =    150;   NELMIN=  2; NELMDL= -5     # of ELM steps 
   EDIFF  = 0.1E-04   stopping-criterion for ELM
   LREAL  =      T    real-space projection
   NLSPLINE    = F    spline interpolate recip. space projectors
   LCOMPAT=      F    compatible to vasp.4.4
   GGA_COMPAT  = T    GGA compatible to vasp.4.4-vasp.4.6
   LMAXPAW     = -100 max onsite density
   LMAXMIX     =    2 max onsite mixed and CHGCAR
   VOSKOWN=      0    Vosko Wilk Nusair interpolation
   ROPT   =   -0.00050  -0.00050  -0.00050
 Ionic relaxation
   EDIFFG = -.1E-01   stopping-criterion for IOM
   NSW    =      0    number of steps for IOM
   NBLOCK =      1;   KBLOCK =      1    inner block; outer block 
   IBRION =     -1    ionic relax: 0-MD 1-quasi-New 2-CG
   NFREE  =      1    steps in history (QN), initial steepest desc. (CG)
   ISIF   =      2    stress and relaxation
   IWAVPR =     10    prediction:  0-non 1-charg 2-wave 3-comb
   ISYM   =      2    0-nonsym 1-usesym 2-fastsym
   LCORR  =      T    Harris-Foulkes like correction to forces

   POTIM  = 0.5000    time-step for ionic-motion
   TEIN   =    0.0    initial temperature
   TEBEG  =    0.0;   TEEND  =   0.0 temperature during run
   SMASS  =  -3.00    Nose mass-parameter (am)
   estimated Nose-frequenzy (Omega)   =  0.10E-29 period in steps = 0.13E+47 mass=  -0.135E-26a.u.
   SCALEE = 1.0000    scale energy and forces
   NPACO  =    256;   APACO  = 16.0  distance and # of slots for P.C.
   PSTRESS=    0.0 pullay stress

  Mass of Ions in am
   POMASS =  63.55192.22 16.00
  Ionic Valenz
   ZVAL   =  11.00  9.00  6.00
  Atomic Wigner-Seitz radii
   RWIGS  =  -1.00 -1.00 -1.00
  virtual crystal weights 
   VCA    =   1.00  1.00  1.00
   NELECT =     400.0000    total number of electrons
   NUPDOWN=      -1.0000    fix difference up-down

 DOS related values:
   EMIN   =  10.00;   EMAX   =-10.00  energy-range for DOS
   EFERMI =   0.00
   ISMEAR =    -5;   SIGMA  =   0.10  broadening in eV -4-tet -1-fermi 0-gaus

 Electronic relaxation 2 (details)
   IALGO  =     68    algorithm
   LDIAG  =      T    sub-space diagonalisation (order eigenvalues)
   LSUBROT=      F    optimize rotation matrix (better conditioning)
   TURBO    =      0    0=normal 1=particle mesh
   IRESTART =      0    0=no restart 2=restart with 2 vectors
   NREBOOT  =      0    no. of reboots
   NMIN     =      0    reboot dimension
   EREF     =   0.00    reference energy to select bands
   IMIX   =      4    mixing-type and parameters
     AMIX     =   0.40;   BMIX     =  1.00
     AMIX_MAG =   1.60;   BMIX_MAG =  1.00
     AMIN     =   0.10
     WC   =   100.;   INIMIX=   1;  MIXPRE=   1;  MAXMIX= -45

 Intra band minimization:
   WEIMIN = 0.0000     energy-eigenvalue tresh-hold
   EBREAK =  0.99E-08  absolut break condition
   DEPER  =   0.30     relativ break condition  

   TIME   =   0.40     timestep for ELM

  volume/ion in A,a.u.               =      29.51       199.16
  Fermi-wavevector in a.u.,A,eV,Ry     =   1.171362  2.213554 18.668409  1.372089
  Thomas-Fermi vector in A             =   2.307807
 
 Write flags
   LWAVE        =      F    write WAVECAR
   LDOWNSAMPLE  =      F    k-point downsampling of WAVECAR
   LCHARG       =      F    write CHGCAR
   LVTOT        =      F    write LOCPOT, total local potential
   LVHAR        =      F    write LOCPOT, Hartree potential only
   LELF         =      F    write electronic localiz. function (ELF)
   LORBIT       =     10    0 simple, 1 ext, 2 COOP (PROOUT), +10 PAW based schemes


 Dipole corrections
   LMONO  =      F    monopole corrections only (constant potential shift)
   LDIPOL =      F    correct potential (dipole corrections)
   IDIPOL =      0    1-x, 2-y, 3-z, 4-all directions 
   EPSILON=  1.0000000 bulk dielectric constant

 Exchange correlation treatment:
   GGA     =    --    GGA type
   LEXCH   =     8    internal setting for exchange type
   VOSKOWN=      0    Vosko Wilk Nusair interpolation
   LHFCALC =     F    Hartree Fock is set to
   LHFONE  =     F    Hartree Fock one center treatment
   AEXX    =    0.0000 exact exchange contribution

 Linear response parameters
   LEPSILON=     F    determine dielectric tensor
   LRPA    =     F    only Hartree local field effects (RPA)
   LNABLA  =     F    use nabla operator in PAW spheres
   LVEL    =     F    velocity operator in full k-point grid
   LINTERFAST=   F  fast interpolation
   KINTER  =     0    interpolate to denser k-point grid
   CSHIFT  =0.1000    complex shift for real part using Kramers Kronig
   OMEGAMAX=  -1.0    maximum frequency
   DEG_THRESHOLD= 0.2000000E-02 threshold for treating states as degnerate
   RTIME   =   -0.100 relaxation time in fs
  (WPLASMAI=    0.000 imaginary part of plasma frequency in eV, 0.658/RTIME)
   DFIELD  = 0.0000000 0.0000000 0.0000000 field for delta impulse in time
 
 Orbital magnetization related:
   ORBITALMAG=     F  switch on orbital magnetization
   LCHIMAG   =     F  perturbation theory with respect to B field
   DQ        =  0.001000  dq finite difference perturbation B field
   LLRAUG    =     F  two centre corrections for induced B field



--------------------------------------------------------------------------------------------------------


 Static calculation
 charge density and potential remain constant during run
 non-spin polarized calculation
 RMM-DIIS sequential band-by-band and
  variant of blocked Davidson during initial phase
 perform sub-space diagonalisation
    before iterative eigenvector-optimisation
 no mixing
 using additional bands           52
 real space projection scheme for non local part
 use partial core corrections
 calculate Harris-corrections to forces 
   (improved forces if not selfconsistent)
 use gradient corrections 
 WARNING: stress and forces are not correct
  (second derivative of E(xc) not defined)
 use of overlap-Matrix (Vanderbilt PP)
 Fermi weights with tetrahedron method with Bloechl corrections


--------------------------------------------------------------------------------------------------------


  energy-cutoff  :      500.00
  volume of cell :     1091.97
      direct lattice vectors                 reciprocal lattice vectors
     7.696786404  0.000000000  0.000000000     0.129924354 -0.075011849  0.000000000
     3.848392758  6.665612809  0.000000000     0.000000000  0.150023716  0.000000000
     0.000000000  0.000000000 21.284399033     0.000000000  0.000000000  0.046982769

  length of vectors
     7.696786404  7.696786404 21.284399033     0.150023716  0.150023716  0.046982769


 
 k-points in units of 2pi/SCALE and weight: Automatic mesh                          
   0.00000000  0.00000000  0.00000000       0.016
   0.01624054 -0.00937648  0.00000000       0.094
   0.03248109 -0.01875296  0.00000000       0.094
   0.04872163 -0.02812944  0.00000000       0.094
   0.06496218 -0.03750592  0.00000000       0.047
   0.03248109  0.00000000  0.00000000       0.094
   0.04872163 -0.00937648  0.00000000       0.188
   0.06496218 -0.01875296  0.00000000       0.188
   0.06496218  0.00000000  0.00000000       0.094
  -0.04872163  0.06563537  0.00000000       0.094
 
 k-points in reciprocal lattice and weights: Automatic mesh                          
   0.00000000  0.00000000  0.00000000       0.016
   0.12500000 -0.00000000  0.00000000       0.094
   0.25000000 -0.00000000  0.00000000       0.094
   0.37500000 -0.00000000  0.00000000       0.094
   0.50000000 -0.00000000  0.00000000       0.047
   0.25000000  0.12500000  0.00000000       0.094
   0.37500000  0.12500000  0.00000000       0.188
   0.50000000  0.12500000  0.00000000       0.188
   0.50000000  0.25000000  0.00000000       0.094
  -0.37500000  0.25000000  0.00000000       0.094
 
 position of ions in fractional coordinates (direct lattice) 
   0.00000000  0.00000000  0.25237075
   0.33333334  0.00000000  0.25237075
   0.66666669  0.00000000  0.25237075
   0.00000000  0.33333334  0.25237075
   0.33333331  0.33333334  0.25237075
   0.66666669  0.33333334  0.25237075
   0.00000000  0.66666669  0.25237075
   0.33333337  0.66666669  0.25237075
   0.66666663  0.66666669  0.25237075
   0.11111112  0.11111111  0.35079026
   0.44444442  0.11111111  0.35079026
   0.77777779  0.11111111  0.35079026
   0.11111112  0.44444445  0.35079026
   0.44444448  0.44444445  0.35079026
   0.77777773  0.44444445  0.35079026
   0.11111111  0.77777773  0.35079026
   0.44444448  0.77777773  0.35079026
   0.77777785  0.77777773  0.35079026
   0.88840584  0.22318834  0.44923554
   0.22104732  0.22104730  0.44781222
   0.55790542  0.22104730  0.44781222
   0.88807619  0.55596187  0.44916731
   0.22104729  0.55790536  0.44781222
   0.55596193  0.55596187  0.44916731
   0.88840584  0.88840584  0.44923554
   0.22318835  0.88840584  0.44923554
   0.55596187  0.88807619  0.44916731
   0.00000000  0.00000000  0.54641036
   0.33276382  0.99922780  0.54787032
   0.66800841  0.99922780  0.54787032
   0.99922780  0.33276382  0.54787032
   0.66800841  0.33276382  0.54787032
   0.99922780  0.66800841  0.54787032
   0.33276385  0.66800841  0.54787032
   0.66666663  0.66666669  0.54636958
   0.33333331  0.33333334  0.54500578
   0.33333331  0.33333334  0.63009611
 
 position of ions in cartesian coordinates  (Angst):
   0.00000000  0.00000000  5.37155964
   2.56559554  0.00000000  5.37155964
   5.13119109  0.00000000  5.37155964
   1.28279762  2.22187100  5.37155964
   3.84839293  2.22187100  5.37155964
   6.41398872  2.22187100  5.37155964
   2.56559525  4.44374201  5.37155964
   5.13119102  4.44374201  5.37155964
   7.69678588  4.44374201  5.37155964
   1.28279775  0.74062365  7.46635991
   3.84839295  0.74062365  7.46635991
   6.41398873  0.74062365  7.46635991
   2.56559535  2.96249461  7.46635991
   5.13119101  2.96249461  7.46635991
   7.69678586  2.96249461  7.46635991
   3.84839268  5.18436521  7.46635991
   6.41398840  5.18436521  7.46635991
   8.97958418  5.18436521  7.46635991
   7.69678637  1.48768703  9.56170860
   2.55203085  1.47341575  9.53141393
   5.14475570  1.47341575  9.53141393
   8.97489241  3.70582659  9.56025631
   3.84839272  3.71878111  9.53141393
   6.41867990  3.70582659  9.56025631
  10.25680459  5.92176935  9.56170860
   5.13676766  5.92176935  9.56170860
   7.69678578  5.91957204  9.56025631
   0.00000000  0.00000000 11.63001609
   6.40663309  6.66046561 11.66109047
   8.98693906  6.66046561 11.66109047
   8.97144882  2.21807481 11.66109047
   6.42212393  2.21807481 11.66109047
  10.26160165  4.45268541 11.66109047
   5.13197103  4.45268541 11.66109047
   7.69678588  4.44374201 11.62914817
   3.84839293  2.22187100 11.60012040
   3.84839293  2.22187100 13.41121699
 


--------------------------------------------------------------------------------------------------------


 k-point   1 :   0.0000 0.0000 0.0000  plane waves:   27671
 k-point   2 :   0.1250-0.0000 0.0000  plane waves:   27649
 k-point   3 :   0.2500-0.0000 0.0000  plane waves:   27714
 k-point   4 :   0.3750-0.0000 0.0000  plane waves:   27740
 k-point   5 :   0.5000-0.0000 0.0000  plane waves:   27782
 k-point   6 :   0.2500 0.1250 0.0000  plane waves:   27698
 k-point   7 :   0.3750 0.1250 0.0000  plane waves:   27702
 k-point   8 :   0.5000 0.1250 0.0000  plane waves:   27747
 k-point   9 :   0.5000 0.2500 0.0000  plane waves:   27734
 k-point  10 :  -0.3750 0.2500 0.0000  plane waves:   27782

 maximum and minimum number of plane-waves per node :     27782    27649

 maximum number of plane-waves:     27782
 maximum index in each direction: 
   IXMAX=   14   IYMAX=   14   IZMAX=   38
   IXMIN=  -14   IYMIN=  -14   IZMIN=  -38


 serial   3D FFT for wavefunctions
 parallel 3D FFT for charge:
    minimum data exchange during FFTs selected (reduces bandwidth)


 total amount of memory used by VASP MPI-rank0   104519. kBytes
=======================================================================

   base      :      30000. kBytes
   nonlr-proj:      17633. kBytes
   fftplans  :       2916. kBytes
   grid      :      12390. kBytes
   one-center:        575. kBytes
   wavefun   :      41005. kBytes
 
     INWAV:  cpu time    0.0000: real time    0.0000
 initial charge density was supplied:
 number of electron     400.0000049 magnetization 
 keeping initial charge density in first step


--------------------------------------------------------------------------------------------------------


 Maximum index for non-local projection operator         2775
 Maximum index for augmentation-charges          633 (set IRDMAX)


--------------------------------------------------------------------------------------------------------


 First call to EWALD:  gamma=   0.172
 Maximum number of real-space cells 4x 4x 2
 Maximum number of reciprocal cells 2x 2x 5

    FEWALD:  cpu time    0.0013: real time    0.0013


--------------------------------------- Iteration      1(   1)  ---------------------------------------


    POTLOK:  cpu time    0.0269: real time    0.0273
    SETDIJ:  cpu time    0.0044: real time    0.0045
     EDDAV:  cpu time    5.7090: real time    5.7122
 BZINTS: Fermi energy:   14.174494;  400.000000 electrons
         Band energy: 0.262775E+04;  BLOECHL correction:   -0.025796
       DOS:  cpu time    0.0106: real time    0.0107
    --------------------------------------------
      LOOP:  cpu time    5.7510: real time    5.7548

 eigenvalue-minimisations  :  5040
 total energy-change (2. order) : 0.3652646E+04  (-0.1727985E+05)
 number of electron     400.0000049 magnetization 
 augmentation part      400.0000049 magnetization 

 Free energy of the ion-electron system (eV)
  ---------------------------------------------------
  alpha Z        PSCENC =       907.27874411
  Ewald energy   TEWEN  =    147384.36275520
  -Hartree energ DENC   =   -194779.54799328
  -exchange      EXHF   =         0.00000000
  -V(xc)+E(xc)   XCENC  =      1569.19104175
  PAW double counting   =     46924.55101655   -50657.65402509
  entropy T*S    EENTRO =         0.00000000
  eigenvalues    EBANDS =      2627.74739195
  atomic energy  EATOM  =     49676.71703124
  Solvation  Ediel_sol  =         0.00000000
  ---------------------------------------------------
  free energy    TOTEN  =      3652.64596243 eV

  energy without entropy =     3652.64596243  energy(sigma->0) =     3652.64596243


--------------------------------------------------------------------------------------------------------




--------------------------------------- Iteration      1(   2)  ---------------------------------------


     EDDAV:  cpu time    5.6784: real time    5.6830
 BZINTS: Fermi energy:    3.195197;  400.000000 electrons
         Band energy:-0.647790E+03;  BLOECHL correction:   -0.017435
       DOS:  cpu time    0.0101: real time    0.0101
    --------------------------------------------
      LOOP:  cpu time    5.6884: real time    5.6931

 eigenvalue-minimisations  :  5040
 total energy-change (2. order) :-0.3275538E+04  (-0.3140108E+04)
 number of electron     400.0000049 magnetization 
 augmentation part      400.0000049 magnetization 

 Free energy of the ion-electron system (eV)
  ---------------------------------------------------
  alpha Z        PSCENC =       907.27874411
  Ewald energy   TEWEN  =    147384.36275520
  -Hartree energ DENC   =   -194779.54799328
  -exchange      EXHF   =         0.00000000
  -V(xc)+E(xc)   XCENC  =      1569.19104175
  PAW double counting   =     46924.55101655   -50657.65402509
  entropy T*S    EENTRO =         0.00000000
  eigenvalues    EBANDS =      -647.79030648
  atomic energy  EATOM  =     49676.71703124
  Solvation  Ediel_sol  =         0.00000000
  ---------------------------------------------------
  free energy    TOTEN  =       377.10826400 eV

  energy without entropy =      377.10826400  energy(sigma->0) =      377.10826400


--------------------------------------------------------------------------------------------------------




--------------------------------------- Iteration      1(   3)  ---------------------------------------


     EDDAV:  cpu time    6.1173: real time    6.1191
 BZINTS: Fermi energy:    0.326052;  400.000000 electrons
         Band energy:-0.112959E+04;  BLOECHL correction:   -0.084524
       DOS:  cpu time    0.0099: real time    0.0099
    --------------------------------------------
      LOOP:  cpu time    6.1272: real time    6.1290

 eigenvalue-minimisations  :  5516
 total energy-change (2. order) :-0.4818036E+03  (-0.4539485E+03)
 number of electron     400.0000049 magnetization 
 augmentation part      400.0000049 magnetization 

 Free energy of the ion-electron system (eV)
  ---------------------------------------------------
  alpha Z        PSCENC =       907.27874411
  Ewald energy   TEWEN  =    147384.36275520
  -Hartree energ DENC   =   -194779.54799328
  -exchange      EXHF   =         0.00000000
  -V(xc)+E(xc)   XCENC  =      1569.19104175
  PAW double counting   =     46924.55101655   -50657.65402509
  entropy T*S    EENTRO =         0.00000000
  eigenvalues    EBANDS =     -1129.59385788
  atomic energy  EATOM  =     49676.71703124
  Solvation  Ediel_sol  =         0.00000000
  ---------------------------------------------------
  free energy    TOTEN  =      -104.69528741 eV

  energy without entropy =     -104.69528741  energy(sigma->0) =     -104.69528741


--------------------------------------------------------------------------------------------------------




--------------------------------------- Iteration      1(   4)  ---------------------------------------


     EDDAV:  cpu time    7.7175: real time    7.7199
 BZINTS: Fermi energy:    0.043498;  400.000000 electrons
         Band energy:-0.116047E+04;  BLOECHL correction:   -0.041364
       DOS:  cpu time    0.0102: real time    0.0102
    --------------------------------------------
      LOOP:  cpu time    7.7278: real time    7.7301

 eigenvalue-minimisations  :  7280
 total energy-change (2. order) :-0.3087287E+02  (-0.2965122E+02)
 number of electron     400.0000049 magnetization 
 augmentation part      400.0000049 magnetization 

 Free energy of the ion-electron system (eV)
  ---------------------------------------------------
  alpha Z        PSCENC =       907.27874411
  Ewald energy   TEWEN  =    147384.36275520
  -Hartree energ DENC   =   -194779.54799328
  -exchange      EXHF   =         0.00000000
  -V(xc)+E(xc)   XCENC  =      1569.19104175
  PAW double counting   =     46924.55101655   -50657.65402509
  entropy T*S    EENTRO =         0.00000000
  eigenvalues    EBANDS =     -1160.46672940
  atomic energy  EATOM  =     49676.71703124
  Solvation  Ediel_sol  =         0.00000000
  ---------------------------------------------------
  free energy    TOTEN  =      -135.56815892 eV

  energy without entropy =     -135.56815892  energy(sigma->0) =     -135.56815892


--------------------------------------------------------------------------------------------------------




--------------------------------------- Iteration      1(   5)  ---------------------------------------


     EDDAV:  cpu time    6.3559: real time    6.3580
 BZINTS: Fermi energy:    0.023279;  400.000000 electrons
         Band energy:-0.116116E+04;  BLOECHL correction:   -0.042135
       DOS:  cpu time    0.0102: real time    0.0102
    --------------------------------------------
      LOOP:  cpu time    6.3662: real time    6.3682

 eigenvalue-minimisations  :  5768
 total energy-change (2. order) :-0.6963698E+00  (-0.6863309E+00)
 number of electron     400.0000049 magnetization 
 augmentation part      400.0000049 magnetization 

 Free energy of the ion-electron system (eV)
  ---------------------------------------------------
  alpha Z        PSCENC =       907.27874411
  Ewald energy   TEWEN  =    147384.36275520
  -Hartree energ DENC   =   -194779.54799328
  -exchange      EXHF   =         0.00000000
  -V(xc)+E(xc)   XCENC  =      1569.19104175
  PAW double counting   =     46924.55101655   -50657.65402509
  entropy T*S    EENTRO =         0.00000000
  eigenvalues    EBANDS =     -1161.16309918
  atomic energy  EATOM  =     49676.71703124
  Solvation  Ediel_sol  =         0.00000000
  ---------------------------------------------------
  free energy    TOTEN  =      -136.26452871 eV

  energy without entropy =     -136.26452871  energy(sigma->0) =     -136.26452871


--------------------------------------------------------------------------------------------------------




--------------------------------------- Iteration      1(   6)  ---------------------------------------


    EDDIAG:  cpu time    1.0568: real time    1.0573
  RMM-DIIS:  cpu time    3.0797: real time    3.0805
    ORTHCH:  cpu time    0.2081: real time    0.2081
 BZINTS: Fermi energy:    0.023009;  400.000000 electrons
         Band energy:-0.116118E+04;  BLOECHL correction:   -0.042129
       DOS:  cpu time    0.0094: real time    0.0094
    --------------------------------------------
      LOOP:  cpu time    4.3540: real time    4.3553

 eigenvalue-minimisations  :  5365
 total energy-change (2. order) :-0.1341870E-01  (-0.1341239E-01)
 number of electron     400.0000049 magnetization 
 augmentation part      400.0000049 magnetization 

 Free energy of the ion-electron system (eV)
  ---------------------------------------------------
  alpha Z        PSCENC =       907.27874411
  Ewald energy   TEWEN  =    147384.36275520
  -Hartree energ DENC   =   -194779.54799328
  -exchange      EXHF   =         0.00000000
  -V(xc)+E(xc)   XCENC  =      1569.19104175
  PAW double counting   =     46924.55101655   -50657.65402509
  entropy T*S    EENTRO =         0.00000000
  eigenvalues    EBANDS =     -1161.17651788
  atomic energy  EATOM  =     49676.71703124
  Solvation  Ediel_sol  =         0.00000000
  ---------------------------------------------------
  free energy    TOTEN  =      -136.27794740 eV

  energy without entropy =     -136.27794740  energy(sigma->0) =     -136.27794740


--------------------------------------------------------------------------------------------------------




--------------------------------------- Iteration      1(   7)  ---------------------------------------


    EDDIAG:  cpu time    1.0584: real time    1.0587
  RMM-DIIS:  cpu time    4.4296: real time    4.4995
    ORTHCH:  cpu time    0.2098: real time    0.2229
 BZINTS: Fermi energy:    0.022918;  400.000000 electrons
         Band energy:-0.116118E+04;  BLOECHL correction:   -0.042136
       DOS:  cpu time    0.0095: real time    0.0122
    --------------------------------------------
      LOOP:  cpu time    5.7072: real time    5.7934

 eigenvalue-minimisations  :  7776
 total energy-change (2. order) :-0.5660010E-02  (-0.5655222E-02)
 number of electron     400.0000049 magnetization 
 augmentation part      400.0000049 magnetization 

 Free energy of the ion-electron system (eV)
  ---------------------------------------------------
  alpha Z        PSCENC =       907.27874411
  Ewald energy   TEWEN  =    147384.36275520
  -Hartree energ DENC   =   -194779.54799328
  -exchange      EXHF   =         0.00000000
  -V(xc)+E(xc)   XCENC  =      1569.19104175
  PAW double counting   =     46924.55101655   -50657.65402509
  entropy T*S    EENTRO =         0.00000000
  eigenvalues    EBANDS =     -1161.18217789
  atomic energy  EATOM  =     49676.71703124
  Solvation  Ediel_sol  =         0.00000000
  ---------------------------------------------------
  free energy    TOTEN  =      -136.28360741 eV

  energy without entropy =     -136.28360741  energy(sigma->0) =     -136.28360741


--------------------------------------------------------------------------------------------------------




--------------------------------------- Iteration      1(   8)  ---------------------------------------


    EDDIAG:  cpu time    1.0614: real time    1.0856
  RMM-DIIS:  cpu time    3.6954: real time    3.6964
    ORTHCH:  cpu time    0.2079: real time    0.2081
 BZINTS: Fermi energy:    0.022913;  400.000000 electrons
         Band energy:-0.116118E+04;  BLOECHL correction:   -0.042134
       DOS:  cpu time    0.0100: real time    0.0100
    --------------------------------------------
      LOOP:  cpu time    4.9746: real time    4.9999

 eigenvalue-minimisations  :  6552
 total energy-change (2. order) :-0.2464923E-03  (-0.2841119E-03)
 number of electron     400.0000049 magnetization 
 augmentation part      400.0000049 magnetization 

 Free energy of the ion-electron system (eV)
  ---------------------------------------------------
  alpha Z        PSCENC =       907.27874411
  Ewald energy   TEWEN  =    147384.36275520
  -Hartree energ DENC   =   -194779.54799328
  -exchange      EXHF   =         0.00000000
  -V(xc)+E(xc)   XCENC  =      1569.19104175
  PAW double counting   =     46924.55101655   -50657.65402509
  entropy T*S    EENTRO =         0.00000000
  eigenvalues    EBANDS =     -1161.18242438
  atomic energy  EATOM  =     49676.71703124
  Solvation  Ediel_sol  =         0.00000000
  ---------------------------------------------------
  free energy    TOTEN  =      -136.28385390 eV

  energy without entropy =     -136.28385390  energy(sigma->0) =     -136.28385390


--------------------------------------------------------------------------------------------------------




--------------------------------------- Iteration      1(   9)  ---------------------------------------


    EDDIAG:  cpu time    1.0590: real time    1.0593
  RMM-DIIS:  cpu time    4.3759: real time    4.3771
    ORTHCH:  cpu time    0.2079: real time    0.2079
 BZINTS: Fermi energy:    0.022912;  400.000000 electrons
         Band energy:-0.116118E+04;  BLOECHL correction:   -0.042134
       DOS:  cpu time    0.0102: real time    0.0102
    --------------------------------------------
      LOOP:  cpu time    5.6530: real time    5.6545

 eigenvalue-minimisations  :  7725
 total energy-change (2. order) :-0.8062299E-04  (-0.8088548E-04)
 number of electron     400.0000049 magnetization 
 augmentation part      400.0000049 magnetization 

 Free energy of the ion-electron system (eV)
  ---------------------------------------------------
  alpha Z        PSCENC =       907.27874411
  Ewald energy   TEWEN  =    147384.36275520
  -Hartree energ DENC   =   -194779.54799328
  -exchange      EXHF   =         0.00000000
  -V(xc)+E(xc)   XCENC  =      1569.19104175
  PAW double counting   =     46924.55101655   -50657.65402509
  entropy T*S    EENTRO =         0.00000000
  eigenvalues    EBANDS =     -1161.18250500
  atomic energy  EATOM  =     49676.71703124
  Solvation  Ediel_sol  =         0.00000000
  ---------------------------------------------------
  free energy    TOTEN  =      -136.28393453 eV

  energy without entropy =     -136.28393453  energy(sigma->0) =     -136.28393453


--------------------------------------------------------------------------------------------------------




--------------------------------------- Iteration      1(  10)  ---------------------------------------


    EDDIAG:  cpu time    1.0575: real time    1.0579
  RMM-DIIS:  cpu time    2.7528: real time    2.7537
    ORTHCH:  cpu time    0.2077: real time    0.2077
 BZINTS: Fermi energy:    0.022912;  400.000000 electrons
         Band energy:-0.116118E+04;  BLOECHL correction:   -0.042134
       DOS:  cpu time    0.0100: real time    0.0100
    --------------------------------------------
      LOOP:  cpu time    4.0280: real time    4.0293

 eigenvalue-minimisations  :  4358
 total energy-change (2. order) :-0.4610105E-05  (-0.4936856E-05)
 number of electron     400.0000049 magnetization 
 augmentation part      400.0000049 magnetization 

 Free energy of the ion-electron system (eV)
  ---------------------------------------------------
  alpha Z        PSCENC =       907.27874411
  Ewald energy   TEWEN  =    147384.36275520
  -Hartree energ DENC   =   -194779.54799328
  -exchange      EXHF   =         0.00000000
  -V(xc)+E(xc)   XCENC  =      1569.19104175
  PAW double counting   =     46924.55101655   -50657.65402509
  entropy T*S    EENTRO =         0.00000000
  eigenvalues    EBANDS =     -1161.18250961
  atomic energy  EATOM  =     49676.71703124
  Solvation  Ediel_sol  =         0.00000000
  ---------------------------------------------------
  free energy    TOTEN  =      -136.28393914 eV

  energy without entropy =     -136.28393914  energy(sigma->0) =     -136.28393914


--------------------------------------------------------------------------------------------------------




 average (electrostatic) potential at core
  the test charge radii are     0.9430  1.2793  0.7215
  (the norm of the test charge is              1.0000)
       1 -70.9703       2 -70.9515       3 -70.9514       4 -70.9515       5 -70.9570
       6 -70.9511       7 -70.9514       8 -70.9511       9 -70.9856      10 -71.2316
      11 -71.2019      12 -71.2313      13 -71.2019      14 -71.2015      15 -71.2141
      16 -71.2313      17 -71.2141      18 -71.2142      19 -71.2060      20 -71.2841
      21 -71.2837      22 -71.2147      23 -71.2837      24 -71.2143      25 -71.2060
      26 -71.2060      27 -71.2147      28 -70.8973      29 -70.9775      30 -70.9774
      31 -70.9775      32 -70.9771      33 -70.9774      34 -70.9771      35 -70.9214
      36 -58.8286      37 -75.9390
 
 
 
 E-fermi :   0.0229     XC(G=0):  -5.9426     alpha+bet : -5.3537

 Fermi energy:         0.0229120182

 k-point     1 :       0.0000    0.0000    0.0000
  band No.  band energies     occupation 
      1     -18.1172      2.00000
      2      -8.8269      2.00000
      3      -7.5811      2.00000
      4      -6.0488      2.00000
      5      -5.9524      2.00000
      6      -5.8831      2.00000
      7      -5.8829      2.00000
      8      -5.8152      2.00000
      9      -5.8151      2.00000
     10      -5.7854      2.00000
     11      -5.3984      2.00000
     12      -5.1669      2.00000
     13      -5.1669      2.00000
     14      -5.1303      2.00000
     15      -5.1132      2.00000
     16      -5.1131      2.00000
     17      -5.0269      2.00000
     18      -4.7924      2.00000
     19      -4.7651      2.00000
     20      -4.7651      2.00000
     21      -4.5489      2.00000
     22      -4.5488      2.00000
     23      -4.3938      2.00000
     24      -4.3244      2.00000
     25      -4.3243      2.00000
     26      -4.3193      2.00000
     27      -4.0654      2.00000
     28      -4.0654      2.00000
     29      -4.0354      2.00000
     30      -4.0268      2.00000
     31      -4.0268      2.00000
     32      -3.9985      2.00000
     33      -3.9555      2.00000
     34      -3.9555      2.00000
     35      -3.8553      2.00000
     36      -3.8553      2.00000
     37      -3.8541      2.00000
     38      -3.8404      2.00000
     39      -3.8403      2.00000
     40      -3.8374      2.00000
     41      -3.8072      2.00000
     42      -3.7980      2.00000
     43      -3.7829      2.00000
     44      -3.7829      2.00000
     45      -3.7134      2.00000
     46      -3.7133      2.00000
     47      -3.7043      2.00000
     48      -3.7043      2.00000
     49      -3.5902      2.00000
     50      -3.5756      2.00000
     51      -3.5477      2.00000
     52      -3.5477      2.00000
     53      -3.5204      2.00000
     54      -3.5068      2.00000
     55      -3.4605      2.00000
     56      -3.4438      2.00000
     57      -3.4438      2.00000
     58      -3.4066      2.00000
     59      -3.1796      2.00000
     60      -3.1796      2.00000
     61      -3.1653      2.00000
     62      -3.1579      2.00000
     63      -3.1239      2.00000
     64      -3.1239      2.00000
     65      -3.0931      2.00000
     66      -3.0931      2.00000
     67      -3.0637      2.00000
     68      -3.0637      2.00000
     69      -3.0567      2.00000
     70      -3.0186      2.00000
     71      -3.0186      2.00000
     72      -3.0069      2.00000
     73      -3.0046      2.00000
     74      -3.0046      2.00000
     75      -3.0011      2.00000
     76      -2.9249      2.00000
     77      -2.9249      2.00000
     78      -2.9244      2.00000
     79      -2.8725      2.00000
     80      -2.8725      2.00000
     81      -2.8275      2.00000
     82      -2.8275      2.00000
     83      -2.8189      2.00000
     84      -2.8154      2.00000
     85      -2.8154      2.00000
     86      -2.7967      2.00000
     87      -2.7474      2.00000
     88      -2.7473      2.00000
     89      -2.7320      2.00000
     90      -2.7199      2.00000
     91      -2.7198      2.00000
     92      -2.7119      2.00000
     93      -2.6860      2.00000
     94      -2.6860      2.00000
     95      -2.6824      2.00000
     96      -2.6824      2.00000
     97      -2.6509      2.00000
     98      -2.6509      2.00000
     99      -2.6395      2.00000
    100      -2.6395      2.00000
    101      -2.6343      2.00000
    102      -2.6230      2.00000
    103      -2.6230      2.00000
    104      -2.5906      2.00000
    105      -2.5906      2.00000
    106      -2.5745      2.00000
    107      -2.5707      2.00000
    108      -2.5707      2.00000
    109      -2.4635      2.00000
    110      -2.4635      2.00000
    111      -2.4551      2.00000
    112      -2.3296      2.00000
    113      -2.3221      2.00000
    114      -2.3221      2.00000
    115      -2.3185      2.00000
    116      -2.3179      2.00000
    117      -2.3145      2.00000
    118      -2.3145      2.00000
    119      -2.3115      2.00000
    120      -2.3114      2.00000
    121      -2.3070      2.00000
    122      -2.2782      2.00000
    123      -2.2574      2.00000
    124      -2.2269      2.00000
    125      -2.2269      2.00000
    126      -2.1302      2.00000
    127      -2.1257      2.00000
    128      -2.1257      2.00000
    129      -2.1213      2.00000
    130      -2.1213      2.00000
    131      -2.1012      2.00000
    132      -2.0900      2.00000
    133      -2.0900      2.00000
    134      -2.0822      2.00000
    135      -2.0822      2.00000
    136      -2.0272      2.00000
    137      -2.0093      2.00000
    138      -2.0093      2.00000
    139      -1.9967      2.00000
    140      -1.9956      2.00000
    141      -1.9955      2.00000
    142      -1.9744      2.00000
    143      -1.9744      2.00000
    144      -1.9032      2.00000
    145      -1.9031      2.00000
    146      -1.8782      2.00000
    147      -1.8782      2.00000
    148      -1.8691      2.00000
    149      -1.8666      2.00000
    150      -1.8496      2.00000
    151      -1.8495      2.00000
    152      -1.8386      2.00000
    153      -1.8326      2.00000
    154      -1.8325      2.00000
    155      -1.8124      2.00000
    156      -1.8123      2.00000
    157      -1.8067      2.00000
    158      -1.7529      2.00000
    159      -1.7362      2.00000
    160      -1.7336      2.00000
    161      -1.7248      2.00000
    162      -1.7248      2.00000
    163      -1.7183      2.00000
    164      -1.7119      2.00000
    165      -1.7119      2.00000
    166      -1.7016      2.00000
    167      -1.7016      2.00000
    168      -1.6925      2.00000
    169      -1.6891      2.00000
    170      -1.6744      2.00000
    171      -1.6744      2.00000
    172      -1.6696      2.00000
    173      -1.6534      2.00000
    174      -1.6534      2.00000
    175      -1.6444      2.00000
    176      -1.6443      2.00000
    177      -1.6437      2.00000
    178      -1.6422      2.00000
    179      -1.6409      2.00000
    180      -1.6408      2.00000
    181      -1.6368      2.00000
    182      -1.6350      2.00000
    183      -1.6350      2.00000
    184      -1.6255      2.00000
    185      -1.6155      2.00000
    186      -1.6154      2.00000
    187      -1.5601      2.00000
    188      -1.5601      2.00000
    189      -1.5353      2.00000
    190      -1.5353      2.00000
    191      -1.5211      2.00000
    192      -1.5203      2.00000
    193      -1.5113      2.00000
    194      -1.5112      2.00000
    195      -1.1460      2.00000
    196      -0.9990      2.00000
    197      -0.9990      2.00000
    198      -0.7644      2.00000
    199      -0.3592      2.00000
    200      -0.3591      2.00000
    201      -0.3262      2.00000
    202      -0.2942      2.00000
    203      -0.2941      2.00000
    204      -0.0798      1.98391
    205       0.1467      0.00000
    206       0.1468      0.00000
    207       1.1403      0.00000
    208       2.0034      0.00000
    209       2.0164      0.00000
    210       2.0164      0.00000
    211       2.2469      0.00000
    212       2.2469      0.00000
    213       3.3721      0.00000
    214       3.3861      0.00000
    215       3.6912      0.00000
    216       3.6912      0.00000
    217       3.7241      0.00000
    218       3.8361      0.00000
    219       3.8361      0.00000
    220       4.5003      0.00000
    221       4.5126      0.00000
    222       4.5126      0.00000
    223       4.5279      0.00000
    224       4.5279      0.00000
    225       4.5472      0.00000
    226       4.7830      0.00000
    227       4.7830      0.00000
    228       4.9141      0.00000
    229       4.9324      0.00000
    230       4.9324      0.00000
    231       5.1471      0.00000
    232       5.2933      0.00000
    233       5.7985      0.00000
    234       6.1571      0.00000
    235       6.2606      0.00000
    236       6.3363      0.00000
    237       6.3363      0.00000
    238       6.5764      0.00000
    239       6.5765      0.00000
    240       6.8927      0.00000
    241       6.8928      0.00000
    242       6.9091      0.00000
    243       7.0383      0.00000
    244       7.0385      0.00000
    245       7.0625      0.00000
    246       7.4210      0.00000
    247       7.5047      0.00000
    248       7.5337      0.00000
    249       7.5366      0.00000
    250       7.5960      0.00000
    251       7.5997      0.00000
    252       7.6741      0.00000

 k-point     2 :       0.1250   -0.0000    0.0000
  band No.  band energies     occupation 
      1     -18.1172      2.00000
      2      -8.7716      2.00000
      3      -7.5277      2.00000
      4      -6.4106      2.00000
      5      -6.1079      2.00000
      6      -6.0826      2.00000
      7      -5.9836      2.00000
      8      -5.6510      2.00000
      9      -5.5789      2.00000
     10      -5.4844      2.00000
     11      -5.3883      2.00000
     12      -5.3204      2.00000
     13      -5.2409      2.00000
     14      -5.1835      2.00000
     15      -5.0248      2.00000
     16      -5.0011      2.00000
     17      -4.9031      2.00000
     18      -4.8566      2.00000
     19      -4.7520      2.00000
     20      -4.6514      2.00000
     21      -4.5539      2.00000
     22      -4.5277      2.00000
     23      -4.4061      2.00000
     24      -4.3347      2.00000
     25      -4.3129      2.00000
     26      -4.3034      2.00000
     27      -4.1007      2.00000
     28      -4.0678      2.00000
     29      -4.0484      2.00000
     30      -4.0235      2.00000
     31      -4.0102      2.00000
     32      -3.9896      2.00000
     33      -3.9682      2.00000
     34      -3.9652      2.00000
     35      -3.9458      2.00000
     36      -3.9429      2.00000
     37      -3.9084      2.00000
     38      -3.9039      2.00000
     39      -3.8356      2.00000
     40      -3.8254      2.00000
     41      -3.8102      2.00000
     42      -3.7673      2.00000
     43      -3.7498      2.00000
     44      -3.7346      2.00000
     45      -3.7119      2.00000
     46      -3.7060      2.00000
     47      -3.6531      2.00000
     48      -3.6502      2.00000
     49      -3.6030      2.00000
     50      -3.5947      2.00000
     51      -3.5716      2.00000
     52      -3.5490      2.00000
     53      -3.5323      2.00000
     54      -3.4657      2.00000
     55      -3.4441      2.00000
     56      -3.4283      2.00000
     57      -3.4094      2.00000
     58      -3.3950      2.00000
     59      -3.2542      2.00000
     60      -3.2311      2.00000
     61      -3.2195      2.00000
     62      -3.1727      2.00000
     63      -3.1433      2.00000
     64      -3.1186      2.00000
     65      -3.1160      2.00000
     66      -3.1040      2.00000
     67      -3.0745      2.00000
     68      -3.0738      2.00000
     69      -3.0567      2.00000
     70      -3.0309      2.00000
     71      -3.0190      2.00000
     72      -3.0103      2.00000
     73      -2.9950      2.00000
     74      -2.9907      2.00000
     75      -2.9677      2.00000
     76      -2.9405      2.00000
     77      -2.9244      2.00000
     78      -2.9062      2.00000
     79      -2.8583      2.00000
     80      -2.8529      2.00000
     81      -2.8490      2.00000
     82      -2.8442      2.00000
     83      -2.8272      2.00000
     84      -2.8026      2.00000
     85      -2.8016      2.00000
     86      -2.7884      2.00000
     87      -2.7708      2.00000
     88      -2.7573      2.00000
     89      -2.7496      2.00000
     90      -2.7336      2.00000
     91      -2.7269      2.00000
     92      -2.7040      2.00000
     93      -2.7040      2.00000
     94      -2.6884      2.00000
     95      -2.6808      2.00000
     96      -2.6658      2.00000
     97      -2.6624      2.00000
     98      -2.6477      2.00000
     99      -2.6280      2.00000
    100      -2.6197      2.00000
    101      -2.6084      2.00000
    102      -2.6072      2.00000
    103      -2.6070      2.00000
    104      -2.5865      2.00000
    105      -2.5803      2.00000
    106      -2.5802      2.00000
    107      -2.5725      2.00000
    108      -2.5698      2.00000
    109      -2.5271      2.00000
    110      -2.5202      2.00000
    111      -2.4948      2.00000
    112      -2.4765      2.00000
    113      -2.4396      2.00000
    114      -2.4274      2.00000
    115      -2.3850      2.00000
    116      -2.3399      2.00000
    117      -2.3345      2.00000
    118      -2.3238      2.00000
    119      -2.3172      2.00000
    120      -2.3022      2.00000
    121      -2.2950      2.00000
    122      -2.2929      2.00000
    123      -2.2785      2.00000
    124      -2.2784      2.00000
    125      -2.2650      2.00000
    126      -2.1792      2.00000
[...]
  0.000   0.000   0.000   0.000   0.000   0.000   0.000   0.000   0.000   0.000   0.000   0.000   0.000   0.000   0.000   0.000
  0.000   0.000   0.000   0.000   0.000   0.000   0.000   0.000   0.000   0.000   0.000   0.000   0.000   0.000   0.000   0.000
  0.000   0.000   0.000   0.000   0.000   0.000   0.000   0.000   0.000   0.000   0.000   0.000   0.000   0.000   0.000   0.000
  0.000   0.000   0.000   0.000   0.000   0.000   0.000   0.000   0.000   0.000   0.000   0.000   0.000   0.000   0.000   0.000
  0.000   0.000   0.000   0.000   0.000   0.000   0.000   0.000   0.000   0.000   0.000   0.000   0.000   0.000   0.000   0.000
  0.000   0.000   0.000   0.000   0.000   0.000   0.000   0.000   0.000   0.000   1.000   0.000   0.000   0.000   0.000   0.000
  0.000   0.000   0.000   0.000   0.000   0.000   0.000   0.000   0.000   0.000   0.000   0.000   0.000   0.000   0.000   0.000
  0.000   0.000   0.000   0.000   0.000   0.000   0.000   0.000   0.000   0.000   0.000   0.000   0.000   0.000   0.000   0.000
  0.000   0.000   0.000   0.000   0.000   0.000   0.000   0.000   0.000   0.000   0.000   0.000   0.000   0.000   0.000   0.000
  0.000   0.000   0.000   0.000   0.000   0.000   0.000   0.000   0.000   0.000   0.000   0.000   0.000   0.000   0.000   0.000
  0.000   0.000   0.000   0.000   0.000   0.000   0.000   0.000   0.000   0.000   0.000   0.000   0.000   0.000   0.000   0.000
  0.000   0.000   0.000   0.000   0.000   0.000   0.000   0.000   0.000   0.000   0.000   0.000   0.000   0.000   0.000   0.000
  0.000   0.000   0.000   0.000   0.000   0.000   0.000   0.000   0.000   0.000   0.000   0.000   0.000   0.000   0.000   0.000


------------------------ aborting loop because EDIFF is reached ----------------------------------------





 total charge

# of ion       s       p       d       tot
------------------------------------------
    1        0.449   0.283   9.190   9.923
    2        0.450   0.284   9.187   9.921
    3        0.450   0.284   9.187   9.921
    4        0.450   0.284   9.187   9.921
    5        0.449   0.286   9.184   9.919
    6        0.450   0.284   9.187   9.921
    7        0.450   0.284   9.187   9.921
    8        0.450   0.284   9.187   9.921
    9        0.446   0.284   9.186   9.915
   10        0.444   0.372   9.178   9.993
   11        0.442   0.370   9.182   9.994
   12        0.444   0.372   9.178   9.993
   13        0.442   0.370   9.182   9.994
   14        0.442   0.370   9.182   9.994
   15        0.439   0.367   9.184   9.989
   16        0.444   0.372   9.178   9.993
   17        0.439   0.367   9.184   9.989
   18        0.439   0.367   9.184   9.989
   19        0.440   0.371   9.181   9.992
   20        0.457   0.395   9.169  10.022
   21        0.457   0.395   9.169  10.022
   22        0.434   0.367   9.187   9.988
   23        0.457   0.395   9.169  10.022
   24        0.434   0.367   9.187   9.988
   25        0.440   0.371   9.181   9.992
   26        0.440   0.371   9.181   9.992
   27        0.434   0.367   9.187   9.988
   28        0.455   0.287   9.194   9.936
   29        0.440   0.301   9.192   9.933
   30        0.440   0.301   9.192   9.933
   31        0.440   0.301   9.192   9.933
   32        0.440   0.301   9.192   9.933
   33        0.440   0.301   9.192   9.933
   34        0.440   0.301   9.192   9.933
   35        0.447   0.291   9.190   9.928
   36        0.749   0.722   7.008   8.478
   37        1.605   3.224   0.000   4.829
--------------------------------------------------
tot         17.900  15.619 328.469 361.987
 
    CHARGE:  cpu time    0.2122: real time    0.2143
    FORLOC:  cpu time    0.0075: real time    0.0075
    FORNL :  cpu time    1.1897: real time    1.1902
    STRESS:  cpu time    3.5328: real time    3.5338
    FORCOR:  cpu time    0.0282: real time    0.0285
    FORHAR:  cpu time    0.0113: real time    0.0115
    OFIELD:  cpu time    0.0001: real time    0.0001

  FORCE on cell =-STRESS in cart. coord.  units (eV):
  Direction    XX          YY          ZZ          XY          YZ          ZX
  --------------------------------------------------------------------------------------
  Alpha Z   907.27874   907.27874   907.27874
  Ewald  173474.63803173474.63759************     0.00040     0.00012     0.00018
  Hartree186560.10345186560.10342************     0.00004     0.00006     0.00007
  E(xc)   -2318.06596 -2318.06550 -2321.97270    -0.00040    -0.00004    -0.00006
  Local  ************************373332.22533     0.01871    -0.00059    -0.00099
  n-local  -792.12741  -775.90689  -794.72013     8.77387     0.03179     0.30957
  augment  3352.98974  3353.01002  3366.95696    -0.01757     0.00024     0.00041
  Kinetic  3378.68902  3382.68085  3387.57820     3.09451     1.79324    -1.11549
  Fock        0.00000     0.00000     0.00000     0.00000     0.00000     0.00000
  -------------------------------------------------------------------------------------
  Total      -2.39528    -2.39528     2.95471     0.00000    -0.00000    -0.00000
  in kB      -3.51443    -3.51443     4.33525     0.00000    -0.00000    -0.00000
  external pressure =       -0.90 kB  Pullay stress =        0.00 kB


 VOLUME and BASIS-vectors are now :
 -----------------------------------------------------------------------------
  energy-cutoff  :      500.00
  volume of cell :     1091.97
      direct lattice vectors                 reciprocal lattice vectors
     7.696786404  0.000000000  0.000000000     0.129924354 -0.075011849  0.000000000
     3.848392758  6.665612809  0.000000000     0.000000000  0.150023716  0.000000000
     0.000000000  0.000000000 21.284399033     0.000000000  0.000000000  0.046982769

  length of vectors
     7.696786404  7.696786404 21.284399033     0.150023716  0.150023716  0.046982769


 FORCES acting on ions
    electron-ion (+dipol)            ewald-force                    non-local-force                 convergence-correction
 -----------------------------------------------------------------------------------------------
   -.416E-04 0.152E-06 0.350E+04   0.580E-04 -.438E-05 -.349E+04   -.352E-17 -.311E-17 -.290E+01   -.335E-03 -.161E-03 -.546E+00
   -.185E+00 0.177E+00 0.350E+04   -.144E-01 -.117E+00 -.349E+04   0.700E-01 0.802E-01 -.184E+01   0.129E+00 -.115E+00 -.452E+00
   0.185E+00 0.177E+00 0.350E+04   0.143E-01 -.117E+00 -.349E+04   -.700E-01 0.802E-01 -.184E+01   -.128E+00 -.113E+00 -.451E+00
   0.609E-01 -.249E+00 0.350E+04   -.109E+00 0.461E-01 -.349E+04   0.104E+00 0.205E-01 -.184E+01   -.351E-01 0.169E+00 -.452E+00
   -.654E-04 -.557E-05 0.350E+04   0.116E-03 -.101E-04 -.349E+04   0.189E-18 -.323E-18 -.174E+01   0.122E-01 0.749E-02 -.473E+00
   -.608E-01 -.249E+00 0.350E+04   0.109E+00 0.460E-01 -.349E+04   -.104E+00 0.205E-01 -.184E+01   0.334E-01 0.171E+00 -.451E+00
   0.246E+00 0.717E-01 0.350E+04   -.943E-01 0.710E-01 -.349E+04   0.345E-01 -.101E+00 -.184E+01   -.162E+00 -.549E-01 -.451E+00
   -.246E+00 0.717E-01 0.350E+04   0.940E-01 0.710E-01 -.349E+04   -.345E-01 -.101E+00 -.184E+01   0.165E+00 -.564E-01 -.451E+00
   -.144E-03 -.329E-04 0.350E+04   0.263E-03 0.206E-04 -.349E+04   -.155E-17 -.122E-17 -.237E+01   -.133E-01 -.685E-02 -.431E+00
   0.358E+01 0.207E+01 0.120E+04   -.305E+01 -.176E+01 -.120E+04   -.556E+00 -.321E+00 -.124E+01   0.182E-01 0.105E-01 0.181E+00
   -.912E-04 0.654E+00 0.119E+04   0.191E-03 -.670E+00 -.119E+04   -.110E-07 0.166E+00 -.349E+00   0.118E-01 -.183E+00 0.140E+00
   -.358E+01 0.207E+01 0.120E+04   0.305E+01 -.176E+01 -.120E+04   0.556E+00 -.321E+00 -.124E+01   -.202E-01 0.126E-01 0.182E+00
   0.566E+00 -.327E+00 0.119E+04   -.580E+00 0.335E+00 -.119E+04   0.143E+00 -.828E-01 -.349E+00   -.152E+00 0.102E+00 0.140E+00
   -.566E+00 -.327E+00 0.119E+04   0.580E+00 0.335E+00 -.119E+04   -.143E+00 -.828E-01 -.349E+00   0.176E+00 0.101E+00 0.140E+00
   -.143E-03 -.161E+00 0.120E+04   0.299E-03 -.131E+00 -.120E+04   -.912E-08 0.137E+00 -.855E+00   -.407E-02 0.134E+00 0.767E-01
   -.917E-04 -.414E+01 0.120E+04   0.186E-03 0.352E+01 -.120E+04   -.428E-07 0.642E+00 -.124E+01   -.147E-03 -.250E-01 0.182E+00
   -.139E+00 0.803E-01 0.120E+04   -.114E+00 0.658E-01 -.120E+04   0.119E+00 -.684E-01 -.855E+00   0.115E+00 -.705E-01 0.766E-01
   0.139E+00 0.803E-01 0.120E+04   0.113E+00 0.658E-01 -.120E+04   -.119E+00 -.684E-01 -.855E+00   -.114E+00 -.674E-01 0.772E-01
   -.541E-04 0.984E+00 -.113E+04   0.680E-04 -.116E+01 0.113E+04   -.599E-08 0.900E-01 0.803E+00   -.253E-02 0.454E-01 0.673E+00
   -.190E+02 -.110E+02 -.112E+04   0.202E+02 0.117E+02 0.112E+04   -.117E+01 -.674E+00 -.491E+00   0.420E-01 0.241E-01 0.867E+00
   0.190E+02 -.110E+02 -.112E+04   -.202E+02 0.117E+02 0.112E+04   0.117E+01 -.674E+00 -.491E+00   -.179E-01 0.256E-01 0.866E+00
   -.135E+02 0.781E+01 -.113E+04   0.130E+02 -.748E+01 0.113E+04   0.636E+00 -.367E+00 0.114E+01   -.382E-01 0.209E-01 0.762E+00
   -.843E-04 0.220E+02 -.112E+04   0.145E-03 -.233E+02 0.112E+04   -.898E-07 0.135E+01 -.491E+00   0.120E-01 -.295E-01 0.866E+00
   0.135E+02 0.781E+01 -.113E+04   -.130E+02 -.748E+01 0.113E+04   -.636E+00 -.367E+00 0.114E+01   0.355E-01 0.196E-01 0.762E+00
   -.852E+00 -.492E+00 -.113E+04   0.100E+01 0.580E+00 0.113E+04   -.779E-01 -.450E-01 0.803E+00   -.378E-01 -.218E-01 0.673E+00
   0.852E+00 -.492E+00 -.113E+04   -.100E+01 0.580E+00 0.113E+04   0.779E-01 -.450E-01 0.803E+00   0.384E-01 -.247E-01 0.673E+00
   -.119E-03 -.156E+02 -.113E+04   0.244E-03 0.150E+02 0.113E+04   -.489E-07 0.735E+00 0.114E+01   -.991E-03 -.436E-01 0.762E+00
   -.418E-04 0.137E-04 -.342E+04   0.367E-04 -.337E-04 0.341E+04   -.460E-17 -.461E-17 0.190E+01   -.310E-03 -.128E-03 0.736E+00
   -.287E+01 0.826E-01 -.341E+04   0.202E+01 -.204E+01 0.341E+04   0.581E+00 0.150E+01 0.246E+01   0.916E-01 0.109E+00 0.743E+00
   0.287E+01 0.827E-01 -.341E+04   -.202E+01 -.204E+01 0.341E+04   -.581E+00 0.150E+01 0.246E+01   -.906E-01 0.111E+00 0.743E+00
   -.136E+01 -.253E+01 -.341E+04   -.751E+00 0.277E+01 0.341E+04   0.159E+01 -.246E+00 0.246E+01   0.140E+00 0.250E-01 0.743E+00
   0.136E+01 -.253E+01 -.341E+04   0.751E+00 0.277E+01 0.341E+04   -.159E+01 -.246E+00 0.246E+01   -.142E+00 0.260E-01 0.742E+00
   0.151E+01 0.245E+01 -.341E+04   -.277E+01 -.735E+00 0.341E+04   0.101E+01 -.125E+01 0.246E+01   0.510E-01 -.134E+00 0.743E+00
   -.151E+01 0.245E+01 -.341E+04   0.277E+01 -.735E+00 0.341E+04   -.101E+01 -.125E+01 0.246E+01   -.476E-01 -.136E+00 0.742E+00
   -.162E-03 -.323E-04 -.342E+04   0.256E-03 0.434E-05 0.342E+04   -.847E-18 0.697E-18 0.222E+01   -.133E-01 -.686E-02 0.637E+00
   -.497E-04 -.324E-04 -.256E+04   0.113E-03 0.218E-04 0.256E+04   0.160E-17 0.601E-18 0.158E+01   0.247E-02 0.147E-02 0.793E+00
   0.171E-03 -.858E-04 -.220E+04   0.169E-04 0.783E-05 0.223E+04   0.115E-17 0.999E-18 -.298E+02   0.320E-02 0.194E-02 0.606E-01
 -----------------------------------------------------------------------------------------------
   -.112E-03 -.111E-03 0.198E+02   0.197E-13 0.393E-12 0.000E+00   -.886E-15 0.446E-15 -.304E+02   0.575E-01 0.302E-01 0.106E+02
 
 
 POSITION                                       TOTAL-FORCE (eV/Angst)
 -----------------------------------------------------------------------------------
      0.00000      0.00000      5.37156        -0.000000     -0.000000     -0.001656
      2.56560      0.00000      5.37156         0.000033      0.026155      0.059392
      5.13119      0.00000      5.37156        -0.000033      0.026155      0.059392
      1.28280      2.22187      5.37156         0.022667     -0.013049      0.059392
      3.84839      2.22187      5.37156        -0.000000     -0.000000      0.043299
      6.41399      2.22187      5.37156        -0.022667     -0.013049      0.059392
      2.56560      4.44374      5.37156         0.022634     -0.013106      0.059392
      5.13119      4.44374      5.37156        -0.022634     -0.013106      0.059392
      7.69679      4.44374      5.37156        -0.000000     -0.000000      0.019652
      1.28280      0.74062      7.46636        -0.000635     -0.000366     -0.050735
      3.84839      0.74062      7.46636         0.000000     -0.039733     -0.060007
      6.41399      0.74062      7.46636         0.000635     -0.000366     -0.050735
      2.56560      2.96249      7.46636        -0.034410      0.019867     -0.060007
      5.13119      2.96249      7.46636         0.034410      0.019867     -0.060007
      7.69679      2.96249      7.46636         0.000000     -0.021549     -0.010232
      3.84839      5.18437      7.46636        -0.000000      0.000733     -0.050735
      6.41399      5.18437      7.46636        -0.018662      0.010774     -0.010232
      8.97958      5.18437      7.46636         0.018662      0.010774     -0.010232
      7.69679      1.48769      9.56171         0.000000     -0.041268     -0.042201
      2.55203      1.47342      9.53141         0.034850      0.020121     -0.177572
      5.14476      1.47342      9.53141        -0.034850      0.020121     -0.177572
      8.97489      3.70583      9.56026         0.037898     -0.021880     -0.032675
      3.84839      3.71878      9.53141         0.000000     -0.040241     -0.177572
      6.41868      3.70583      9.56026        -0.037898     -0.021880     -0.032675
     10.25680      5.92177      9.56171         0.035739      0.020634     -0.042201
      5.13677      5.92177      9.56171        -0.035739      0.020634     -0.042201
      7.69679      5.91957      9.56026        -0.000000      0.043761     -0.032675
      0.00000      0.00000     11.63002        -0.000000     -0.000000      0.018122
      6.40663      6.66047     11.66109        -0.175061     -0.344219     -0.167706
      8.98694      6.66047     11.66109         0.175061     -0.344219     -0.167706
      8.97145      2.21807     11.66109        -0.385633      0.020502     -0.167706
      6.42212      2.21807     11.66109         0.385633      0.020502     -0.167706
     10.26160      4.45269     11.66109        -0.210572      0.323717     -0.167706
      5.13197      4.45269     11.66109         0.210572      0.323717     -0.167706
      7.69679      4.44374     11.62915        -0.000000     -0.000000      0.053728
      3.84839      2.22187     11.60012        -0.000000     -0.000000      1.650257
      3.84839      2.22187     13.41122        -0.000000     -0.000000     -0.013257
 -----------------------------------------------------------------------------------
    total drift:                                0.057372      0.030099      0.049175


--------------------------------------------------------------------------------------------------------



  FREE ENERGIE OF THE ION-ELECTRON SYSTEM (eV)
  ---------------------------------------------------
  free  energy   TOTEN  =      -136.28393914 eV

  energy  without entropy=     -136.28393914  energy(sigma->0) =     -136.28393914
 


--------------------------------------------------------------------------------------------------------


    POTLOK:  cpu time    0.0288: real time    0.0289


--------------------------------------------------------------------------------------------------------


 stress matrix after NEB project (eV)
     -2.39528      0.00000     -0.00000
      0.00000     -2.39528     -0.00000
     -0.00000     -0.00000      2.95471
  FORCES: max atom, RMS     0.013257    0.002179
  FORCE total and by dimension    0.013257    0.013257
  Stress total and by dimension    4.494997    2.954706
     LOOP+:  cpu time   61.4392: real time   61.5910
 -----------------------------------------------------------------------------
|                                                                             |
|           W    W    AA    RRRRR   N    N  II  N    N   GGGG   !!!           |
|           W    W   A  A   R    R  NN   N  II  NN   N  G    G  !!!           |
|           W    W  A    A  R    R  N N  N  II  N N  N  G       !!!           |
|           W WW W  AAAAAA  RRRRR   N  N N  II  N  N N  G  GGG   !            |
|           WW  WW  A    A  R   R   N   NN  II  N   NN  G    G                |
|           W    W  A    A  R    R  N    N  II  N    N   GGGG   !!!           |
|                                                                             |
|     Tetrahedron method does not include variations of the Fermi             |
|     occupations, so forces and stress will be inaccurate. We suggest        |
|     using a different smearing scheme ISMEAR = 1 or 2 for metals in         |
|     relaxations.                                                            |
|                                                                             |
 -----------------------------------------------------------------------------

    4ORBIT:  cpu time    0.0000: real time    0.0000



 total charge

# of ion       s       p       d       tot
------------------------------------------
    1        0.449   0.283   9.190   9.923
    2        0.450   0.284   9.187   9.921
    3        0.450   0.284   9.187   9.921
    4        0.450   0.284   9.187   9.921
    5        0.449   0.286   9.184   9.919
    6        0.450   0.284   9.187   9.921
    7        0.450   0.284   9.187   9.921
    8        0.450   0.284   9.187   9.921
    9        0.446   0.284   9.186   9.915
   10        0.444   0.372   9.178   9.993
   11        0.442   0.370   9.182   9.994
   12        0.444   0.372   9.178   9.993
   13        0.442   0.370   9.182   9.994
   14        0.442   0.370   9.182   9.994
   15        0.439   0.367   9.184   9.989
   16        0.444   0.372   9.178   9.993
   17        0.439   0.367   9.184   9.989
   18        0.439   0.367   9.184   9.989
   19        0.440   0.371   9.181   9.992
   20        0.457   0.395   9.169  10.022
   21        0.457   0.395   9.169  10.022
   22        0.434   0.367   9.187   9.988
   23        0.457   0.395   9.169  10.022
   24        0.434   0.367   9.187   9.988
   25        0.440   0.371   9.181   9.992
   26        0.440   0.371   9.181   9.992
   27        0.434   0.367   9.187   9.988
   28        0.455   0.287   9.194   9.936
   29        0.440   0.301   9.192   9.933
   30        0.440   0.301   9.192   9.933
   31        0.440   0.301   9.192   9.933
   32        0.440   0.301   9.192   9.933
   33        0.440   0.301   9.192   9.933
   34        0.440   0.301   9.192   9.933
   35        0.447   0.291   9.190   9.928
   36        0.749   0.722   7.008   8.478
   37        1.605   3.224   0.000   4.829
--------------------------------------------------
tot         17.900  15.619 328.469 361.987
 
 BZINTS: Fermi energy:    0.022912;  400.000000 electrons
         Band energy:-0.116118E+04;  BLOECHL correction:   -0.042134

 total amount of memory used by VASP MPI-rank0   104519. kBytes
=======================================================================

   base      :      30000. kBytes
   nonlr-proj:      17633. kBytes
   fftplans  :       2916. kBytes
   grid      :      12390. kBytes
   one-center:        575. kBytes
   wavefun   :      41005. kBytes
 
  
  
 General timing and accounting informations for this job:
 ========================================================
  
                  Total CPU time used (sec):       67.393
                            User time (sec):       64.734
                          System time (sec):        2.659
                         Elapsed time (sec):       67.883
  
                   Maximum memory used (kb):      343776.
                   Average memory used (kb):          N/A
  
                          Minor page faults:        75527
                          Major page faults:            0
                 Voluntary context switches:         5017
