PROCAR new format
# of k-points:   10         # of bands:  252         # of ions:   38

 k-point     1 :    0.00000000 0.00000000 0.00000000     weight = 0.01562500

band     1 # energy  -18.73229359 # occ.  2.00000000
 
ion      s      p      d    tot
    1  0.000  0.000  0.000  0.000
    2  0.000  0.000  0.000  0.000
    3  0.000  0.000  0.000  0.000
    4  0.000  0.000  0.000  0.000
    5  0.000  0.000  0.000  0.000
    6  0.000  0.000  0.000  0.000
    7  0.000  0.000  0.000  0.000
    8  0.000  0.000  0.000  0.000
    9  0.000  0.000  0.000  0.000
   10  0.000  0.000  0.000  0.000
   11  0.000  0.000  0.000  0.000
   12  0.000  0.000  0.000  0.000
   13  0.000  0.000  0.000  0.000
   14  0.000  0.000  0.000  0.000
   15  0.000  0.000  0.000  0.000
   16  0.000  0.000  0.000  0.000
   17  0.000  0.000  0.000  0.000
   18  0.000  0.000  0.000  0.000
   19  0.000  0.000  0.000  0.000
   20  0.000  0.000  0.000  0.000
   21  0.000  0.000  0.000  0.000
   22  0.000  0.000  0.000  0.000
   23  0.000  0.000  0.000  0.000
   24  0.000  0.000  0.000  0.000
   25  0.000  0.000  0.000  0.000
   26  0.000  0.000  0.000  0.000
   27  0.000  0.000  0.000  0.000
   28  0.000  0.000  0.000  0.000
   29  0.000  0.000  0.000  0.000
   30  0.000  0.000  0.000  0.000
   31  0.000  0.000  0.000  0.000
   32  0.000  0.000  0.000  0.000
   33  0.000  0.000  0.000  0.000
   34  0.000  0.000  0.000  0.000
   35  0.000  0.000  0.000  0.000
   36  0.011  0.014  0.023  0.048
   37  0.739  0.017  0.000  0.756
   38  0.119  0.024  0.000  0.143
tot    0.868  0.055  0.023  0.946
 
band     2 # energy   -7.33146681 # occ.  2.00000000
 
ion      s      p      d    tot
    1  0.000  0.000  0.000  0.000
    2  0.000  0.000  0.000  0.000
    3  0.000  0.000  0.000  0.000
    4  0.000  0.000  0.000  0.000
    5  0.000  0.000  0.000  0.000
    6  0.000  0.000  0.000  0.000
    7  0.000  0.000  0.000  0.000
    8  0.000  0.000  0.000  0.000
    9  0.000  0.000  0.000  0.000
   10  0.000  0.000  0.000  0.000
   11  0.000  0.000  0.000  0.000
   12  0.000  0.000  0.000  0.000
   13  0.000  0.000  0.000  0.000
   14  0.000  0.000  0.000  0.000
   15  0.000  0.000  0.000  0.000
   16  0.000  0.000  0.000  0.000
   17  0.000  0.000  0.000  0.000
   18  0.000  0.000  0.000  0.000
   19  0.000  0.000  0.000  0.000
   20  0.001  0.000  0.002  0.003
   21  0.001  0.000  0.002  0.003
   22  0.000  0.000  0.000  0.000
   23  0.001  0.000  0.002  0.003
   24  0.000  0.000  0.000  0.000
   25  0.000  0.000  0.000  0.000
   26  0.000  0.000  0.000  0.000
   27  0.000  0.000  0.000  0.000
   28  0.000  0.000  0.000  0.000
   29  0.000  0.000  0.000  0.001
   30  0.000  0.000  0.000  0.001
   31  0.000  0.000  0.000  0.001
   32  0.000  0.000  0.000  0.001
   33  0.000  0.000  0.000  0.001
   34  0.000  0.000  0.000  0.001
   35  0.000  0.000  0.000  0.000
   36  0.061  0.041  0.156  0.258
   37  0.025  0.511  0.000  0.537
   38  0.171  0.017  0.000  0.189
tot    0.264  0.571  0.163  0.998
 
band     3 # energy   -6.07163054 # occ.  2.00000000
 
ion      s      p      d    tot
    1  0.007  0.001  0.000  0.007
    2  0.006  0.001  0.000  0.007
    3  0.006  0.001  0.000  0.007
    4  0.006  0.001  0.000  0.007
    5  0.006  0.001  0.000  0.007
    6  0.006  0.001  0.000  0.007
    7  0.006  0.001  0.000  0.007
    8  0.006  0.001  0.000  0.007
    9  0.007  0.001  0.000  0.007
   10  0.024  0.000  0.000  0.025
   11  0.024  0.000  0.000  0.025
   12  0.024  0.000  0.000  0.025
   13  0.024  0.000  0.000  0.025
   14  0.024  0.000  0.000  0.025
   15  0.025  0.000  0.000  0.025
   16  0.024  0.000  0.000  0.025
   17  0.025  0.000  0.000  0.025
   18  0.025  0.000  0.000  0.025
   19  0.022  0.000  0.000  0.023
   20  0.021  0.000  0.000  0.022
   21  0.021  0.000  0.000  0.022
   22  0.023  0.000  0.000  0.023
   23  0.021  0.000  0.000  0.022
   24  0.023  0.000  0.000  0.023
   25  0.022  0.000  0.000  0.023
   26  0.022  0.000  0.000  0.023
   27  0.023  0.000  0.000  0.023
   28  0.005  0.001  0.000  0.006
   29  0.005  0.001  0.000  0.005
   30  0.005  0.001  0.000  0.005
   31  0.005  0.001  0.000  0.005
   32  0.005  0.001  0.000  0.005
   33  0.005  0.001  0.000  0.005
   34  0.005  0.001  0.000  0.005
   35  0.005  0.001  0.000  0.006
   36  0.003  0.003  0.002  0.007
   37  0.000  0.004  0.000  0.004
   38  0.001  0.000  0.000  0.001
tot    0.521  0.019  0.009  0.548
 
band     4 # energy   -5.20124448 # occ.  2.00000000
 
ion      s      p      d    tot
    1  0.008  0.000  0.000  0.009
    2  0.008  0.000  0.000  0.008
    3  0.008  0.000  0.000  0.008
    4  0.008  0.000  0.000  0.008
    5  0.007  0.000  0.000  0.008
    6  0.008  0.000  0.000  0.008
    7  0.008  0.000  0.000  0.008
    8  0.008  0.000  0.000  0.008
    9  0.007  0.000  0.000  0.008
   10  0.011  0.001  0.014  0.026
   11  0.010  0.001  0.015  0.026
   12  0.011  0.001  0.014  0.026
   13  0.010  0.001  0.015  0.026
   14  0.010  0.001  0.015  0.026
   15  0.009  0.001  0.016  0.026
   16  0.011  0.001  0.014  0.026
   17  0.009  0.001  0.016  0.026
   18  0.009  0.001  0.016  0.026
   19  0.014  0.001  0.018  0.032
   20  0.011  0.001  0.018  0.030
   21  0.011  0.001  0.018  0.030
   22  0.015  0.001  0.017  0.033
   23  0.011  0.001  0.018  0.030
   24  0.015  0.001  0.017  0.033
   25  0.014  0.001  0.018  0.032
   26  0.014  0.001  0.018  0.032
   27  0.015  0.001  0.017  0.033
   28  0.008  0.001  0.000  0.008
   29  0.006  0.000  0.000  0.007
   30  0.006  0.000  0.000  0.007
   31  0.006  0.000  0.000  0.007
   32  0.006  0.000  0.000  0.007
   33  0.006  0.000  0.000  0.007
   34  0.006  0.000  0.000  0.007
   35  0.008  0.001  0.000  0.008
   36  0.004  0.001  0.001  0.006
   37  0.000  0.001  0.000  0.002
   38  0.000  0.000  0.000  0.000
tot    0.334  0.027  0.300  0.661
 
band     5 # energy   -4.93584956 # occ.  2.00000000
 
ion      s      p      d    tot
    1  0.017  0.000  0.026  0.043
    2  0.016  0.000  0.025  0.041
    3  0.016  0.000  0.025  0.041
    4  0.016  0.000  0.025  0.041
    5  0.015  0.000  0.025  0.040
    6  0.016  0.000  0.025  0.041
    7  0.016  0.000  0.025  0.041
    8  0.016  0.000  0.025  0.041
    9  0.016  0.000  0.027  0.042
   10  0.000  0.000  0.023  0.024
   11  0.001  0.000  0.021  0.022
   12  0.000  0.000  0.023  0.024
   13  0.001  0.000  0.021  0.022
   14  0.001  0.000  0.021  0.022
   15  0.001  0.001  0.022  0.023
   16  0.000  0.000  0.023  0.024
   17  0.001  0.001  0.022  0.023
   18  0.001  0.001  0.022  0.023
   19  0.000  0.000  0.008  0.008
   20  0.000  0.000  0.008  0.008
   21  0.000  0.000  0.008  0.008
   22  0.000  0.000  0.010  0.010
   23  0.000  0.000  0.008  0.008
   24  0.000  0.000  0.010  0.010
   25  0.000  0.000  0.008  0.008
   26  0.000  0.000  0.008  0.008
   27  0.000  0.000  0.010  0.010
   28  0.006  0.000  0.006  0.012
   29  0.005  0.000  0.006  0.012
   30  0.005  0.000  0.006  0.012
   31  0.005  0.000  0.006  0.012
   32  0.005  0.000  0.006  0.012
   33  0.005  0.000  0.006  0.012
   34  0.005  0.000  0.006  0.012
   35  0.007  0.000  0.007  0.013
   36  0.003  0.000  0.004  0.007
   37  0.000  0.000  0.000  0.000
   38  0.000  0.000  0.000  0.000
tot    0.195  0.006  0.563  0.764
 
band     6 # energy   -4.80953079 # occ.  2.00000000
 
ion      s      p      d    tot
    1  0.000  0.000  0.001  0.001
    2  0.000  0.000  0.006  0.006
    3  0.000  0.000  0.006  0.006
    4  0.000  0.000  0.006  0.006
    5  0.004  0.001  0.003  0.008
    6  0.000  0.000  0.006  0.006
    7  0.000  0.000  0.006  0.006
    8  0.000  0.000  0.006  0.006
    9  0.003  0.001  0.007  0.011
   10  0.003  0.001  0.021  0.025
   11  0.016  0.001  0.017  0.034
   12  0.003  0.001  0.021  0.025
   13  0.016  0.001  0.017  0.034
   14  0.015  0.001  0.018  0.034
   15  0.005  0.000  0.069  0.075
   16  0.003  0.001  0.021  0.025
   17  0.005  0.000  0.069  0.075
   18  0.005  0.000  0.070  0.075
   19  0.008  0.000  0.036  0.044
   20  0.009  0.001  0.007  0.017
   21  0.009  0.001  0.007  0.017
   22  0.000  0.000  0.039  0.040
   23  0.009  0.001  0.007  0.017
   24  0.000  0.000  0.039  0.040
   25  0.008  0.000  0.036  0.044
   26  0.008  0.000  0.036  0.044
   27  0.000  0.000  0.039  0.040
   28  0.005  0.001  0.004  0.009
   29  0.000  0.000  0.004  0.004
   30  0.000  0.000  0.004  0.004
   31  0.000  0.000  0.004  0.004
   32  0.000  0.000  0.004  0.004
   33  0.000  0.000  0.004  0.004
   34  0.000  0.000  0.004  0.004
   35  0.001  0.000  0.003  0.005
   36  0.001  0.000  0.000  0.001
   37  0.000  0.000  0.000  0.000
   38  0.000  0.000  0.000  0.000
tot    0.135  0.017  0.648  0.800
 
band     7 # energy   -4.80502847 # occ.  2.00000000
 
ion      s      p      d    tot
    1  0.000  0.000  0.000  0.000
    2  0.000  0.000  0.004  0.005
    3  0.002  0.001  0.006  0.008
    4  0.000  0.000  0.004  0.005
    5  0.000  0.000  0.008  0.008
    6  0.000  0.000  0.003  0.004
    7  0.002  0.001  0.006  0.008
    8  0.001  0.000  0.003  0.004
    9  0.000  0.000  0.008  0.008
   10  0.000  0.000  0.030  0.031
   11  0.005  0.000  0.074  0.079
   12  0.000  0.001  0.032  0.033
   13  0.005  0.000  0.073  0.078
   14  0.020  0.001  0.003  0.024
   15  0.006  0.001  0.030  0.037
   16  0.000  0.001  0.032  0.033
   17  0.006  0.001  0.030  0.037
   18  0.024  0.000  0.028  0.053
   19  0.002  0.000  0.045  0.047
   20  0.003  0.000  0.030  0.033
   21  0.001  0.001  0.019  0.021
   22  0.006  0.001  0.035  0.041
   23  0.001  0.001  0.019  0.021
   24  0.022  0.001  0.016  0.039
   25  0.009  0.001  0.008  0.017
   26  0.002  0.000  0.045  0.047
   27  0.005  0.001  0.035  0.041
   28  0.000  0.000  0.004  0.004
   29  0.001  0.000  0.004  0.005
   30  0.000  0.000  0.002  0.002
   31  0.001  0.000  0.004  0.005
   32  0.001  0.000  0.004  0.005
   33  0.000  0.000  0.002  0.002
   34  0.001  0.000  0.003  0.005
   35  0.000  0.000  0.009  0.009
   36  0.000  0.000  0.000  0.001
   37  0.000  0.000  0.000  0.000
   38  0.000  0.000  0.000  0.000
tot    0.129  0.017  0.655  0.801
 
band     8 # energy   -4.80501735 # occ.  2.00000000
 
ion      s      p      d    tot
    1  0.000  0.000  0.000  0.000
    2  0.001  0.001  0.004  0.006
    3  0.000  0.000  0.003  0.003
    4  0.001  0.001  0.004  0.007
    5  0.000  0.000  0.008  0.008
    6  0.001  0.000  0.006  0.008
    7  0.000  0.000  0.003  0.003
    8  0.001  0.000  0.006  0.008
    9  0.000  0.000  0.008  0.008
   10  0.000  0.001  0.032  0.033
   11  0.015  0.001  0.026  0.042
   12  0.000  0.000  0.031  0.031
   13  0.015  0.001  0.027  0.043
   14  0.000  0.000  0.097  0.097
   15  0.018  0.001  0.029  0.048
   16  0.000  0.000  0.031  0.031
   17  0.018  0.001  0.029  0.048
   18  0.000  0.001  0.030  0.031
   19  0.006  0.001  0.020  0.027
   20  0.000  0.001  0.016  0.017
   21  0.002  0.000  0.026  0.029
   22  0.017  0.001  0.023  0.040
   23  0.002  0.000  0.026  0.029
   24  0.000  0.001  0.041  0.042
   25  0.000  0.000  0.057  0.058
   26  0.006  0.001  0.020  0.027
   27  0.017  0.001  0.022  0.040
   28  0.000  0.000  0.004  0.004
   29  0.001  0.000  0.003  0.003
   30  0.002  0.000  0.004  0.006
   31  0.000  0.000  0.002  0.003
   32  0.000  0.000  0.003  0.003
   33  0.002  0.000  0.004  0.006
   34  0.000  0.000  0.003  0.003
   35  0.000  0.000  0.009  0.009
   36  0.000  0.000  0.000  0.001
   37  0.000  0.000  0.000  0.000
   38  0.000  0.000  0.000  0.000
tot    0.129  0.017  0.655  0.801
 
band     9 # energy   -4.80333077 # occ.  2.00000000
 
ion      s      p      d    tot
    1  0.001  0.001  0.013  0.015
    2  0.000  0.000  0.004  0.005
    3  0.000  0.000  0.004  0.005
    4  0.000  0.000  0.004  0.005
    5  0.001  0.000  0.001  0.002
    6  0.000  0.000  0.004  0.005
    7  0.000  0.000  0.004  0.005
    8  0.000  0.000  0.004  0.005
    9  0.002  0.000  0.000  0.002
   10  0.010  0.000  0.062  0.072
   11  0.000  0.001  0.045  0.045
   12  0.010  0.000  0.062  0.073
   13  0.000  0.001  0.045  0.045
   14  0.000  0.001  0.044  0.045
   15  0.009  0.001  0.010  0.021
   16  0.010  0.000  0.062  0.073
   17  0.009  0.001  0.010  0.021
   18  0.009  0.001  0.011  0.021
   19  0.006  0.001  0.012  0.019
   20  0.002  0.000  0.036  0.038
   21  0.002  0.000  0.036  0.038
   22  0.008  0.001  0.037  0.046
   23  0.002  0.000  0.036  0.038
   24  0.008  0.001  0.037  0.046
   25  0.006  0.001  0.012  0.018
   26  0.006  0.001  0.012  0.018
   27  0.008  0.001  0.037  0.046
   28  0.000  0.000  0.001  0.002
   29  0.000  0.000  0.005  0.005
   30  0.000  0.000  0.004  0.005
   31  0.000  0.000  0.005  0.005
   32  0.000  0.000  0.004  0.005
   33  0.000  0.000  0.004  0.005
   34  0.000  0.000  0.004  0.005
   35  0.003  0.001  0.002  0.006
   36  0.000  0.001  0.000  0.002
   37  0.000  0.001  0.000  0.001
   38  0.000  0.000  0.000  0.000
tot    0.115  0.017  0.677  0.809
 
band    10 # energy   -4.80146985 # occ.  2.00000000
 
ion      s      p      d    tot
    1  0.000  0.000  0.010  0.011
    2  0.000  0.000  0.003  0.004
    3  0.001  0.001  0.006  0.008
    4  0.000  0.000  0.004  0.005
    5  0.000  0.000  0.002  0.002
    6  0.001  0.000  0.004  0.005
    7  0.001  0.001  0.006  0.008
    8  0.000  0.000  0.003  0.003
    9  0.000  0.000  0.004  0.004
   10  0.001  0.001  0.068  0.069
   11  0.005  0.001  0.028  0.034
   12  0.025  0.001  0.022  0.048
   13  0.007  0.000  0.035  0.043
   14  0.000  0.002  0.011  0.013
   15  0.004  0.000  0.043  0.047
   16  0.018  0.001  0.036  0.054
   17  0.006  0.000  0.023  0.030
   18  0.000  0.000  0.090  0.091
   19  0.006  0.001  0.024  0.031
   20  0.000  0.000  0.047  0.048
   21  0.016  0.001  0.013  0.030
   22  0.001  0.000  0.023  0.024
   23  0.011  0.001  0.023  0.035
   24  0.000  0.000  0.045  0.046
   25  0.000  0.001  0.018  0.019
   26  0.009  0.001  0.026  0.035
   27  0.001  0.000  0.030  0.031
   28  0.000  0.000  0.005  0.005
   29  0.001  0.000  0.003  0.004
   30  0.000  0.000  0.002  0.002
   31  0.001  0.000  0.002  0.003
   32  0.000  0.000  0.003  0.004
   33  0.000  0.000  0.002  0.002
   34  0.001  0.000  0.004  0.005
   35  0.000  0.000  0.002  0.002
   36  0.000  0.000  0.003  0.003
   37  0.000  0.000  0.000  0.000
   38  0.000  0.000  0.000  0.000
tot    0.117  0.016  0.674  0.807
 
band    11 # energy   -4.80146828 # occ.  2.00000000
 
ion      s      p      d    tot
    1  0.000  0.000  0.010  0.011
    2  0.001  0.001  0.005  0.007
    3  0.000  0.000  0.003  0.003
    4  0.001  0.001  0.004  0.006
    5  0.000  0.000  0.002  0.002
    6  0.001  0.000  0.005  0.006
    7  0.000  0.000  0.003  0.003
    8  0.001  0.000  0.006  0.007
    9  0.000  0.000  0.004  0.004
   10  0.028  0.001  0.016  0.045
   11  0.003  0.001  0.021  0.025
   12  0.004  0.001  0.061  0.066
   13  0.001  0.002  0.014  0.017
   14  0.008  0.000  0.039  0.047
   15  0.003  0.000  0.061  0.064
   16  0.011  0.001  0.048  0.060
   17  0.001  0.000  0.081  0.082
   18  0.006  0.000  0.014  0.021
   19  0.004  0.001  0.021  0.026
   20  0.018  0.001  0.009  0.028
   21  0.003  0.000  0.042  0.045
   22  0.000  0.000  0.042  0.043
   23  0.007  0.001  0.033  0.040
   24  0.001  0.000  0.020  0.021
   25  0.010  0.001  0.027  0.038
   26  0.001  0.001  0.019  0.021
   27  0.000  0.000  0.036  0.037
   28  0.000  0.000  0.005  0.005
   29  0.000  0.000  0.003  0.003
   30  0.001  0.000  0.003  0.005
   31  0.000  0.000  0.003  0.004
   32  0.000  0.000  0.002  0.003
   33  0.001  0.000  0.004  0.005
   34  0.000  0.000  0.002  0.002
   35  0.000  0.000  0.002  0.002
   36  0.000  0.000  0.003  0.003
   37  0.000  0.000  0.000  0.000
   38  0.000  0.000  0.000  0.000
tot    0.117  0.016  0.674  0.807
 
band    12 # energy   -4.77737572 # occ.  2.00000000
 
ion      s      p      d    tot
    1  0.000  0.001  0.012  0.013
    2  0.001  0.000  0.010  0.011
    3  0.001  0.000  0.010  0.011
    4  0.001  0.000  0.010  0.011
    5  0.000  0.000  0.001  0.002
    6  0.001  0.000  0.010  0.011
    7  0.001  0.000  0.010  0.011
    8  0.001  0.000  0.010  0.011
    9  0.008  0.000  0.004  0.012
   10  0.004  0.000  0.021  0.025
   11  0.000  0.000  0.049  0.049
   12  0.004  0.000  0.021  0.025
   13  0.000  0.000  0.049  0.049
   14  0.000  0.000  0.049  0.049
   15  0.001  0.000  0.023  0.024
   16  0.004  0.000  0.021  0.025
   17  0.001  0.000  0.023  0.024
   18  0.001  0.000  0.023  0.024
   19  0.002  0.001  0.004  0.006
   20  0.001  0.000  0.040  0.041
   21  0.001  0.000  0.040  0.041
   22  0.003  0.000  0.059  0.062
   23  0.001  0.000  0.040  0.041
   24  0.003  0.000  0.059  0.062
   25  0.002  0.001  0.004  0.006
   26  0.002  0.001  0.004  0.006
   27  0.003  0.000  0.059  0.062
   28  0.009  0.001  0.001  0.011
   29  0.002  0.000  0.012  0.014
   30  0.002  0.000  0.012  0.014
   31  0.002  0.000  0.012  0.014
   32  0.002  0.000  0.012  0.014
   33  0.002  0.000  0.012  0.014
   34  0.002  0.000  0.012  0.014
   35  0.002  0.000  0.026  0.028
   36  0.000  0.000  0.000  0.000
   37  0.000  0.000  0.000  0.000
   38  0.000  0.000  0.000  0.000
tot    0.068  0.007  0.762  0.837
 
band    13 # energy   -4.76155562 # occ.  2.00000000
 
ion      s      p      d    tot
    1  0.000  0.000  0.020  0.020
    2  0.003  0.000  0.006  0.010
    3  0.002  0.000  0.008  0.010
    4  0.003  0.000  0.006  0.010
    5  0.000  0.000  0.004  0.004
    6  0.000  0.000  0.009  0.009
    7  0.002  0.000  0.008  0.010
    8  0.000  0.000  0.009  0.009
    9  0.000  0.000  0.011  0.012
   10  0.000  0.000  0.025  0.025
   11  0.003  0.000  0.023  0.026
   12  0.000  0.000  0.035  0.035
   13  0.003  0.000  0.023  0.026
   14  0.000  0.000  0.028  0.028
   15  0.003  0.000  0.022  0.026
   16  0.000  0.000  0.035  0.035
   17  0.003  0.000  0.021  0.025
   18  0.000  0.000  0.053  0.053
   19  0.011  0.000  0.033  0.044
   20  0.000  0.000  0.079  0.079
   21  0.006  0.000  0.027  0.033
   22  0.001  0.000  0.037  0.038
   23  0.006  0.000  0.028  0.034
   24  0.000  0.000  0.008  0.008
   25  0.000  0.000  0.079  0.079
   26  0.011  0.000  0.032  0.043
   27  0.001  0.000  0.036  0.037
   28  0.000  0.000  0.012  0.012
   29  0.000  0.000  0.009  0.009
   30  0.001  0.000  0.006  0.007
   31  0.000  0.000  0.009  0.009
   32  0.002  0.001  0.004  0.007
   33  0.001  0.000  0.006  0.008
   34  0.002  0.001  0.005  0.008
   35  0.000  0.000  0.008  0.008
   36  0.000  0.001  0.002  0.002
   37  0.000  0.000  0.000  0.000
   38  0.000  0.000  0.000  0.000
tot    0.065  0.008  0.768  0.840
 
band    14 # energy   -4.76153287 # occ.  2.00000000
 
ion      s      p      d    tot
    1  0.000  0.000  0.020  0.020
    2  0.000  0.000  0.009  0.010
    3  0.002  0.000  0.007  0.009
    4  0.000  0.000  0.009  0.010
    5  0.000  0.000  0.004  0.004
    6  0.003  0.000  0.006  0.010
    7  0.001  0.000  0.007  0.009
    8  0.003  0.000  0.006  0.010
    9  0.000  0.000  0.012  0.012
   10  0.000  0.000  0.038  0.039
   11  0.001  0.000  0.026  0.027
   12  0.000  0.000  0.028  0.028
   13  0.001  0.000  0.027  0.027
   14  0.004  0.000  0.021  0.025
   15  0.001  0.000  0.042  0.043
   16  0.000  0.000  0.028  0.029
   17  0.001  0.000  0.043  0.044
   18  0.004  0.000  0.011  0.016
   19  0.004  0.000  0.063  0.067
   20  0.008  0.000  0.011  0.019
   21  0.002  0.000  0.062  0.064
   22  0.000  0.000  0.017  0.018
   23  0.002  0.000  0.061  0.063
   24  0.001  0.000  0.046  0.047
   25  0.014  0.000  0.017  0.032
   26  0.003  0.000  0.064  0.068
   27  0.000  0.000  0.018  0.019
   28  0.000  0.000  0.012  0.012
   29  0.002  0.000  0.004  0.007
   30  0.001  0.001  0.007  0.009
   31  0.002  0.000  0.004  0.007
   32  0.000  0.000  0.009  0.009
   33  0.001  0.001  0.007  0.009
   34  0.000  0.000  0.008  0.009
   35  0.000  0.000  0.008  0.008
   36  0.000  0.001  0.002  0.002
   37  0.000  0.000  0.000  0.000
   38  0.000  0.000  0.000  0.000
tot    0.065  0.008  0.768  0.840
 
band    15 # energy   -4.75616520 # occ.  2.00000000
 
ion      s      p      d    tot
    1  0.004  0.000  0.001  0.005
    2  0.000  0.000  0.012  0.012
    3  0.000  0.000  0.012  0.012
    4  0.000  0.000  0.012  0.012
    5  0.005  0.001  0.000  0.006
    6  0.000  0.000  0.012  0.012
    7  0.000  0.000  0.012  0.012
    8  0.000  0.000  0.012  0.012
    9  0.001  0.000  0.010  0.011
   10  0.001  0.000  0.033  0.034
   11  0.001  0.000  0.014  0.016
   12  0.001  0.000  0.033  0.034
   13  0.001  0.000  0.014  0.016
   14  0.001  0.000  0.014  0.016
   15  0.000  0.000  0.036  0.037
   16  0.001  0.000  0.033  0.034
   17  0.000  0.000  0.036  0.037
   18  0.000  0.000  0.036  0.037
   19  0.000  0.000  0.073  0.073
   20  0.008  0.000  0.042  0.050
   21  0.008  0.000  0.042  0.050
   22  0.005  0.000  0.010  0.015
   23  0.008  0.000  0.042  0.050
   24  0.005  0.000  0.010  0.015
   25  0.000  0.000  0.073  0.073
   26  0.000  0.000  0.073  0.073
   27  0.005  0.000  0.010  0.015
   28  0.000  0.000  0.006  0.006
   29  0.000  0.000  0.009  0.009
   30  0.000  0.000  0.009  0.009
   31  0.000  0.000  0.009  0.009
   32  0.000  0.000  0.009  0.009
   33  0.000  0.000  0.009  0.009
   34  0.000  0.000  0.009  0.009
   35  0.007  0.001  0.000  0.008
   36  0.000  0.003  0.002  0.005
   37  0.000  0.001  0.000  0.001
   38  0.000  0.000  0.000  0.001
tot    0.066  0.011  0.765  0.842
 
band    16 # energy   -4.75469441 # occ.  2.00000000
 
ion      s      p      d    tot
    1  0.000  0.000  0.006  0.006
    2  0.003  0.001  0.006  0.009
    3  0.002  0.000  0.009  0.011
    4  0.003  0.001  0.006  0.009
    5  0.000  0.000  0.019  0.019
    6  0.000  0.000  0.010  0.010
    7  0.002  0.000  0.009  0.011
    8  0.000  0.000  0.009  0.010
    9  0.000  0.000  0.012  0.012
   10  0.007  0.000  0.007  0.014
   11  0.001  0.000  0.046  0.048
   12  0.002  0.000  0.053  0.055
   13  0.001  0.000  0.047  0.048
   14  0.005  0.000  0.029  0.034
   15  0.000  0.000  0.022  0.023
   16  0.002  0.000  0.052  0.054
   17  0.000  0.000  0.022  0.022
   18  0.000  0.000  0.044  0.044
   19  0.000  0.000  0.026  0.027
   20  0.005  0.000  0.036  0.041
   21  0.001  0.000  0.034  0.036
   22  0.002  0.000  0.070  0.072
   23  0.001  0.000  0.034  0.036
   24  0.010  0.000  0.005  0.015
   25  0.001  0.000  0.030  0.031
   26  0.000  0.000  0.026  0.027
   27  0.003  0.000  0.068  0.071
   28  0.000  0.000  0.003  0.004
   29  0.000  0.000  0.007  0.008
   30  0.001  0.000  0.004  0.004
   31  0.000  0.000  0.007  0.008
   32  0.002  0.000  0.004  0.006
   33  0.001  0.000  0.004  0.004
   34  0.002  0.000  0.004  0.006
   35  0.000  0.000  0.006  0.007
   36  0.000  0.000  0.003  0.004
   37  0.000  0.000  0.000  0.000
   38  0.000  0.000  0.000  0.000
tot    0.057  0.007  0.780  0.845
 
band    17 # energy   -4.75467599 # occ.  2.00000000
 
ion      s      p      d    tot
    1  0.000  0.000  0.005  0.006
    2  0.000  0.000  0.011  0.011
    3  0.002  0.000  0.007  0.009
    4  0.000  0.000  0.011  0.011
    5  0.000  0.000  0.019  0.019
    6  0.003  0.000  0.007  0.010
    7  0.002  0.000  0.007  0.009
    8  0.003  0.000  0.007  0.010
    9  0.000  0.000  0.012  0.012
   10  0.000  0.000  0.067  0.067
   11  0.004  0.000  0.035  0.039
   12  0.005  0.000  0.022  0.027
   13  0.004  0.000  0.035  0.039
   14  0.000  0.000  0.052  0.052
   15  0.000  0.000  0.036  0.037
   16  0.005  0.000  0.023  0.028
   17  0.000  0.000  0.037  0.037
   18  0.000  0.000  0.015  0.015
   19  0.001  0.000  0.029  0.029
   20  0.000  0.000  0.034  0.034
   21  0.004  0.000  0.035  0.039
   22  0.008  0.000  0.026  0.034
   23  0.004  0.000  0.035  0.039
   24  0.000  0.000  0.090  0.090
   25  0.000  0.000  0.026  0.026
   26  0.001  0.000  0.029  0.029
   27  0.008  0.000  0.027  0.035
   28  0.000  0.000  0.003  0.003
   29  0.002  0.000  0.003  0.005
   30  0.001  0.000  0.006  0.008
   31  0.002  0.000  0.003  0.005
   32  0.000  0.000  0.006  0.006
   33  0.001  0.000  0.006  0.008
   34  0.000  0.000  0.006  0.006
   35  0.000  0.000  0.006  0.007
   36  0.000  0.000  0.003  0.004
   37  0.000  0.000  0.000  0.000
   38  0.000  0.000  0.000  0.000
tot    0.057  0.007  0.780  0.845
 
band    18 # energy   -4.73597500 # occ.  2.00000000
 
ion      s      p      d    tot
    1  0.007  0.000  0.003  0.010
    2  0.002  0.000  0.011  0.013
    3  0.002  0.000  0.011  0.013
    4  0.002  0.000  0.011  0.013
    5  0.003  0.000  0.019  0.022
    6  0.002  0.000  0.011  0.013
    7  0.002  0.000  0.011  0.013
    8  0.002  0.000  0.011  0.013
    9  0.000  0.000  0.007  0.007
   10  0.000  0.000  0.008  0.009
   11  0.002  0.000  0.025  0.027
   12  0.000  0.000  0.008  0.009
   13  0.002  0.000  0.025  0.027
   14  0.002  0.000  0.025  0.027
   15  0.005  0.000  0.008  0.013
   16  0.000  0.000  0.008  0.009
   17  0.005  0.000  0.008  0.013
   18  0.005  0.000  0.008  0.013
   19  0.002  0.000  0.023  0.025
   20  0.000  0.001  0.019  0.019
   21  0.000  0.001  0.019  0.019
   22  0.001  0.001  0.014  0.016
   23  0.000  0.001  0.019  0.019
   24  0.001  0.001  0.014  0.016
   25  0.002  0.000  0.023  0.025
   26  0.002  0.000  0.023  0.025
   27  0.001  0.001  0.014  0.016
   28  0.011  0.000  0.041  0.052
   29  0.013  0.000  0.025  0.038
   30  0.013  0.000  0.025  0.038
   31  0.013  0.000  0.025  0.038
   32  0.013  0.000  0.025  0.038
   33  0.013  0.000  0.025  0.038
   34  0.013  0.000  0.025  0.038
   35  0.013  0.000  0.021  0.034
   36  0.014  0.000  0.012  0.026
   37  0.000  0.000  0.000  0.001
   38  0.000  0.000  0.000  0.000
tot    0.170  0.009  0.610  0.789
 
band    19 # energy   -4.59686191 # occ.  2.00000000
 
ion      s      p      d    tot
    1  0.000  0.000  0.013  0.013
    2  0.000  0.000  0.011  0.011
    3  0.001  0.000  0.005  0.006
    4  0.000  0.000  0.011  0.011
    5  0.000  0.000  0.001  0.001
    6  0.002  0.001  0.008  0.011
    7  0.001  0.000  0.005  0.006
    8  0.002  0.001  0.008  0.010
    9  0.000  0.001  0.017  0.018
   10  0.002  0.001  0.048  0.050
   11  0.000  0.000  0.027  0.027
   12  0.001  0.000  0.023  0.023
   13  0.000  0.000  0.027  0.027
   14  0.000  0.001  0.023  0.024
   15  0.000  0.000  0.081  0.082
   16  0.000  0.000  0.021  0.022
   17  0.001  0.000  0.079  0.080
   18  0.002  0.000  0.039  0.040
   19  0.000  0.000  0.033  0.033
   20  0.002  0.001  0.036  0.039
   21  0.001  0.000  0.013  0.014
   22  0.001  0.000  0.068  0.069
   23  0.001  0.000  0.012  0.012
   24  0.003  0.000  0.041  0.044
   25  0.000  0.001  0.019  0.019
   26  0.000  0.000  0.032  0.033
   27  0.001  0.000  0.069  0.070
   28  0.000  0.000  0.001  0.001
   29  0.000  0.000  0.008  0.009
   30  0.001  0.001  0.006  0.008
   31  0.000  0.000  0.008  0.008
   32  0.001  0.000  0.005  0.006
   33  0.001  0.001  0.005  0.007
   34  0.001  0.000  0.005  0.006
   35  0.000  0.001  0.017  0.018
   36  0.000  0.000  0.004  0.005
   37  0.000  0.001  0.000  0.001
   38  0.000  0.000  0.000  0.000
tot    0.023  0.015  0.828  0.866
 
band    20 # energy   -4.59684130 # occ.  2.00000000
 
ion      s      p      d    tot
    1  0.000  0.000  0.013  0.013
    2  0.002  0.001  0.005  0.008
    3  0.001  0.001  0.011  0.012
    4  0.002  0.001  0.005  0.008
    5  0.000  0.000  0.001  0.001
    6  0.000  0.000  0.008  0.008
    7  0.001  0.001  0.011  0.012
    8  0.000  0.000  0.008  0.008
    9  0.000  0.001  0.017  0.018
   10  0.000  0.000  0.015  0.015
   11  0.000  0.001  0.024  0.025
   12  0.001  0.001  0.038  0.040
   13  0.000  0.001  0.025  0.025
   14  0.000  0.000  0.028  0.028
   15  0.001  0.000  0.052  0.053
   16  0.001  0.001  0.039  0.041
   17  0.001  0.000  0.054  0.055
   18  0.000  0.000  0.094  0.094
   19  0.000  0.001  0.024  0.024
   20  0.000  0.000  0.006  0.006
   21  0.002  0.001  0.027  0.029
   22  0.002  0.000  0.051  0.053
   23  0.002  0.001  0.028  0.030
   24  0.000  0.000  0.077  0.078
   25  0.000  0.000  0.037  0.037
   26  0.000  0.001  0.024  0.025
   27  0.002  0.000  0.050  0.052
   28  0.000  0.000  0.001  0.001
   29  0.001  0.001  0.004  0.006
   30  0.000  0.000  0.007  0.007
   31  0.001  0.001  0.004  0.006
   32  0.001  0.001  0.007  0.009
   33  0.000  0.000  0.007  0.007
   34  0.001  0.000  0.007  0.008
   35  0.000  0.001  0.017  0.018
   36  0.000  0.000  0.004  0.005
   37  0.000  0.001  0.000  0.001
   38  0.000  0.000  0.000  0.000
tot    0.023  0.015  0.827  0.866
 
band    21 # energy   -4.59665604 # occ.  2.00000000
 
ion      s      p      d    tot
    1  0.002  0.001  0.010  0.012
    2  0.000  0.000  0.010  0.010
    3  0.000  0.000  0.010  0.010
    4  0.000  0.000  0.009  0.010
    5  0.004  0.001  0.000  0.005
    6  0.000  0.000  0.009  0.010
    7  0.000  0.000  0.010  0.010
    8  0.000  0.000  0.009  0.010
    9  0.000  0.000  0.006  0.006
   10  0.001  0.001  0.060  0.061
   11  0.000  0.000  0.019  0.020
   12  0.001  0.001  0.061  0.062
   13  0.000  0.000  0.019  0.019
   14  0.000  0.000  0.018  0.019
   15  0.001  0.000  0.042  0.044
   16  0.001  0.001  0.062  0.063