PROCAR new format
# of k-points:   10         # of bands:  252         # of ions:   37

 k-point     1 :    0.00000000 0.00000000 0.00000000     weight = 0.01562500

band     1 # energy  -11.72149744 # occ.  2.00000000
 
ion      s      p      d    tot
    1  0.000  0.000  0.000  0.000
    2  0.000  0.000  0.000  0.000
    3  0.000  0.000  0.000  0.000
    4  0.000  0.000  0.000  0.000
    5  0.000  0.000  0.000  0.000
    6  0.000  0.000  0.000  0.000
    7  0.000  0.000  0.000  0.000
    8  0.000  0.000  0.000  0.000
    9  0.000  0.000  0.000  0.000
   10  0.000  0.000  0.000  0.000
   11  0.000  0.000  0.000  0.000
   12  0.000  0.000  0.000  0.000
   13  0.000  0.000  0.000  0.000
   14  0.000  0.000  0.000  0.000
   15  0.000  0.000  0.000  0.000
   16  0.000  0.000  0.000  0.000
   17  0.000  0.000  0.000  0.000
   18  0.000  0.000  0.000  0.000
   19  0.000  0.000  0.000  0.000
   20  0.000  0.000  0.000  0.000
   21  0.000  0.000  0.000  0.000
   22  0.000  0.000  0.000  0.000
   23  0.000  0.000  0.000  0.000
   24  0.000  0.000  0.000  0.000
   25  0.000  0.000  0.000  0.000
   26  0.000  0.000  0.000  0.000
   27  0.000  0.000  0.000  0.000
   28  0.000  0.000  0.000  0.000
   29  0.000  0.000  0.000  0.001
   30  0.000  0.000  0.000  0.001
   31  0.000  0.000  0.000  0.001
   32  0.000  0.000  0.000  0.001
   33  0.000  0.000  0.000  0.001
   34  0.000  0.000  0.000  0.001
   35  0.000  0.000  0.000  0.000
   36  0.085  0.097  0.145  0.328
   37  0.639  0.010  0.000  0.649
tot    0.726  0.108  0.147  0.981
 
band     2 # energy   -6.38505883 # occ.  2.00000000
 
ion      s      p      d    tot
    1  0.006  0.001  0.000  0.006
    2  0.006  0.001  0.000  0.006
    3  0.006  0.001  0.000  0.006
    4  0.006  0.001  0.000  0.006
    5  0.006  0.001  0.000  0.006
    6  0.006  0.001  0.000  0.006
    7  0.006  0.001  0.000  0.006
    8  0.006  0.001  0.000  0.006
    9  0.006  0.001  0.000  0.006
   10  0.023  0.000  0.000  0.024
   11  0.024  0.000  0.000  0.024
   12  0.023  0.000  0.000  0.024
   13  0.024  0.000  0.000  0.024
   14  0.024  0.000  0.000  0.024
   15  0.023  0.000  0.000  0.023
   16  0.023  0.000  0.000  0.024
   17  0.023  0.000  0.000  0.023
   18  0.023  0.000  0.000  0.023
   19  0.023  0.000  0.001  0.023
   20  0.026  0.000  0.000  0.026
   21  0.026  0.000  0.000  0.026
   22  0.023  0.000  0.000  0.023
   23  0.026  0.000  0.000  0.026
   24  0.023  0.000  0.000  0.023
   25  0.023  0.000  0.001  0.023
   26  0.023  0.000  0.001  0.023
   27  0.023  0.000  0.000  0.023
   28  0.005  0.001  0.000  0.006
   29  0.005  0.001  0.000  0.006
   30  0.005  0.001  0.000  0.006
   31  0.005  0.001  0.000  0.006
   32  0.005  0.001  0.000  0.006
   33  0.005  0.001  0.000  0.006
   34  0.005  0.001  0.000  0.006
   35  0.005  0.001  0.000  0.006
   36  0.005  0.002  0.000  0.008
   37  0.001  0.000  0.000  0.001
tot    0.524  0.015  0.007  0.546
 
band     3 # energy   -5.51877025 # occ.  2.00000000
 
ion      s      p      d    tot
    1  0.007  0.000  0.000  0.008
    2  0.007  0.000  0.000  0.008
    3  0.007  0.000  0.000  0.008
    4  0.007  0.000  0.000  0.008
    5  0.007  0.000  0.000  0.008
    6  0.007  0.000  0.000  0.008
    7  0.007  0.000  0.000  0.008
    8  0.007  0.000  0.000  0.008
    9  0.007  0.000  0.000  0.008
   10  0.011  0.001  0.016  0.029
   11  0.011  0.001  0.016  0.028
   12  0.011  0.001  0.016  0.029
   13  0.011  0.001  0.016  0.028
   14  0.011  0.001  0.016  0.028
   15  0.011  0.001  0.014  0.025
   16  0.011  0.001  0.016  0.029
   17  0.011  0.001  0.014  0.025
   18  0.011  0.001  0.014  0.025
   19  0.011  0.001  0.018  0.030
   20  0.013  0.001  0.026  0.040
   21  0.013  0.001  0.026  0.040
   22  0.011  0.001  0.017  0.029
   23  0.013  0.001  0.026  0.040
   24  0.011  0.001  0.017  0.029
   25  0.011  0.001  0.018  0.030
   26  0.011  0.001  0.018  0.030
   27  0.011  0.001  0.017  0.029
   28  0.006  0.000  0.000  0.006
   29  0.005  0.000  0.000  0.006
   30  0.005  0.000  0.000  0.006
   31  0.005  0.000  0.000  0.006
   32  0.005  0.000  0.000  0.006
   33  0.005  0.000  0.000  0.006
   34  0.005  0.000  0.000  0.006
   35  0.005  0.000  0.000  0.006
   36  0.004  0.002  0.000  0.006
   37  0.001  0.000  0.000  0.001
tot    0.321  0.025  0.325  0.670
 
band     4 # energy   -5.22204272 # occ.  2.00000000
 
ion      s      p      d    tot
    1  0.015  0.000  0.024  0.039
    2  0.015  0.000  0.022  0.036
    3  0.015  0.000  0.022  0.036
    4  0.015  0.000  0.022  0.036
    5  0.014  0.000  0.021  0.036
    6  0.015  0.000  0.022  0.036
    7  0.015  0.000  0.022  0.036
    8  0.015  0.000  0.022  0.036
    9  0.015  0.000  0.020  0.035
   10  0.000  0.000  0.019  0.020
   11  0.000  0.001  0.018  0.019
   12  0.000  0.000  0.019  0.020
   13  0.000  0.001  0.018  0.019
   14  0.000  0.001  0.018  0.019
   15  0.000  0.001  0.015  0.016
   16  0.000  0.000  0.019  0.020
   17  0.000  0.001  0.015  0.016
   18  0.000  0.001  0.015  0.016
   19  0.000  0.000  0.008  0.008
   20  0.000  0.000  0.016  0.016
   21  0.000  0.000  0.016  0.016
   22  0.000  0.000  0.010  0.011
   23  0.000  0.000  0.016  0.016
   24  0.000  0.000  0.010  0.011
   25  0.000  0.000  0.008  0.008
   26  0.000  0.000  0.008  0.008
   27  0.000  0.000  0.010  0.011
   28  0.008  0.000  0.009  0.017
   29  0.008  0.000  0.010  0.018
   30  0.008  0.000  0.010  0.018
   31  0.008  0.000  0.010  0.018
   32  0.008  0.000  0.010  0.018
   33  0.008  0.000  0.010  0.018
   34  0.008  0.000  0.010  0.018
   35  0.010  0.000  0.011  0.020
   36  0.005  0.000  0.004  0.009
   37  0.001  0.000  0.000  0.001
tot    0.208  0.007  0.539  0.754
 
band     5 # energy   -5.16092880 # occ.  2.00000000
 
ion      s      p      d    tot
    1  0.003  0.001  0.001  0.004
    2  0.000  0.000  0.004  0.004
    3  0.000  0.000  0.004  0.004
    4  0.000  0.000  0.004  0.004
    5  0.002  0.000  0.000  0.002
    6  0.000  0.000  0.004  0.004
    7  0.000  0.000  0.004  0.004
    8  0.000  0.000  0.004  0.004
    9  0.000  0.000  0.000  0.001
   10  0.003  0.000  0.020  0.023
   11  0.000  0.000  0.019  0.019
   12  0.003  0.000  0.020  0.023
   13  0.000  0.000  0.019  0.019
   14  0.000  0.000  0.019  0.019
   15  0.004  0.001  0.007  0.012
   16  0.003  0.000  0.020  0.023
   17  0.004  0.001  0.007  0.012
   18  0.004  0.001  0.007  0.012
   19  0.001  0.001  0.034  0.036
   20  0.006  0.000  0.121  0.127
   21  0.006  0.000  0.121  0.127
   22  0.016  0.001  0.014  0.031
   23  0.006  0.000  0.121  0.127
   24  0.016  0.001  0.014  0.031
   25  0.001  0.001  0.034  0.036
   26  0.001  0.001  0.034  0.036
   27  0.016  0.001  0.014  0.031
   28  0.000  0.000  0.001  0.001
   29  0.000  0.000  0.004  0.005
   30  0.000  0.000  0.004  0.005
   31  0.000  0.000  0.004  0.005
   32  0.000  0.000  0.004  0.005
   33  0.000  0.000  0.004  0.005
   34  0.000  0.000  0.004  0.005
   35  0.004  0.001  0.004  0.009
   36  0.003  0.003  0.004  0.010
   37  0.001  0.001  0.000  0.001
tot    0.106  0.016  0.702  0.824
 
band     6 # energy   -5.13538928 # occ.  2.00000000
 
ion      s      p      d    tot
    1  0.000  0.000  0.008  0.008
    2  0.001  0.000  0.002  0.003
    3  0.001  0.000  0.002  0.004
    4  0.001  0.000  0.002  0.003
    5  0.000  0.000  0.004  0.004
    6  0.000  0.000  0.002  0.002
    7  0.001  0.000  0.002  0.003
    8  0.000  0.000  0.002  0.002
    9  0.000  0.000  0.001  0.001
   10  0.000  0.001  0.019  0.020
   11  0.001  0.000  0.025  0.027
   12  0.006  0.001  0.015  0.022
   13  0.001  0.000  0.025  0.027
   14  0.000  0.001  0.019  0.019
   15  0.002  0.000  0.010  0.012
   16  0.007  0.001  0.015  0.022
   17  0.002  0.000  0.010  0.012
   18  0.000  0.000  0.014  0.014
   19  0.016  0.001  0.036  0.053
   20  0.000  0.000  0.175  0.176
   21  0.019  0.000  0.051  0.070
   22  0.000  0.001  0.037  0.038
   23  0.020  0.000  0.047  0.067
   24  0.000  0.001  0.049  0.050
   25  0.000  0.001  0.022  0.023
   26  0.016  0.001  0.036  0.052
   27  0.000  0.001  0.037  0.037
   28  0.000  0.000  0.005  0.005
   29  0.000  0.000  0.007  0.008
   30  0.000  0.000  0.003  0.003
   31  0.000  0.000  0.007  0.008
   32  0.001  0.001  0.006  0.008
   33  0.000  0.000  0.002  0.003
   34  0.001  0.001  0.006  0.008
   35  0.000  0.000  0.001  0.001
   36  0.000  0.001  0.003  0.004
   37  0.000  0.000  0.000  0.000
tot    0.100  0.014  0.705  0.819
 
band     7 # energy   -5.13535933 # occ.  2.00000000
 
ion      s      p      d    tot
    1  0.000  0.000  0.008  0.008
    2  0.000  0.000  0.002  0.003
    3  0.000  0.000  0.002  0.002
    4  0.000  0.000  0.002  0.003
    5  0.000  0.000  0.004  0.004
    6  0.001  0.000  0.002  0.004
    7  0.000  0.000  0.002  0.003
    8  0.001  0.000  0.002  0.004
    9  0.000  0.000  0.001  0.001
   10  0.009  0.001  0.013  0.023
   11  0.000  0.001  0.021  0.022
   12  0.002  0.001  0.018  0.020
   13  0.000  0.001  0.021  0.022
   14  0.002  0.000  0.027  0.029
   15  0.001  0.000  0.013  0.013
   16  0.002  0.001  0.018  0.020
   17  0.001  0.000  0.012  0.013
   18  0.003  0.000  0.008  0.012
   19  0.005  0.001  0.026  0.032
   20  0.026  0.000  0.006  0.033
   21  0.007  0.000  0.131  0.138
   22  0.000  0.001  0.045  0.046
   23  0.006  0.000  0.135  0.142
   24  0.000  0.000  0.033  0.033
   25  0.021  0.000  0.041  0.062
   26  0.006  0.001  0.027  0.033
   27  0.000  0.001  0.045  0.046
   28  0.000  0.000  0.005  0.005
   29  0.001  0.000  0.003  0.005
   30  0.001  0.001  0.008  0.010
   31  0.001  0.000  0.003  0.005
   32  0.000  0.000  0.004  0.005
   33  0.001  0.001  0.008  0.010
   34  0.000  0.000  0.005  0.005
   35  0.000  0.000  0.001  0.001
   36  0.000  0.001  0.003  0.004
   37  0.000  0.000  0.000  0.000
tot    0.100  0.014  0.705  0.819
 
band     8 # energy   -5.11165981 # occ.  2.00000000
 
ion      s      p      d    tot
    1  0.000  0.000  0.002  0.002
    2  0.000  0.000  0.002  0.003
    3  0.001  0.000  0.005  0.007
    4  0.000  0.000  0.002  0.003
    5  0.000  0.000  0.009  0.009
    6  0.001  0.000  0.004  0.005
    7  0.001  0.000  0.005  0.007
    8  0.001  0.000  0.004  0.005
    9  0.000  0.000  0.003  0.003
   10  0.002  0.000  0.021  0.023
   11  0.007  0.001  0.064  0.071
   12  0.001  0.001  0.053  0.054
   13  0.007  0.001  0.064  0.071
   14  0.027  0.001  0.008  0.036
   15  0.003  0.001  0.015  0.019
   16  0.001  0.001  0.053  0.054
   17  0.003  0.001  0.015  0.019
   18  0.012  0.000  0.033  0.046
   19  0.001  0.000  0.042  0.043
   20  0.009  0.000  0.042  0.052
   21  0.002  0.001  0.026  0.030
   22  0.005  0.001  0.038  0.044
   23  0.002  0.001  0.026  0.030
   24  0.020  0.001  0.010  0.031
   25  0.003  0.000  0.012  0.016
   26  0.001  0.000  0.042  0.043
   27  0.005  0.001  0.038  0.044
   28  0.000  0.000  0.002  0.002
   29  0.001  0.000  0.004  0.006
   30  0.000  0.000  0.003  0.003
   31  0.001  0.000  0.004  0.006
   32  0.001  0.000  0.003  0.004
   33  0.000  0.000  0.003  0.003
   34  0.001  0.000  0.003  0.004
   35  0.000  0.000  0.008  0.008
   36  0.000  0.000  0.001  0.001
   37  0.000  0.000  0.000  0.000
tot    0.121  0.016  0.667  0.805
 
band     9 # energy   -5.11165086 # occ.  2.00000000
 
ion      s      p      d    tot
    1  0.000  0.000  0.002  0.002
    2  0.001  0.001  0.005  0.007
    3  0.000  0.000  0.002  0.003
    4  0.001  0.001  0.005  0.007
    5  0.000  0.000  0.009  0.009
    6  0.001  0.000  0.004  0.005
    7  0.000  0.000  0.002  0.003
    8  0.001  0.000  0.004  0.005
    9  0.000  0.000  0.003  0.003
   10  0.000  0.001  0.064  0.064
   11  0.021  0.001  0.027  0.048
   12  0.002  0.000  0.031  0.033
   13  0.021  0.001  0.027  0.048
   14  0.000  0.000  0.083  0.083
   15  0.009  0.001  0.027  0.037
   16  0.002  0.000  0.031  0.033
   17  0.009  0.001  0.027  0.037
   18  0.000  0.002  0.009  0.011
   19  0.002  0.000  0.022  0.025
   20  0.000  0.001  0.021  0.022
   21  0.007  0.001  0.037  0.044
   22  0.015  0.001  0.019  0.035
   23  0.007  0.001  0.037  0.044
   24  0.000  0.000  0.048  0.048
   25  0.000  0.000  0.051  0.052
   26  0.002  0.000  0.022  0.025
   27  0.015  0.001  0.019  0.035
   28  0.000  0.000  0.002  0.002
   29  0.000  0.000  0.002  0.002
   30  0.001  0.000  0.004  0.005
   31  0.000  0.000  0.002  0.002
   32  0.001  0.000  0.004  0.005
   33  0.001  0.000  0.004  0.005
   34  0.001  0.000  0.004  0.005
   35  0.000  0.000  0.008  0.008
   36  0.000  0.000  0.001  0.001
   37  0.000  0.000  0.000  0.000
tot    0.121  0.016  0.667  0.805
 
band    10 # energy   -5.10992686 # occ.  2.00000000
 
ion      s      p      d    tot
    1  0.001  0.000  0.001  0.002
    2  0.000  0.000  0.005  0.006
    3  0.000  0.000  0.005  0.006
    4  0.000  0.000  0.005  0.006
    5  0.003  0.001  0.004  0.008
    6  0.000  0.000  0.005  0.006
    7  0.000  0.000  0.005  0.006
    8  0.000  0.000  0.005  0.006
    9  0.001  0.000  0.002  0.003
   10  0.008  0.001  0.004  0.013
   11  0.013  0.001  0.046  0.059
   12  0.008  0.001  0.004  0.013
   13  0.013  0.001  0.045  0.059
   14  0.013  0.001  0.045  0.059
   15  0.000  0.000  0.044  0.045
   16  0.008  0.001  0.004  0.013
   17  0.000  0.000  0.044  0.045
   18  0.000  0.000  0.043  0.044
   19  0.012  0.001  0.034  0.046
   20  0.006  0.001  0.021  0.029
   21  0.006  0.001  0.021  0.029
   22  0.000  0.000  0.047  0.048
   23  0.006  0.001  0.021  0.029
   24  0.000  0.000  0.047  0.048
   25  0.012  0.001  0.034  0.046
   26  0.012  0.001  0.034  0.046
   27  0.000  0.000  0.047  0.048
   28  0.003  0.001  0.004  0.008
   29  0.000  0.000  0.004  0.004
   30  0.000  0.000  0.004  0.004
   31  0.000  0.000  0.004  0.004
   32  0.000  0.000  0.004  0.004
   33  0.000  0.000  0.004  0.004
   34  0.000  0.000  0.004  0.004
   35  0.001  0.000  0.003  0.005
   36  0.000  0.000  0.000  0.000
   37  0.000  0.000  0.000  0.000
tot    0.126  0.018  0.656  0.800
 
band    11 # energy   -5.09520009 # occ.  2.00000000
 
ion      s      p      d    tot
    1  0.001  0.001  0.014  0.016
    2  0.000  0.000  0.007  0.007
    3  0.000  0.000  0.007  0.007
    4  0.000  0.000  0.007  0.007
    5  0.000  0.000  0.003  0.003
    6  0.000  0.000  0.007  0.007
    7  0.000  0.000  0.007  0.007
    8  0.000  0.000  0.007  0.007
    9  0.008  0.001  0.000  0.009
   10  0.005  0.000  0.059  0.064
   11  0.001  0.000  0.053  0.054
   12  0.005  0.000  0.059  0.064
   13  0.001  0.000  0.053  0.054
   14  0.001  0.000  0.053  0.054
   15  0.008  0.000  0.005  0.014
   16  0.005  0.000  0.059  0.064
   17  0.008  0.000  0.005  0.014
   18  0.008  0.000  0.005  0.014
   19  0.003  0.000  0.012  0.015
   20  0.004  0.000  0.035  0.039
   21  0.004  0.000  0.035  0.039
   22  0.000  0.000  0.031  0.032
   23  0.004  0.000  0.035  0.039
   24  0.000  0.000  0.031  0.031
   25  0.003  0.000  0.012  0.015
   26  0.003  0.000  0.012  0.015
   27  0.000  0.000  0.031  0.032
   28  0.008  0.001  0.000  0.009
   29  0.000  0.000  0.013  0.014
   30  0.000  0.000  0.013  0.014
   31  0.000  0.000  0.013  0.014
   32  0.000  0.000  0.013  0.014
   33  0.000  0.000  0.013  0.014
   34  0.000  0.000  0.013  0.014
   35  0.000  0.000  0.008  0.008
   36  0.006  0.002  0.000  0.008
   37  0.000  0.000  0.000  0.000
tot    0.088  0.011  0.733  0.832
 
band    12 # energy   -5.06874048 # occ.  2.00000000
 
ion      s      p      d    tot
    1  0.001  0.000  0.000  0.001
    2  0.000  0.000  0.009  0.009
    3  0.000  0.000  0.008  0.009
    4  0.000  0.000  0.009  0.009
    5  0.003  0.000  0.000  0.004
    6  0.000  0.000  0.009  0.009
    7  0.000  0.000  0.008  0.009
    8  0.000  0.000  0.009  0.009
    9  0.001  0.000  0.017  0.018
   10  0.001  0.000  0.048  0.049
   11  0.003  0.001  0.001  0.004
   12  0.001  0.000  0.047  0.048
   13  0.003  0.001  0.001  0.004
   14  0.003  0.001  0.001  0.004
   15  0.005  0.000  0.066  0.072
   16  0.001  0.000  0.047  0.048
   17  0.005  0.000  0.066  0.072
   18  0.005  0.000  0.066  0.071
   19  0.001  0.000  0.038  0.039
   20  0.001  0.000  0.025  0.026
   21  0.001  0.000  0.025  0.026
   22  0.000  0.000  0.037  0.037
   23  0.001  0.000  0.025  0.026
   24  0.000  0.000  0.037  0.038
   25  0.001  0.000  0.038  0.039
   26  0.001  0.000  0.038  0.039
   27  0.000  0.000  0.037  0.037
   28  0.000  0.000  0.002  0.003
   29  0.001  0.000  0.010  0.011
   30  0.001  0.000  0.010  0.011
   31  0.001  0.000  0.010  0.011
   32  0.001  0.000  0.010  0.011
   33  0.001  0.000  0.010  0.011
   34  0.001  0.000  0.010  0.011
   35  0.006  0.000  0.007  0.014
   36  0.000  0.001  0.002  0.003
   37  0.000  0.000  0.000  0.000
tot    0.054  0.008  0.784  0.845
 
band    13 # energy   -5.06760259 # occ.  2.00000000
 
ion      s      p      d    tot
    1  0.000  0.001  0.013  0.013
    2  0.002  0.001  0.009  0.012
    3  0.003  0.001  0.004  0.008
    4  0.002  0.001  0.009  0.012
    5  0.000  0.000  0.006  0.006
    6  0.000  0.000  0.009  0.009
    7  0.003  0.001  0.004  0.008
    8  0.000  0.000  0.008  0.009
    9  0.000  0.000  0.008  0.008
   10  0.023  0.000  0.023  0.047
   11  0.000  0.001  0.019  0.020
   12  0.008  0.000  0.056  0.064
   13  0.000  0.001  0.024  0.025
   14  0.001  0.000  0.046  0.047
   15  0.003  0.000  0.101  0.104
   16  0.004  0.000  0.063  0.068
   17  0.005  0.000  0.084  0.089
   18  0.016  0.000  0.006  0.022
   19  0.000  0.000  0.031  0.031
   20  0.001  0.001  0.013  0.015
   21  0.000  0.000  0.020  0.020
   22  0.001  0.000  0.017  0.019
   23  0.000  0.000  0.021  0.021
   24  0.003  0.000  0.020  0.024
   25  0.001  0.001  0.020  0.021
   26  0.000  0.000  0.029  0.030
   27  0.001  0.000  0.017  0.017
   28  0.000  0.000  0.014  0.014
   29  0.001  0.000  0.004  0.006
   30  0.000  0.000  0.004  0.004
   31  0.002  0.000  0.004  0.006
   32  0.003  0.000  0.004  0.008
   33  0.000  0.000  0.004  0.005
   34  0.003  0.000  0.004  0.008
   35  0.000  0.000  0.005  0.005
   36  0.000  0.000  0.001  0.001
   37  0.000  0.000  0.000  0.000
tot    0.088  0.011  0.726  0.825
 
band    14 # energy   -5.06759841 # occ.  2.00000000
 
ion      s      p      d    tot
    1  0.000  0.001  0.013  0.013
    2  0.001  0.000  0.006  0.007
    3  0.000  0.000  0.010  0.011
    4  0.001  0.000  0.005  0.007
    5  0.000  0.000  0.006  0.006
    6  0.003  0.001  0.006  0.010
    7  0.001  0.001  0.010  0.012
    8  0.003  0.001  0.006  0.011
    9  0.000  0.000  0.008  0.008
   10  0.000  0.001  0.071  0.072
   11  0.001  0.000  0.040  0.041
   12  0.016  0.000  0.039  0.055
   13  0.000  0.000  0.035  0.036
   14  0.000  0.001  0.013  0.014
   15  0.013  0.000  0.026  0.039
   16  0.019  0.000  0.032  0.052
   17  0.011  0.000  0.043  0.054
   18  0.000  0.000  0.121  0.121
   19  0.001  0.000  0.022  0.024
   20  0.000  0.000  0.023  0.023
   21  0.001  0.000  0.016  0.017
   22  0.002  0.000  0.019  0.021
   23  0.001  0.001  0.015  0.016
   24  0.000  0.000  0.016  0.016
   25  0.000  0.000  0.034  0.034
   26  0.001  0.000  0.024  0.025
   27  0.003  0.000  0.020  0.023
   28  0.000  0.000  0.014  0.014
   29  0.002  0.000  0.004  0.006
   30  0.003  0.000  0.004  0.008
   31  0.001  0.000  0.004  0.006
   32  0.000  0.000  0.004  0.004
   33  0.003  0.000  0.004  0.008
   34  0.000  0.000  0.004  0.005
   35  0.000  0.000  0.005  0.005
   36  0.000  0.000  0.001  0.001
   37  0.000  0.000  0.000  0.000
tot    0.088  0.011  0.726  0.825
 
band    15 # energy   -5.05904777 # occ.  2.00000000
 
ion      s      p      d    tot
    1  0.000  0.000  0.005  0.005
    2  0.002  0.000  0.006  0.009
    3  0.000  0.000  0.009  0.009
    4  0.002  0.000  0.006  0.009
    5  0.000  0.000  0.008  0.008
    6  0.002  0.000  0.005  0.008
    7  0.000  0.000  0.008  0.009
    8  0.002  0.000  0.005  0.008
    9  0.000  0.000  0.016  0.016
   10  0.001  0.000  0.029  0.031
   11  0.002  0.000  0.055  0.057
   12  0.000  0.000  0.022  0.023
   13  0.002  0.000  0.053  0.055
   14  0.007  0.000  0.006  0.014
   15  0.000  0.000  0.032  0.032
   16  0.000  0.000  0.022  0.022
   17  0.001  0.000  0.032  0.033
   18  0.002  0.000  0.037  0.039
   19  0.002  0.000  0.064  0.066
   20  0.000  0.000  0.053  0.054
   21  0.000  0.000  0.026  0.026
   22  0.002  0.000  0.054  0.057
   23  0.000  0.000  0.025  0.025
   24  0.009  0.000  0.026  0.036
   25  0.007  0.000  0.007  0.014
   26  0.002  0.000  0.062  0.064
   27  0.002  0.000  0.055  0.058
   28  0.000  0.000  0.004  0.004
   29  0.000  0.000  0.008  0.009
   30  0.002  0.000  0.003  0.005
   31  0.000  0.000  0.008  0.009
   32  0.000  0.000  0.009  0.010
   33  0.002  0.000  0.003  0.005
   34  0.000  0.000  0.008  0.009
   35  0.000  0.000  0.012  0.012
   36  0.000  0.000  0.001  0.001
   37  0.000  0.000  0.000  0.000
tot    0.053  0.007  0.786  0.847
 
band    16 # energy   -5.05900911 # occ.  2.00000000
 
ion      s      p      d    tot
    1  0.000  0.000  0.005  0.005
    2  0.001  0.000  0.007  0.008
    3  0.003  0.000  0.005  0.008
    4  0.001  0.000  0.007  0.008
    5  0.000  0.000  0.008  0.008
    6  0.001  0.000  0.008  0.009
    7  0.003  0.000  0.005  0.008
    8  0.001  0.000  0.008  0.009
    9  0.000  0.000  0.016  0.016
   10  0.000  0.000  0.020  0.020
   11  0.005  0.000  0.022  0.027
   12  0.001  0.000  0.027  0.028
   13  0.005  0.000  0.023  0.029
   14  0.000  0.000  0.070  0.070
   15  0.001  0.000  0.035  0.037
   16  0.001  0.000  0.027  0.028
   17  0.001  0.000  0.035  0.037
   18  0.000  0.000  0.030  0.031
   19  0.005  0.000  0.025  0.030
   20  0.000  0.000  0.016  0.016
   21  0.000  0.000  0.044  0.044
   22  0.007  0.000  0.036  0.043
   23  0.000  0.000  0.045  0.045
   24  0.000  0.000  0.064  0.065
   25  0.000  0.000  0.082  0.082
   26  0.005  0.000  0.026  0.032
   27  0.007  0.000  0.035  0.043
   28  0.000  0.000  0.004  0.004
   29  0.001  0.001  0.005  0.007
   30  0.000  0.000  0.010  0.011
   31  0.001  0.001  0.005  0.006
   32  0.001  0.000  0.004  0.006
   33  0.000  0.000  0.010  0.011
   34  0.001  0.000  0.004  0.006
   35  0.000  0.000  0.012  0.012
   36  0.000  0.000  0.001  0.001
   37  0.000  0.000  0.000  0.000
tot    0.053  0.007  0.786  0.847
 
band    17 # energy   -5.04667738 # occ.  2.00000000
 
ion      s      p      d    tot
    1  0.008  0.000  0.012  0.020
    2  0.004  0.000  0.014  0.018
    3  0.004  0.000  0.014  0.018
    4  0.004  0.000  0.014  0.018
    5  0.003  0.000  0.018  0.022
    6  0.004  0.000  0.014  0.018
    7  0.004  0.000  0.014  0.018
    8  0.004  0.000  0.014  0.018
    9  0.002  0.000  0.009  0.012
   10  0.001  0.000  0.011  0.012
   11  0.003  0.000  0.013  0.016
   12  0.001  0.000  0.011  0.012
   13  0.003  0.000  0.013  0.016
   14  0.003  0.000  0.013  0.016
   15  0.001  0.000  0.010  0.011
   16  0.001  0.000  0.011  0.012
   17  0.001  0.000  0.010  0.011
   18  0.001  0.000  0.010  0.011
   19  0.002  0.000  0.019  0.021
   20  0.000  0.001  0.016  0.016
   21  0.000  0.001  0.016  0.016
   22  0.001  0.001  0.018  0.019
   23  0.000  0.001  0.016  0.016
   24  0.001  0.001  0.018  0.019
   25  0.002  0.000  0.019  0.021
   26  0.002  0.000  0.019  0.021
   27  0.001  0.001  0.018  0.019
   28  0.012  0.000  0.037  0.049
   29  0.012  0.000  0.027  0.039
   30  0.012  0.000  0.027  0.039
   31  0.012  0.000  0.027  0.039
   32  0.012  0.000  0.027  0.039
   33  0.012  0.000  0.027  0.039
   34  0.012  0.000  0.027  0.039
   35  0.011  0.000  0.023  0.035
   36  0.010  0.001  0.005  0.016
   37  0.001  0.000  0.000  0.001
tot    0.171  0.008  0.607  0.786
 
band    18 # energy   -4.93193545 # occ.  2.00000000
 
ion      s      p      d    tot
    1  0.000  0.000  0.000  0.001
    2  0.000  0.000  0.004  0.005
    3  0.000  0.000  0.004  0.005
    4  0.000  0.000  0.004  0.005
    5  0.001  0.000  0.016  0.017
    6  0.000  0.000  0.004  0.005
    7  0.000  0.000  0.004  0.005
    8  0.000  0.000  0.004  0.005
    9  0.001  0.001  0.006  0.008
   10  0.000  0.000  0.013  0.013
   11  0.000  0.001  0.077  0.078
   12  0.000  0.000  0.012  0.013
   13  0.000  0.001  0.077  0.078
   14  0.000  0.001  0.077  0.078
   15  0.000  0.001  0.037  0.038
   16  0.000  0.000  0.012  0.013
   17  0.000  0.001  0.037  0.038
   18  0.000  0.001  0.037  0.038
   19  0.000  0.000  0.020  0.020
   20  0.001  0.000  0.072  0.074
   21  0.001  0.000  0.072  0.073
   22  0.002  0.000  0.020  0.023
   23  0.001  0.000  0.072  0.073
   24  0.002  0.000  0.020  0.023
   25  0.000  0.000  0.020  0.020
   26  0.000  0.000  0.020  0.020
   27  0.002  0.000  0.020  0.023
   28  0.004  0.001  0.001  0.006
   29  0.000  0.000  0.011  0.012
   30  0.000  0.000  0.011  0.012
   31  0.000  0.000  0.011  0.012
   32  0.000  0.000  0.011  0.012
   33  0.000  0.000  0.011  0.012
   34  0.000  0.000  0.011  0.012
   35  0.002  0.000  0.001  0.003
   36  0.001  0.001  0.002  0.004
   37  0.000  0.000  0.000  0.001
tot    0.022  0.014  0.835  0.871
 
band    19 # energy   -4.92379036 # occ.  2.00000000
 
ion      s      p      d    tot
    1  0.000  0.000  0.001  0.001
    2  0.000  0.000  0.007  0.007
    3  0.001  0.000  0.005  0.006
    4  0.000  0.000  0.007  0.007
    5  0.000  0.001  0.015  0.015
    6  0.000  0.000  0.008  0.009
    7  0.001  0.001  0.005  0.006
    8  0.000  0.000  0.008  0.008
    9  0.000  0.000  0.009  0.009
   10  0.000  0.000  0.030  0.031
   11  0.001  0.000  0.054  0.056
   12  0.000  0.001  0.023  0.025
   13  0.001  0.000  0.056  0.058
   14  0.000  0.000  0.088  0.088
   15  0.002  0.001  0.026  0.029
   16  0.000  0.001  0.023  0.024
   17  0.002  0.001  0.025  0.028
   18  0.000  0.000  0.007  0.007
   19  0.002  0.001  0.025  0.027
   20  0.000  0.000  0.105  0.106
   21  0.002  0.000  0.070  0.072
   22  0.000  0.001  0.023  0.024
   23  0.003  0.000  0.068  0.070
   24  0.000  0.000  0.030  0.030
   25  0.000  0.000  0.004  0.004
   26  0.002  0.001  0.024  0.026
   27  0.000  0.001  0.023  0.024
   28  0.000  0.000  0.008  0.008
   29  0.001  0.001  0.008  0.010
   30  0.002  0.001  0.006  0.009
   31  0.001  0.001  0.009  0.010
   32  0.000  0.000  0.007  0.007
   33  0.002  0.001  0.006  0.008
   34  0.000  0.000  0.007  0.007
   35  0.000  0.000  0.001  0.001
   36  0.000  0.002  0.004  0.006
   37  0.000  0.000  0.000  0.000
tot    0.026  0.017  0.823  0.865
 
band    20 # energy   -4.92377796 # occ.  2.00000000
 
ion      s      p      d    tot
    1  0.000  0.000  0.001  0.001
    2  0.001  0.001  0.006  0.008
    3  0.000  0.000  0.008  0.008
    4  0.001  0.001  0.006  0.007
    5  0.000  0.001  0.015  0.015
    6  0.001  0.000  0.005  0.006
    7  0.000  0.000  0.008  0.008
    8  0.001  0.000  0.005  0.006
    9  0.000  0.000  0.009  0.009
   10  0.001  0.001  0.021  0.023
   11  0.000  0.000  0.078  0.079
   12  0.000  0.000  0.028  0.028
   13  0.000  0.000  0.076  0.077
   14  0.002  0.000  0.044  0.046
   15  0.001  0.000  0.013  0.013
   16  0.000  0.000  0.028  0.029
   17  0.001  0.000  0.014  0.015
   18  0.002  0.001  0.032  0.035
   19  0.001  0.000  0.010  0.011
   20  0.003  0.000  0.057  0.060
   21  0.001  0.000  0.092  0.093
   22  0.000  0.000  0.027  0.028
   23  0.001  0.000  0.094  0.095
   24  0.000  0.001  0.021  0.022
   25  0.002  0.001  0.031  0.034
   26  0.001  0.000  0.011  0.012
   27  0.000  0.000  0.028  0.028
   28  0.000  0.000  0.008  0.008
   29  0.001  0.000  0.006  0.007
   30  0.000  0.000  0.008  0.009
   31  0.001  0.000  0.006  0.007
   32  0.002  0.001  0.007  0.010
   33  0.000  0.000  0.008  0.009
   34  0.002  0.001  0.007  0.010
   35  0.000  0.000  0.001  0.001
   36  0.000  0.002  0.004  0.006
   37  0.000  0.000  0.000  0.000
tot    0.026  0.017  0.823  0.865
 
band    21 # energy   -4.89948247 # occ.  2.00000000
 
ion      s      p      d    tot
    1  0.001  0.000  0.005  0.005
    2  0.000  0.001  0.012  0.012
    3  0.000  0.001  0.012  0.012
    4  0.000  0.001  0.012  0.012
    5  0.005  0.001  0.000  0.005
    6  0.000  0.001  0.012  0.012
    7  0.000  0.001  0.012  0.012
    8  0.000  0.001  0.012  0.012
    9  0.002  0.000  0.003  0.005
   10  0.002  0.001  0.050  0.053
   11  0.000  0.000  0.022  0.022
   12  0.002  0.001  0.050  0.053
   13  0.000  0.000  0.022  0.022
   14  0.000  0.000  0.022  0.022
   15  0.003  0.000  0.026  0.029
   16  0.002  0.001  0.050  0.053
   17  0.003  0.000  0.026  0.029
   18  0.003  0.000  0.026  0.029
   19  0.001  0.000  0.053  0.054
   20  0.001  0.000  0.016  0.017
   21  0.001  0.000  0.016  0.017
   22  0.000  0.001  0.046  0.047
   23  0.001  0.000  0.016  0.017
   24  0.000  0.001  0.046  0.047
   25  0.001  0.000  0.053  0.054
   26  0.001  0.000  0.053  0.054
   27  0.000  0.001  0.046  0.047
   28  0.001  0.000  0.015  0.015
   29  0.000  0.000  0.011  0.012
   30  0.000  0.000  0.011  0.012
   31  0.000  0.000  0.011  0.012
   32  0.000  0.000  0.011  0.012
   33  0.000  0.000  0.011  0.012
   34  0.000  0.000  0.011  0.012
   35  0.003  0.001  0.004  0.007
   36  0.003  0.001  0.000  0.005