PROCAR new format
# of k-points:   10         # of bands:  252         # of ions:   38

 k-point     1 :    0.00000000 0.00000000 0.00000000     weight = 0.01562500

band     1 # energy  -17.51812495 # occ.  2.00000000
 
ion      s      p      d    tot
    1  0.000  0.000  0.000  0.000
    2  0.000  0.000  0.000  0.000
    3  0.000  0.000  0.000  0.000
    4  0.000  0.000  0.000  0.000
    5  0.000  0.000  0.000  0.000
    6  0.000  0.000  0.000  0.000
    7  0.000  0.000  0.000  0.000
    8  0.000  0.000  0.000  0.000
    9  0.000  0.000  0.000  0.000
   10  0.000  0.000  0.000  0.000
   11  0.000  0.000  0.000  0.000
   12  0.000  0.000  0.000  0.000
   13  0.000  0.000  0.000  0.000
   14  0.000  0.000  0.000  0.000
   15  0.000  0.000  0.000  0.000
   16  0.000  0.000  0.000  0.000
   17  0.000  0.000  0.000  0.000
   18  0.000  0.000  0.000  0.000
   19  0.000  0.000  0.000  0.000
   20  0.000  0.000  0.000  0.000
   21  0.000  0.000  0.000  0.000
   22  0.000  0.000  0.000  0.000
   23  0.000  0.000  0.000  0.000
   24  0.000  0.000  0.000  0.000
   25  0.000  0.000  0.000  0.000
   26  0.000  0.000  0.000  0.000
   27  0.000  0.000  0.000  0.000
   28  0.000  0.000  0.000  0.000
   29  0.000  0.000  0.000  0.000
   30  0.000  0.000  0.000  0.000
   31  0.000  0.000  0.000  0.000
   32  0.000  0.000  0.000  0.000
   33  0.000  0.000  0.000  0.000
   34  0.000  0.000  0.000  0.000
   35  0.000  0.000  0.000  0.000
   36  0.008  0.009  0.014  0.031
   37  0.734  0.016  0.000  0.750
   38  0.118  0.024  0.000  0.142
tot    0.861  0.048  0.014  0.924
 
band     2 # energy   -8.01771248 # occ.  2.00000000
 
ion      s      p      d    tot
    1  0.007  0.001  0.000  0.007
    2  0.006  0.001  0.000  0.007
    3  0.006  0.001  0.000  0.007
    4  0.006  0.001  0.000  0.007
    5  0.006  0.001  0.000  0.007
    6  0.006  0.001  0.000  0.007
    7  0.006  0.001  0.000  0.007
    8  0.006  0.001  0.000  0.007
    9  0.006  0.001  0.000  0.007
   10  0.027  0.000  0.000  0.027
   11  0.026  0.000  0.000  0.027
   12  0.027  0.000  0.000  0.027
   13  0.026  0.000  0.000  0.027
   14  0.026  0.000  0.000  0.027
   15  0.026  0.000  0.000  0.026
   16  0.027  0.000  0.000  0.027
   17  0.026  0.000  0.000  0.026
   18  0.026  0.000  0.000  0.026
   19  0.024  0.000  0.000  0.024
   20  0.025  0.000  0.000  0.026
   21  0.025  0.000  0.000  0.026
   22  0.024  0.000  0.000  0.024
   23  0.025  0.000  0.000  0.026
   24  0.024  0.000  0.000  0.024
   25  0.024  0.000  0.000  0.024
   26  0.024  0.000  0.000  0.024
   27  0.024  0.000  0.000  0.024
   28  0.005  0.000  0.000  0.005
   29  0.005  0.000  0.000  0.006
   30  0.005  0.000  0.000  0.006
   31  0.005  0.000  0.000  0.006
   32  0.005  0.000  0.000  0.006
   33  0.005  0.000  0.000  0.006
   34  0.005  0.000  0.000  0.006
   35  0.005  0.000  0.000  0.005
   36  0.010  0.000  0.001  0.011
   37  0.000  0.004  0.000  0.004
   38  0.001  0.000  0.000  0.002
tot    0.566  0.015  0.004  0.584
 
band     3 # energy   -6.93545817 # occ.  2.00000000
 
ion      s      p      d    tot
    1  0.012  0.000  0.001  0.013
    2  0.012  0.000  0.001  0.013
    3  0.012  0.000  0.001  0.013
    4  0.012  0.000  0.001  0.013
    5  0.012  0.000  0.001  0.013
    6  0.012  0.000  0.001  0.013
    7  0.012  0.000  0.001  0.013
    8  0.012  0.000  0.001  0.013
    9  0.013  0.000  0.001  0.014
   10  0.009  0.001  0.002  0.012
   11  0.009  0.001  0.002  0.012
   12  0.009  0.001  0.002  0.012
   13  0.009  0.001  0.002  0.012
   14  0.009  0.001  0.002  0.012
   15  0.011  0.001  0.002  0.013
   16  0.009  0.001  0.002  0.012
   17  0.011  0.001  0.002  0.013
   18  0.011  0.001  0.002  0.013
   19  0.007  0.001  0.002  0.009
   20  0.012  0.002  0.003  0.017
   21  0.012  0.002  0.003  0.017
   22  0.006  0.001  0.002  0.009
   23  0.012  0.002  0.003  0.017
   24  0.006  0.001  0.002  0.009
   25  0.007  0.001  0.002  0.009
   26  0.007  0.001  0.002  0.009
   27  0.006  0.001  0.002  0.009
   28  0.009  0.000  0.001  0.010
   29  0.011  0.000  0.001  0.012
   30  0.011  0.000  0.001  0.013
   31  0.011  0.000  0.001  0.013
   32  0.011  0.000  0.001  0.012
   33  0.011  0.000  0.001  0.013
   34  0.011  0.000  0.001  0.012
   35  0.009  0.000  0.001  0.010
   36  0.061  0.002  0.026  0.089
   37  0.002  0.114  0.000  0.117
   38  0.040  0.004  0.000  0.044
tot    0.459  0.145  0.075  0.679
 
band     4 # energy   -6.55946585 # occ.  2.00000000
 
ion      s      p      d    tot
    1  0.006  0.000  0.000  0.007
    2  0.005  0.000  0.001  0.006
    3  0.005  0.000  0.001  0.006
    4  0.005  0.000  0.001  0.006
    5  0.005  0.000  0.001  0.006
    6  0.005  0.000  0.001  0.006
    7  0.005  0.000  0.001  0.006
    8  0.005  0.000  0.001  0.006
    9  0.004  0.000  0.001  0.004
   10  0.002  0.001  0.001  0.003
   11  0.002  0.001  0.001  0.003
   12  0.002  0.001  0.001  0.003
   13  0.002  0.001  0.001  0.003
   14  0.002  0.001  0.001  0.003
   15  0.000  0.001  0.001  0.002
   16  0.002  0.001  0.001  0.003
   17  0.000  0.001  0.001  0.002
   18  0.000  0.001  0.001  0.002
   19  0.010  0.000  0.003  0.013
   20  0.001  0.001  0.008  0.010
   21  0.001  0.001  0.008  0.010
   22  0.013  0.000  0.002  0.015
   23  0.001  0.001  0.008  0.010
   24  0.013  0.000  0.002  0.015
   25  0.010  0.000  0.003  0.013
   26  0.010  0.000  0.003  0.013
   27  0.013  0.000  0.002  0.015
   28  0.006  0.000  0.000  0.007
   29  0.003  0.001  0.001  0.004
   30  0.003  0.001  0.001  0.004
   31  0.003  0.001  0.001  0.004
   32  0.003  0.001  0.001  0.004
   33  0.003  0.001  0.001  0.004
   34  0.003  0.001  0.001  0.004
   35  0.007  0.000  0.000  0.008
   36  0.037  0.016  0.115  0.168
   37  0.011  0.304  0.000  0.315
   38  0.103  0.011  0.000  0.114
tot    0.307  0.344  0.172  0.824
 
band     5 # energy   -5.88830745 # occ.  2.00000000
 
ion      s      p      d    tot
    1  0.017  0.000  0.023  0.040
    2  0.021  0.000  0.020  0.041
    3  0.021  0.000  0.020  0.041
    4  0.021  0.000  0.020  0.041
    5  0.017  0.000  0.019  0.036
    6  0.021  0.000  0.020  0.041
    7  0.021  0.000  0.020  0.041
    8  0.021  0.000  0.020  0.041
    9  0.030  0.000  0.017  0.047
   10  0.011  0.001  0.021  0.032
   11  0.012  0.001  0.020  0.032
   12  0.011  0.001  0.021  0.032
   13  0.012  0.001  0.020  0.032
   14  0.012  0.001  0.020  0.032
   15  0.002  0.001  0.024  0.026
   16  0.011  0.001  0.021  0.032
   17  0.002  0.001  0.024  0.026
   18  0.002  0.001  0.024  0.026
   19  0.000  0.001  0.002  0.002
   20  0.001  0.001  0.002  0.004
   21  0.001  0.001  0.002  0.004
   22  0.001  0.001  0.001  0.002
   23  0.001  0.001  0.002  0.004
   24  0.001  0.001  0.001  0.002
   25  0.000  0.001  0.002  0.002
   26  0.000  0.001  0.002  0.002
   27  0.001  0.001  0.001  0.002
   28  0.005  0.000  0.001  0.006
   29  0.003  0.000  0.001  0.005
   30  0.003  0.000  0.001  0.005
   31  0.003  0.000  0.001  0.005
   32  0.003  0.000  0.001  0.005
   33  0.003  0.000  0.001  0.005
   34  0.003  0.000  0.001  0.005
   35  0.006  0.000  0.001  0.007
   36  0.001  0.000  0.002  0.003
   37  0.000  0.000  0.000  0.000
   38  0.000  0.000  0.000  0.000
tot    0.300  0.015  0.396  0.710
 
band     6 # energy   -5.84623906 # occ.  2.00000000
 
ion      s      p      d    tot
    1  0.000  0.001  0.010  0.011
    2  0.005  0.001  0.003  0.009
    3  0.000  0.000  0.003  0.004
    4  0.005  0.001  0.003  0.009
    5  0.000  0.001  0.006  0.007
    6  0.007  0.001  0.004  0.012
    7  0.000  0.000  0.003  0.004
    8  0.006  0.001  0.004  0.012
    9  0.000  0.000  0.002  0.002
   10  0.049  0.002  0.004  0.055
   11  0.011  0.003  0.016  0.031
   12  0.013  0.001  0.034  0.047
   13  0.012  0.003  0.016  0.031
   14  0.046  0.001  0.014  0.060
   15  0.000  0.002  0.010  0.013
   16  0.012  0.001  0.035  0.047
   17  0.000  0.002  0.010  0.013
   18  0.000  0.001  0.012  0.013
   19  0.004  0.003  0.008  0.015
   20  0.056  0.002  0.006  0.064
   21  0.014  0.001  0.027  0.043
   22  0.002  0.001  0.017  0.020
   23  0.013  0.001  0.027  0.042
   24  0.009  0.001  0.006  0.017
   25  0.018  0.000  0.014  0.032
   26  0.005  0.003  0.008  0.015
   27  0.002  0.001  0.017  0.020
   28  0.000  0.000  0.002  0.002
   29  0.005  0.001  0.003  0.008
   30  0.003  0.001  0.003  0.006
   31  0.005  0.001  0.003  0.008
   32  0.000  0.000  0.002  0.003
   33  0.002  0.001  0.003  0.006
   34  0.000  0.000  0.002  0.003
   35  0.000  0.000  0.003  0.003
   36  0.000  0.002  0.008  0.009
   37  0.000  0.000  0.000  0.000
   38  0.000  0.000  0.000  0.000
tot    0.305  0.043  0.346  0.694
 
band     7 # energy   -5.84622830 # occ.  2.00000000
 
ion      s      p      d    tot
    1  0.000  0.001  0.010  0.011
    2  0.003  0.001  0.004  0.007
    3  0.008  0.001  0.004  0.013
    4  0.003  0.001  0.004  0.007
    5  0.000  0.001  0.006  0.007
    6  0.001  0.000  0.003  0.005
    7  0.008  0.001  0.004  0.013
    8  0.001  0.000  0.003  0.005
    9  0.000  0.000  0.002  0.002
   10  0.000  0.000  0.044  0.044
   11  0.035  0.001  0.014  0.051
   12  0.036  0.002  0.014  0.052
   13  0.034  0.001  0.015  0.050
   14  0.000  0.004  0.017  0.021
   15  0.000  0.001  0.012  0.013
   16  0.037  0.002  0.013  0.052
   17  0.000  0.001  0.012  0.013
   18  0.000  0.003  0.010  0.013
   19  0.013  0.001  0.012  0.026
   20  0.000  0.001  0.034  0.035
   21  0.041  0.002  0.014  0.056
   22  0.007  0.001  0.010  0.018
   23  0.042  0.002  0.013  0.057
   24  0.000  0.001  0.021  0.021
   25  0.000  0.004  0.006  0.010
   26  0.013  0.001  0.012  0.026
   27  0.007  0.001  0.010  0.018
   28  0.000  0.000  0.002  0.002
   29  0.000  0.000  0.002  0.003
   30  0.003  0.001  0.002  0.005
   31  0.000  0.000  0.002  0.003
   32  0.005  0.001  0.003  0.008
   33  0.003  0.001  0.002  0.006
   34  0.005  0.001  0.003  0.008
   35  0.000  0.000  0.003  0.003
   36  0.000  0.002  0.008  0.009
   37  0.000  0.000  0.000  0.000
   38  0.000  0.000  0.000  0.000
tot    0.305  0.043  0.346  0.694
 
band     8 # energy   -5.83243402 # occ.  2.00000000
 
ion      s      p      d    tot
    1  0.017  0.002  0.001  0.020
    2  0.000  0.001  0.006  0.007
    3  0.000  0.001  0.006  0.007
    4  0.000  0.001  0.006  0.007
    5  0.006  0.001  0.003  0.010
    6  0.000  0.001  0.006  0.006
    7  0.000  0.001  0.006  0.007
    8  0.000  0.001  0.006  0.006
    9  0.001  0.000  0.000  0.001
   10  0.028  0.003  0.008  0.039
   11  0.014  0.000  0.028  0.042
   12  0.024  0.003  0.009  0.036
   13  0.014  0.000  0.028  0.042
   14  0.012  0.000  0.026  0.037
   15  0.005  0.002  0.014  0.022
   16  0.024  0.003  0.009  0.036
   17  0.005  0.002  0.014  0.021
   18  0.009  0.002  0.014  0.026
   19  0.028  0.003  0.002  0.033
   20  0.000  0.001  0.022  0.024
   21  0.000  0.001  0.019  0.020
   22  0.014  0.000  0.022  0.036
   23  0.000  0.001  0.019  0.020
   24  0.010  0.000  0.023  0.033
   25  0.022  0.003  0.003  0.028
   26  0.028  0.003  0.002  0.033
   27  0.014  0.000  0.022  0.036
   28  0.003  0.001  0.002  0.006
   29  0.001  0.000  0.005  0.006
   30  0.001  0.000  0.004  0.006
   31  0.001  0.000  0.005  0.006
   32  0.001  0.000  0.004  0.005
   33  0.001  0.000  0.004  0.006
   34  0.001  0.000  0.004  0.005
   35  0.014  0.001  0.000  0.015
   36  0.001  0.001  0.000  0.002
   37  0.000  0.003  0.000  0.003
   38  0.001  0.000  0.000  0.001
tot    0.301  0.044  0.351  0.696
 
band     9 # energy   -5.83168730 # occ.  2.00000000
 
ion      s      p      d    tot
    1  0.000  0.001  0.002  0.003
    2  0.002  0.001  0.004  0.007
    3  0.008  0.001  0.003  0.013
    4  0.004  0.001  0.004  0.009
    5  0.000  0.000  0.006  0.006
    6  0.002  0.001  0.003  0.006
    7  0.008  0.001  0.004  0.013
    8  0.001  0.000  0.003  0.005
    9  0.000  0.001  0.010  0.012
   10  0.013  0.000  0.017  0.030
   11  0.004  0.001  0.022  0.027
   12  0.004  0.004  0.005  0.012
   13  0.002  0.001  0.026  0.029
   14  0.018  0.002  0.008  0.027
   15  0.023  0.002  0.028  0.053
   16  0.007  0.003  0.007  0.017
   17  0.012  0.002  0.033  0.047
   18  0.061  0.002  0.007  0.069
   19  0.009  0.001  0.024  0.034
   20  0.000  0.000  0.011  0.012
   21  0.000  0.003  0.008  0.010
   22  0.006  0.003  0.019  0.029
   23  0.000  0.002  0.009  0.012
   24  0.046  0.001  0.010  0.057
   25  0.038  0.002  0.003  0.043
   26  0.004  0.000  0.029  0.034
   27  0.013  0.002  0.018  0.033
   28  0.000  0.000  0.006  0.006
   29  0.001  0.000  0.002  0.003
   30  0.003  0.001  0.002  0.005
   31  0.000  0.000  0.002  0.002
   32  0.005  0.001  0.003  0.009
   33  0.002  0.000  0.002  0.004
   34  0.005  0.001  0.003  0.009
   35  0.000  0.001  0.005  0.006
   36  0.000  0.000  0.000  0.001
   37  0.000  0.000  0.000  0.000
   38  0.000  0.000  0.000  0.000
tot    0.301  0.042  0.350  0.693
 
band    10 # energy   -5.83168416 # occ.  2.00000000
 
ion      s      p      d    tot
    1  0.000  0.001  0.002  0.003
    2  0.006  0.001  0.003  0.010
    3  0.000  0.000  0.004  0.004
    4  0.004  0.001  0.003  0.008
    5  0.000  0.000  0.006  0.006
    6  0.006  0.001  0.004  0.012
    7  0.000  0.000  0.003  0.004
    8  0.008  0.001  0.004  0.013
    9  0.000  0.001  0.010  0.012
   10  0.000  0.005  0.002  0.007
   11  0.011  0.001  0.014  0.027
   12  0.013  0.001  0.014  0.029
   13  0.013  0.001  0.010  0.025
   14  0.000  0.001  0.031  0.032
   15  0.042  0.002  0.018  0.062
   16  0.010  0.002  0.012  0.024
   17  0.053  0.001  0.013  0.067
   18  0.001  0.002  0.038  0.041
   19  0.023  0.001  0.014  0.038
   20  0.000  0.003  0.006  0.009
   21  0.000  0.001  0.012  0.013
   22  0.036  0.001  0.013  0.050
   23  0.000  0.001  0.010  0.012
   24  0.000  0.003  0.021  0.024
   25  0.000  0.000  0.035  0.035
   26  0.028  0.002  0.009  0.039
   27  0.029  0.002  0.014  0.045
   28  0.000  0.000  0.006  0.006
   29  0.004  0.001  0.002  0.007
   30  0.002  0.001  0.003  0.006
   31  0.005  0.001  0.002  0.008
   32  0.000  0.000  0.002  0.002
   33  0.003  0.001  0.003  0.007
   34  0.000  0.000  0.002  0.002
   35  0.000  0.001  0.005  0.006
   36  0.000  0.000  0.000  0.001
   37  0.000  0.000  0.000  0.000
   38  0.000  0.000  0.000  0.000
tot    0.301  0.042  0.350  0.693
 
band    11 # energy   -5.81026864 # occ.  2.00000000
 
ion      s      p      d    tot
    1  0.001  0.000  0.000  0.001
    2  0.001  0.001  0.006  0.007
    3  0.001  0.001  0.006  0.007
    4  0.001  0.001  0.006  0.007
    5  0.014  0.001  0.000  0.015
    6  0.001  0.001  0.006  0.007
    7  0.001  0.001  0.006  0.007
    8  0.001  0.001  0.006  0.007
    9  0.007  0.002  0.006  0.015
   10  0.001  0.001  0.026  0.028
   11  0.013  0.003  0.009  0.025
   12  0.001  0.001  0.026  0.028
   13  0.013  0.003  0.009  0.025
   14  0.013  0.003  0.009  0.025
   15  0.029  0.001  0.019  0.048
   16  0.001  0.001  0.026  0.028
   17  0.029  0.001  0.019  0.048
   18  0.028  0.001  0.019  0.048
   19  0.002  0.000  0.027  0.029
   20  0.030  0.002  0.004  0.035
   21  0.030  0.002  0.004  0.036
   22  0.000  0.002  0.018  0.020
   23  0.030  0.002  0.004  0.036
   24  0.000  0.002  0.018  0.020
   25  0.002  0.000  0.027  0.029
   26  0.002  0.000  0.027  0.029
   27  0.000  0.002  0.018  0.020
   28  0.011  0.000  0.000  0.011
   29  0.002  0.000  0.005  0.007
   30  0.002  0.000  0.005  0.007
   31  0.002  0.000  0.005  0.007
   32  0.002  0.000  0.005  0.007
   33  0.002  0.000  0.005  0.007
   34  0.002  0.000  0.005  0.007
   35  0.003  0.000  0.003  0.007
   36  0.000  0.005  0.000  0.005
   37  0.001  0.011  0.000  0.012
   38  0.004  0.000  0.000  0.004
tot    0.280  0.048  0.386  0.714
 
band    12 # energy   -5.76358157 # occ.  2.00000000
 
ion      s      p      d    tot
    1  0.003  0.000  0.000  0.003
    2  0.000  0.000  0.001  0.002
    3  0.000  0.000  0.001  0.002
    4  0.000  0.000  0.001  0.002
    5  0.001  0.000  0.000  0.001
    6  0.000  0.000  0.001  0.002
    7  0.000  0.000  0.001  0.002
    8  0.000  0.000  0.001  0.002
    9  0.003  0.000  0.000  0.003
   10  0.003  0.000  0.009  0.013
   11  0.002  0.001  0.005  0.008
   12  0.003  0.000  0.009  0.013
   13  0.002  0.001  0.005  0.008
   14  0.002  0.001  0.005  0.008
   15  0.006  0.001  0.006  0.012
   16  0.003  0.000  0.009  0.013
   17  0.006  0.001  0.006  0.012
   18  0.006  0.001  0.006  0.012
   19  0.004  0.001  0.020  0.025
   20  0.000  0.000  0.027  0.028
   21  0.000  0.000  0.027  0.028
   22  0.015  0.002  0.017  0.033
   23  0.000  0.000  0.027  0.028
   24  0.015  0.002  0.017  0.033
   25  0.004  0.001  0.020  0.025
   26  0.004  0.001  0.020  0.025
   27  0.015  0.002  0.017  0.033
   28  0.021  0.000  0.020  0.040
   29  0.020  0.000  0.017  0.036
   30  0.020  0.000  0.017  0.036
   31  0.020  0.000  0.017  0.036
   32  0.020  0.000  0.017  0.036
   33  0.020  0.000  0.017  0.036
   34  0.020  0.000  0.017  0.036
   35  0.015  0.000  0.019  0.034
   36  0.013  0.001  0.035  0.048
   37  0.001  0.010  0.000  0.011
   38  0.003  0.000  0.000  0.003
tot    0.272  0.027  0.434  0.733
 
band    13 # energy   -5.35407649 # occ.  2.00000000
 
ion      s      p      d    tot
    1  0.018  0.002  0.002  0.022
    2  0.000  0.001  0.009  0.009
    3  0.000  0.001  0.008  0.009
    4  0.000  0.001  0.009  0.009
    5  0.001  0.000  0.002  0.003
    6  0.000  0.001  0.008  0.009
    7  0.000  0.001  0.008  0.009
    8  0.000  0.001  0.008  0.009
    9  0.012  0.001  0.000  0.013
   10  0.008  0.002  0.010  0.020
   11  0.006  0.000  0.033  0.039
   12  0.008  0.002  0.010  0.020
   13  0.006  0.000  0.033  0.039
   14  0.005  0.000  0.034  0.039
   15  0.000  0.001  0.035  0.037
   16  0.008  0.002  0.010  0.020
   17  0.000  0.001  0.035  0.037
   18  0.001  0.001  0.038  0.039
   19  0.008  0.001  0.007  0.017
   20  0.000  0.000  0.041  0.041
   21  0.000  0.000  0.040  0.040
   22  0.012  0.001  0.028  0.041
   23  0.000  0.000  0.040  0.040
   24  0.011  0.001  0.027  0.039
   25  0.009  0.001  0.008  0.018
   26  0.008  0.001  0.007  0.017
   27  0.012  0.001  0.028  0.041
   28  0.015  0.002  0.001  0.018
   29  0.000  0.001  0.006  0.007
   30  0.000  0.001  0.006  0.007
   31  0.000  0.001  0.006  0.007
   32  0.000  0.001  0.006  0.007
   33  0.000  0.001  0.006  0.007
   34  0.000  0.001  0.006  0.007
   35  0.006  0.001  0.003  0.010
   36  0.002  0.000  0.002  0.004
   37  0.000  0.000  0.000  0.000
   38  0.000  0.000  0.000  0.000
tot    0.157  0.031  0.560  0.748
 
band    14 # energy   -5.35263802 # occ.  2.00000000
 
ion      s      p      d    tot
    1  0.000  0.001  0.004  0.004
    2  0.009  0.001  0.004  0.015
    3  0.001  0.000  0.005  0.006
    4  0.009  0.001  0.004  0.015
    5  0.000  0.001  0.011  0.013
    6  0.004  0.001  0.005  0.010
    7  0.001  0.000  0.005  0.006
    8  0.004  0.001  0.005  0.011
    9  0.000  0.000  0.010  0.010
   10  0.008  0.002  0.010  0.020
   11  0.004  0.000  0.044  0.049
   12  0.002  0.001  0.039  0.042
   13  0.004  0.000  0.044  0.049
   14  0.019  0.001  0.010  0.030
   15  0.001  0.001  0.016  0.017
   16  0.002  0.001  0.039  0.042
   17  0.001  0.001  0.016  0.017
   18  0.002  0.000  0.023  0.025
   19  0.002  0.001  0.014  0.018
   20  0.026  0.001  0.006  0.033
   21  0.006  0.000  0.049  0.055
   22  0.001  0.001  0.033  0.035
   23  0.006  0.000  0.048  0.055
   24  0.005  0.001  0.012  0.018
   25  0.008  0.000  0.023  0.031
   26  0.002  0.001  0.014  0.017
   27  0.001  0.001  0.032  0.034
   28  0.000  0.000  0.008  0.008
   29  0.007  0.001  0.004  0.012
   30  0.000  0.000  0.004  0.004
   31  0.007  0.001  0.004  0.012
   32  0.005  0.001  0.003  0.010
   33  0.000  0.000  0.004  0.004
   34  0.006  0.001  0.003  0.010
   35  0.000  0.000  0.003  0.004
   36  0.000  0.002  0.007  0.010
   37  0.000  0.000  0.000  0.000
   38  0.000  0.000  0.000  0.000
tot    0.154  0.031  0.566  0.750
 
band    15 # energy   -5.35263197 # occ.  2.00000000
 
ion      s      p      d    tot
    1  0.000  0.001  0.004  0.004
    2  0.000  0.001  0.005  0.006
    3  0.009  0.001  0.005  0.015
    4  0.000  0.001  0.005  0.006
    5  0.000  0.001  0.011  0.013
    6  0.006  0.001  0.004  0.011
    7  0.009  0.001  0.005  0.015
    8  0.006  0.001  0.004  0.010
    9  0.000  0.000  0.010  0.010
   10  0.000  0.001  0.049  0.050
   11  0.013  0.001  0.022  0.037
   12  0.006  0.002  0.019  0.027
   13  0.014  0.001  0.022  0.036
   14  0.000  0.000  0.055  0.055
   15  0.002  0.000  0.021  0.023
   16  0.006  0.002  0.020  0.027
   17  0.002  0.000  0.021  0.023
   18  0.000  0.001  0.012  0.013
   19  0.006  0.000  0.020  0.027
   20  0.000  0.000  0.062  0.062
   21  0.019  0.001  0.020  0.040
   22  0.004  0.001  0.019  0.023
   23  0.019  0.001  0.021  0.041
   24  0.000  0.001  0.040  0.041
   25  0.000  0.001  0.011  0.012
   26  0.007  0.000  0.020  0.027
   27  0.003  0.001  0.019  0.023
   28  0.000  0.000  0.008  0.008
   29  0.002  0.000  0.003  0.005
   30  0.008  0.001  0.004  0.013
   31  0.002  0.000  0.003  0.005
   32  0.003  0.001  0.004  0.008
   33  0.008  0.001  0.004  0.013
   34  0.003  0.001  0.004  0.007
   35  0.000  0.000  0.003  0.004
   36  0.000  0.002  0.007  0.010
   37  0.000  0.000  0.000  0.000
   38  0.000  0.000  0.000  0.000
tot    0.154  0.031  0.566  0.750
 
band    16 # energy   -5.34501409 # occ.  2.00000000
 
ion      s      p      d    tot
    1  0.000  0.001  0.015  0.015
    2  0.010  0.001  0.004  0.016
    3  0.001  0.000  0.005  0.007
    4  0.010  0.001  0.004  0.016
    5  0.000  0.000  0.005  0.005
    6  0.004  0.001  0.005  0.010
    7  0.001  0.000  0.005  0.007
    8  0.004  0.001  0.005  0.010
    9  0.000  0.001  0.007  0.008
   10  0.000  0.001  0.031  0.031
   11  0.001  0.001  0.019  0.021
   12  0.007  0.000  0.023  0.030
   13  0.001  0.001  0.019  0.021
   14  0.000  0.001  0.020  0.021
   15  0.012  0.002  0.021  0.034
   16  0.007  0.000  0.023  0.030
   17  0.012  0.002  0.021  0.034
   18  0.000  0.000  0.064  0.064
   19  0.014  0.001  0.020  0.035
   20  0.000  0.002  0.016  0.018
   21  0.000  0.001  0.020  0.021
   22  0.017  0.001  0.021  0.038
   23  0.000  0.001  0.020  0.021
   24  0.000  0.000  0.033  0.034
   25  0.000  0.000  0.065  0.066
   26  0.014  0.001  0.020  0.035
   27  0.017  0.001  0.021  0.038
   28  0.000  0.001  0.005  0.006
   29  0.006  0.001  0.004  0.011
   30  0.000  0.000  0.004  0.004
   31  0.006  0.001  0.004  0.011
   32  0.005  0.001  0.003  0.008
   33  0.000  0.000  0.004  0.004
   34  0.005  0.001  0.003  0.008
   35  0.000  0.001  0.009  0.010
   36  0.000  0.000  0.003  0.003
   37  0.000  0.000  0.000  0.000
   38  0.000  0.000  0.000  0.000
tot    0.152  0.029  0.569  0.750
 
band    17 # energy   -5.34498965 # occ.  2.00000000
 
ion      s      p      d    tot
    1  0.000  0.001  0.015  0.015
    2  0.000  0.000  0.005  0.006
    3  0.009  0.001  0.005  0.015
    4  0.000  0.000  0.005  0.006
    5  0.000  0.000  0.005  0.005
    6  0.006  0.001  0.004  0.011
    7  0.009  0.001  0.005  0.015
    8  0.006  0.001  0.004  0.011
    9  0.000  0.001  0.007  0.008
   10  0.010  0.000  0.020  0.030
   11  0.000  0.001  0.020  0.021
   12  0.002  0.001  0.028  0.031
   13  0.000  0.001  0.020  0.021
   14  0.001  0.001  0.019  0.021
   15  0.004  0.001  0.049  0.054
   16  0.002  0.001  0.028  0.031
   17  0.004  0.001  0.049  0.054
   18  0.016  0.002  0.006  0.024
   19  0.005  0.001  0.050  0.055
   20  0.000  0.000  0.021  0.022
   21  0.000  0.001  0.017  0.019
   22  0.006  0.001  0.029  0.035
   23  0.000  0.001  0.017  0.019
   24  0.022  0.001  0.017  0.040
   25  0.019  0.001  0.004  0.024
   26  0.005  0.001  0.050  0.055
   27  0.006  0.001  0.029  0.035
   28  0.000  0.001  0.005  0.006
   29  0.001  0.000  0.003  0.005
   30  0.007  0.001  0.003  0.011
   31  0.001  0.000  0.003  0.005
   32  0.002  0.001  0.004  0.008
   33  0.007  0.001  0.003  0.011
   34  0.002  0.001  0.004  0.008
   35  0.000  0.001  0.009  0.010
   36  0.000  0.000  0.003  0.003
   37  0.000  0.000  0.000  0.000
   38  0.000  0.000  0.000  0.000
tot    0.152  0.029  0.569  0.750
 
band    18 # energy   -5.31152297 # occ.  2.00000000
 
ion      s      p      d    tot
    1  0.004  0.000  0.001  0.005
    2  0.000  0.001  0.008  0.009
    3  0.000  0.001  0.008  0.009
    4  0.000  0.001  0.008  0.009
    5  0.018  0.002  0.000  0.020
    6  0.000  0.001  0.008  0.009
    7  0.000  0.001  0.008  0.009
    8  0.000  0.001  0.008  0.009
    9  0.005  0.001  0.002  0.008
   10  0.001  0.000  0.044  0.044
   11  0.003  0.001  0.021  0.026
   12  0.001  0.000  0.044  0.044
   13  0.003  0.001  0.021  0.026
   14  0.003  0.001  0.021  0.026
   15  0.006  0.001  0.016  0.023
   16  0.001  0.000  0.044  0.044
   17  0.006  0.001  0.016  0.023
   18  0.006  0.001  0.016  0.023
   19  0.005  0.000  0.048  0.053
   20  0.014  0.001  0.008  0.023
   21  0.014  0.001  0.008  0.023
   22  0.002  0.001  0.024  0.027
   23  0.014  0.001  0.008  0.023
   24  0.002  0.001  0.024  0.027
   25  0.005  0.000  0.048  0.053
   26  0.005  0.000  0.048  0.053
   27  0.002  0.001  0.024  0.027
   28  0.000  0.000  0.003  0.003
   29  0.000  0.001  0.007  0.007
   30  0.000  0.001  0.007  0.007
   31  0.000  0.001  0.007  0.007
   32  0.000  0.001  0.007  0.007
   33  0.000  0.001  0.007  0.007
   34  0.000  0.001  0.007  0.007
   35  0.008  0.001  0.000  0.009
   36  0.007  0.007  0.003  0.016
   37  0.001  0.012  0.000  0.013
   38  0.004  0.000  0.000  0.004
tot    0.140  0.043  0.582  0.765
 
band    19 # energy   -4.97616894 # occ.  2.00000000
 
ion      s      p      d    tot
    1  0.012  0.000  0.014  0.026
    2  0.000  0.001  0.019  0.020
    3  0.000  0.001  0.019  0.020
    4  0.000  0.001  0.019  0.020
    5  0.001  0.001  0.007  0.009
    6  0.000  0.001  0.019  0.020
    7  0.000  0.001  0.019  0.020
    8  0.000  0.001  0.019  0.020
    9  0.023  0.001  0.002  0.025
   10  0.000  0.000  0.038  0.038
   11  0.000  0.000  0.038  0.038
   12  0.000  0.000  0.038  0.038
   13  0.000  0.000  0.038  0.038
   14  0.000  0.000  0.038  0.038
   15  0.000  0.000  0.029  0.029
   16  0.000  0.000  0.038  0.038
   17  0.000  0.000  0.029  0.029
   18  0.000  0.000  0.030  0.030
   19  0.001  0.000  0.019  0.020
   20  0.001  0.000  0.030  0.032
   21  0.001  0.000  0.031  0.032
   22  0.000  0.000  0.023  0.023
   23  0.001  0.000  0.031  0.032
   24  0.000  0.000  0.023  0.023
   25  0.001  0.000  0.020  0.021
   26  0.001  0.000  0.019  0.020
   27  0.000  0.000  0.023  0.023
   28  0.000  0.000  0.003  0.003
   29  0.000  0.001  0.011  0.012
   30  0.000  0.001  0.011  0.012
   31  0.000  0.001  0.011  0.012
   32  0.000  0.001  0.011  0.012
   33  0.000  0.001  0.011  0.012
   34  0.000  0.001  0.011  0.012
   35  0.010  0.001  0.000  0.011
   36  0.010  0.000  0.009  0.020
   37  0.000  0.000  0.000  0.000
   38  0.000  0.000  0.000  0.000
tot    0.062  0.016  0.750  0.828
 
band    20 # energy   -4.97383945 # occ.  2.00000000
 
ion      s      p      d    tot
    1  0.000  0.001  0.017  0.018
    2  0.013  0.001  0.012  0.026
    3  0.003  0.001  0.011  0.015
    4  0.013  0.001  0.012  0.026
    5  0.000  0.000  0.035  0.035
    6  0.004  0.000  0.017  0.021
    7  0.003  0.001  0.011  0.015
    8  0.004  0.000  0.017  0.021
    9  0.000  0.002  0.010  0.012
   10  0.000  0.000  0.009  0.009
   11  0.000  0.001  0.035  0.035
   12  0.000  0.000  0.019  0.019
   13  0.000  0.001  0.035  0.035
   14  0.000  0.000  0.038  0.038
   15  0.000  0.000  0.051  0.051
   16  0.000  0.000  0.019  0.019
   17  0.000  0.000  0.051  0.051
   18  0.000  0.000  0.047  0.047
   19  0.000  0.000  0.011  0.012
   20  0.000  0.000  0.013  0.013
   21  0.001  0.000  0.027  0.029
   22  0.000  0.000  0.039  0.040
   23  0.001  0.000  0.027  0.029
   24  0.000  0.000  0.031  0.031
   25  0.000  0.000  0.012  0.012
   26  0.000  0.000  0.011  0.012
   27  0.000  0.000  0.039  0.040
   28  0.000  0.000  0.014  0.014
   29  0.003  0.001  0.006  0.010
   30  0.007  0.000  0.009  0.017
   31  0.003  0.001  0.006  0.010
   32  0.001  0.000  0.009  0.010
   33  0.007  0.000  0.009  0.017
   34  0.001  0.000  0.009  0.010
   35  0.000  0.000  0.018  0.019
   36  0.000  0.002  0.004  0.005
   37  0.000  0.000  0.000  0.000
   38  0.000  0.000  0.000  0.000
tot    0.066  0.016  0.743  0.824
 
band    21 # energy   -4.97383690 # occ.  2.00000000
 
ion      s      p      d    tot
    1  0.000  0.001  0.017  0.018
    2  0.000  0.001  0.015  0.015
    3  0.010  0.001  0.016  0.027
    4  0.000  0.001  0.015  0.015
    5  0.000  0.000  0.035  0.035
    6  0.009  0.001  0.010  0.020
    7  0.010  0.001  0.016  0.027
    8  0.009  0.001  0.010  0.020
    9  0.000  0.002  0.010  0.012
   10  0.000  0.000  0.023  0.023
   11  0.000  0.000  0.037  0.037
   12  0.000  0.000  0.012  0.012
   13  0.000  0.000  0.037  0.037
   14  0.000  0.001  0.034  0.034
   15  0.000  0.000  0.048  0.048
   16  0.000  0.000  0.012  0.012