PROCAR new format
# of k-points:   10         # of bands:  252         # of ions:   37

 k-point     1 :    0.00000000 0.00000000 0.00000000     weight = 0.01562500

band     1 # energy   -9.33411552 # occ.  2.00000000
 
ion      s      p      d    tot
    1  0.000  0.000  0.000  0.000
    2  0.000  0.000  0.000  0.000
    3  0.000  0.000  0.000  0.000
    4  0.000  0.000  0.000  0.000
    5  0.000  0.000  0.000  0.000
    6  0.000  0.000  0.000  0.000
    7  0.000  0.000  0.000  0.000
    8  0.000  0.000  0.000  0.000
    9  0.000  0.000  0.000  0.000
   10  0.001  0.000  0.000  0.001
   11  0.001  0.000  0.000  0.001
   12  0.001  0.000  0.000  0.001
   13  0.001  0.000  0.000  0.001
   14  0.001  0.000  0.000  0.001
   15  0.000  0.000  0.000  0.000
   16  0.001  0.000  0.000  0.001
   17  0.000  0.000  0.000  0.000
   18  0.000  0.000  0.000  0.000
   19  0.001  0.000  0.000  0.001
   20  0.005  0.001  0.002  0.008
   21  0.005  0.001  0.002  0.008
   22  0.001  0.000  0.000  0.001
   23  0.005  0.001  0.002  0.008
   24  0.001  0.000  0.000  0.001
   25  0.001  0.000  0.000  0.001
   26  0.001  0.000  0.000  0.001
   27  0.001  0.000  0.000  0.001
   28  0.001  0.000  0.000  0.001
   29  0.002  0.000  0.001  0.003
   30  0.002  0.000  0.001  0.003
   31  0.002  0.000  0.001  0.003
   32  0.002  0.000  0.001  0.003
   33  0.002  0.000  0.001  0.003
   34  0.002  0.000  0.001  0.003
   35  0.001  0.000  0.000  0.001
   36  0.127  0.065  0.241  0.434
   37  0.398  0.026  0.000  0.424
tot    0.569  0.094  0.252  0.915
 
band     2 # energy   -8.58443654 # occ.  2.00000000
 
ion      s      p      d    tot
    1  0.007  0.001  0.000  0.007
    2  0.007  0.001  0.000  0.007
    3  0.007  0.001  0.000  0.007
    4  0.007  0.001  0.000  0.007
    5  0.007  0.001  0.000  0.008
    6  0.007  0.001  0.000  0.007
    7  0.007  0.001  0.000  0.007
    8  0.007  0.001  0.000  0.007
    9  0.007  0.001  0.000  0.007
   10  0.027  0.000  0.000  0.027
   11  0.028  0.000  0.000  0.028
   12  0.027  0.000  0.000  0.027
   13  0.028  0.000  0.000  0.028
   14  0.028  0.000  0.000  0.028
   15  0.027  0.000  0.000  0.028
   16  0.027  0.000  0.000  0.027
   17  0.027  0.000  0.000  0.028
   18  0.027  0.000  0.000  0.028
   19  0.022  0.000  0.000  0.022
   20  0.021  0.000  0.000  0.022
   21  0.021  0.000  0.000  0.022
   22  0.023  0.000  0.000  0.023
   23  0.021  0.000  0.000  0.022
   24  0.023  0.000  0.000  0.023
   25  0.022  0.000  0.000  0.022
   26  0.022  0.000  0.000  0.022
   27  0.023  0.000  0.000  0.023
   28  0.004  0.000  0.000  0.004
   29  0.003  0.001  0.000  0.004
   30  0.003  0.001  0.000  0.004
   31  0.003  0.001  0.000  0.004
   32  0.003  0.001  0.000  0.004
   33  0.003  0.001  0.000  0.004
   34  0.003  0.001  0.000  0.004
   35  0.004  0.000  0.000  0.004
   36  0.001  0.009  0.016  0.026
   37  0.026  0.001  0.000  0.027
tot    0.558  0.023  0.020  0.601
 
band     3 # energy   -7.39880797 # occ.  2.00000000
 
ion      s      p      d    tot
    1  0.017  0.000  0.001  0.019
    2  0.016  0.000  0.001  0.018
    3  0.016  0.000  0.001  0.018
    4  0.016  0.000  0.001  0.018
    5  0.016  0.000  0.001  0.018
    6  0.016  0.000  0.001  0.018
    7  0.016  0.000  0.001  0.018
    8  0.016  0.000  0.001  0.018
    9  0.016  0.000  0.001  0.018
   10  0.010  0.002  0.002  0.014
   11  0.009  0.002  0.003  0.013
   12  0.010  0.002  0.002  0.014
   13  0.009  0.002  0.003  0.013
   14  0.009  0.002  0.003  0.013
   15  0.008  0.002  0.003  0.013
   16  0.010  0.002  0.002  0.014
   17  0.008  0.002  0.003  0.013
   18  0.008  0.002  0.003  0.013
   19  0.016  0.001  0.004  0.021
   20  0.014  0.001  0.005  0.019
   21  0.014  0.001  0.005  0.019
   22  0.018  0.001  0.004  0.023
   23  0.014  0.001  0.005  0.019
   24  0.018  0.001  0.004  0.023
   25  0.016  0.001  0.004  0.021
   26  0.016  0.001  0.004  0.021
   27  0.018  0.001  0.004  0.023
   28  0.014  0.001  0.000  0.015
   29  0.012  0.001  0.001  0.013
   30  0.012  0.001  0.001  0.013
   31  0.012  0.001  0.001  0.013
   32  0.012  0.001  0.001  0.013
   33  0.012  0.001  0.001  0.013
   34  0.012  0.001  0.001  0.013
   35  0.014  0.001  0.000  0.015
   36  0.002  0.004  0.009  0.016
   37  0.008  0.000  0.000  0.008
tot    0.486  0.036  0.086  0.609
 
band     4 # energy   -6.50754075 # occ.  2.00000000
 
ion      s      p      d    tot
    1  0.003  0.000  0.015  0.018
    2  0.010  0.000  0.011  0.022
    3  0.010  0.000  0.011  0.022
    4  0.010  0.000  0.011  0.022
    5  0.005  0.000  0.008  0.013
    6  0.010  0.000  0.011  0.022
    7  0.010  0.000  0.011  0.022
    8  0.010  0.000  0.011  0.022
    9  0.033  0.001  0.005  0.039
   10  0.011  0.001  0.018  0.030
   11  0.015  0.002  0.010  0.028
   12  0.011  0.001  0.018  0.030
   13  0.015  0.002  0.010  0.028
   14  0.015  0.002  0.010  0.028
   15  0.005  0.001  0.017  0.023
   16  0.011  0.001  0.018  0.030
   17  0.005  0.001  0.017  0.023
   18  0.005  0.001  0.017  0.023
   19  0.000  0.001  0.013  0.014
   20  0.018  0.002  0.010  0.029
   21  0.018  0.002  0.010  0.029
   22  0.007  0.002  0.003  0.011
   23  0.018  0.002  0.010  0.029
   24  0.007  0.002  0.003  0.011
   25  0.000  0.001  0.013  0.014
   26  0.000  0.001  0.013  0.014
   27  0.007  0.002  0.003  0.011
   28  0.007  0.000  0.001  0.008
   29  0.004  0.000  0.005  0.009
   30  0.004  0.000  0.005  0.009
   31  0.004  0.000  0.005  0.009
   32  0.004  0.000  0.005  0.009
   33  0.004  0.000  0.005  0.009
   34  0.004  0.000  0.005  0.009
   35  0.013  0.000  0.001  0.015
   36  0.000  0.003  0.004  0.008
   37  0.001  0.000  0.000  0.001
tot    0.318  0.033  0.343  0.694
 
band     5 # energy   -6.49436191 # occ.  2.00000000
 
ion      s      p      d    tot
    1  0.000  0.000  0.008  0.008
    2  0.004  0.001  0.004  0.008
    3  0.006  0.001  0.003  0.010
    4  0.004  0.001  0.004  0.008
    5  0.000  0.001  0.007  0.008
    6  0.000  0.000  0.003  0.003
    7  0.006  0.001  0.003  0.010
    8  0.000  0.000  0.003  0.003
    9  0.000  0.000  0.001  0.001
   10  0.000  0.000  0.036  0.036
   11  0.039  0.002  0.015  0.056
   12  0.026  0.002  0.012  0.040
   13  0.040  0.001  0.015  0.056
   14  0.000  0.003  0.026  0.029
   15  0.001  0.001  0.011  0.013
   16  0.026  0.002  0.013  0.040
   17  0.001  0.001  0.011  0.013
   18  0.000  0.004  0.004  0.008
   19  0.007  0.001  0.011  0.019
   20  0.000  0.002  0.035  0.037
   21  0.047  0.002  0.015  0.064
   22  0.014  0.001  0.011  0.025
   23  0.046  0.002  0.016  0.063
   24  0.000  0.000  0.028  0.029
   25  0.000  0.004  0.003  0.007
   26  0.007  0.001  0.011  0.019
   27  0.013  0.001  0.011  0.025
   28  0.000  0.000  0.001  0.001
   29  0.000  0.000  0.002  0.003
   30  0.004  0.001  0.003  0.008
   31  0.000  0.000  0.002  0.003
   32  0.005  0.001  0.004  0.009
   33  0.004  0.001  0.003  0.008
   34  0.005  0.001  0.004  0.009
   35  0.000  0.000  0.004  0.004
   36  0.000  0.002  0.008  0.011
   37  0.000  0.000  0.000  0.000
tot    0.306  0.044  0.347  0.697
 
band     6 # energy   -6.49433919 # occ.  2.00000000
 
ion      s      p      d    tot
    1  0.000  0.000  0.008  0.008
    2  0.003  0.001  0.003  0.006
    3  0.001  0.000  0.003  0.004
    4  0.003  0.001  0.003  0.006
    5  0.000  0.001  0.007  0.008
    6  0.007  0.001  0.003  0.011
    7  0.001  0.000  0.003  0.004
    8  0.007  0.001  0.003  0.011
    9  0.000  0.000  0.001  0.001
   10  0.035  0.002  0.004  0.041
   11  0.014  0.003  0.022  0.038
   12  0.009  0.001  0.028  0.037
   13  0.013  0.003  0.022  0.038
   14  0.053  0.001  0.011  0.065
   15  0.000  0.003  0.006  0.010
   16  0.009  0.001  0.028  0.038
   17  0.000  0.003  0.006  0.009
   18  0.002  0.000  0.013  0.015
   19  0.002  0.003  0.006  0.011
   20  0.062  0.001  0.009  0.072
   21  0.015  0.002  0.029  0.046
   22  0.004  0.001  0.023  0.028
   23  0.016  0.002  0.028  0.046
   24  0.018  0.002  0.005  0.024
   25  0.009  0.000  0.014  0.023
   26  0.002  0.003  0.005  0.011
   27  0.005  0.001  0.022  0.028
   28  0.000  0.000  0.001  0.001
   29  0.006  0.001  0.004  0.011
   30  0.002  0.001  0.003  0.005
   31  0.006  0.001  0.004  0.011
   32  0.001  0.000  0.002  0.004
   33  0.002  0.001  0.003  0.005
   34  0.001  0.000  0.002  0.004
   35  0.000  0.000  0.004  0.004
   36  0.000  0.002  0.008  0.011
   37  0.000  0.000  0.000  0.000
tot    0.306  0.044  0.347  0.697
 
band     7 # energy   -6.47656927 # occ.  2.00000000
 
ion      s      p      d    tot
    1  0.022  0.000  0.007  0.029
    2  0.010  0.000  0.013  0.024
    3  0.010  0.000  0.013  0.024
    4  0.010  0.000  0.013  0.024
    5  0.015  0.000  0.013  0.027
    6  0.010  0.000  0.013  0.024
    7  0.010  0.000  0.013  0.024
    8  0.010  0.000  0.013  0.024
    9  0.001  0.001  0.015  0.018
   10  0.000  0.000  0.033  0.033
   11  0.001  0.001  0.024  0.026
   12  0.000  0.000  0.033  0.033
   13  0.001  0.001  0.024  0.026
   14  0.001  0.001  0.024  0.026
   15  0.029  0.001  0.014  0.044
   16  0.000  0.000  0.033  0.033
   17  0.029  0.001  0.014  0.044
   18  0.029  0.001  0.014  0.044
   19  0.002  0.000  0.015  0.017
   20  0.014  0.000  0.013  0.028
   21  0.014  0.000  0.013  0.028
   22  0.003  0.001  0.011  0.015
   23  0.014  0.000  0.013  0.028
   24  0.003  0.001  0.011  0.015
   25  0.002  0.000  0.015  0.017
   26  0.002  0.000  0.015  0.017
   27  0.003  0.001  0.011  0.015
   28  0.000  0.000  0.000  0.001
   29  0.000  0.000  0.002  0.003
   30  0.000  0.000  0.002  0.003
   31  0.000  0.000  0.002  0.003
   32  0.000  0.000  0.002  0.003
   33  0.000  0.000  0.002  0.003
   34  0.000  0.000  0.002  0.003
   35  0.004  0.000  0.000  0.005
   36  0.000  0.003  0.001  0.005
   37  0.002  0.000  0.000  0.002
tot    0.256  0.019  0.460  0.735
 
band     8 # energy   -6.45789812 # occ.  2.00000000
 
ion      s      p      d    tot
    1  0.008  0.001  0.001  0.010
    2  0.000  0.001  0.006  0.007
    3  0.000  0.001  0.006  0.007
    4  0.000  0.001  0.006  0.007
    5  0.016  0.002  0.001  0.019
    6  0.000  0.001  0.006  0.007
    7  0.000  0.001  0.006  0.007
    8  0.000  0.001  0.006  0.007
    9  0.000  0.000  0.001  0.002
   10  0.025  0.003  0.002  0.030
   11  0.021  0.001  0.023  0.044
   12  0.025  0.003  0.002  0.030
   13  0.021  0.001  0.023  0.044
   14  0.021  0.001  0.022  0.044
   15  0.000  0.001  0.024  0.025
   16  0.025  0.003  0.002  0.030
   17  0.000  0.001  0.024  0.025
   18  0.000  0.001  0.024  0.025
   19  0.026  0.002  0.005  0.034
   20  0.005  0.002  0.017  0.024
   21  0.005  0.002  0.017  0.024
   22  0.009  0.000  0.026  0.035
   23  0.005  0.002  0.017  0.024
   24  0.009  0.000  0.026  0.035
   25  0.026  0.002  0.005  0.033
   26  0.026  0.002  0.005  0.034
   27  0.009  0.000  0.026  0.035
   28  0.010  0.001  0.001  0.013
   29  0.000  0.000  0.004  0.004
   30  0.000  0.000  0.004  0.004
   31  0.000  0.000  0.004  0.004
   32  0.000  0.000  0.004  0.004
   33  0.000  0.000  0.004  0.004
   34  0.000  0.000  0.004  0.004
   35  0.005  0.001  0.002  0.007
   36  0.000  0.000  0.000  0.001
   37  0.000  0.000  0.000  0.000
tot    0.300  0.041  0.354  0.695
 
band     9 # energy   -6.44214177 # occ.  2.00000000
 
ion      s      p      d    tot
    1  0.000  0.001  0.003  0.004
    2  0.004  0.001  0.004  0.009
    3  0.007  0.001  0.003  0.012
    4  0.005  0.001  0.004  0.010
    5  0.000  0.000  0.004  0.004
    6  0.000  0.000  0.003  0.004
    7  0.007  0.001  0.004  0.012
    8  0.000  0.000  0.003  0.004
    9  0.000  0.001  0.011  0.012
   10  0.027  0.000  0.016  0.043
   11  0.002  0.001  0.019  0.023
   12  0.006  0.004  0.008  0.018
   13  0.002  0.001  0.020  0.023
   14  0.007  0.001  0.008  0.016
   15  0.016  0.001  0.033  0.050
   16  0.007  0.003  0.008  0.018
   17  0.015  0.001  0.034  0.050
   18  0.062  0.002  0.005  0.068
   19  0.011  0.001  0.028  0.040
   20  0.001  0.001  0.012  0.014
   21  0.000  0.002  0.012  0.014
   22  0.008  0.003  0.014  0.026
   23  0.000  0.002  0.012  0.014
   24  0.035  0.001  0.013  0.049
   25  0.042  0.002  0.003  0.048
   26  0.010  0.001  0.029  0.040
   27  0.009  0.003  0.014  0.027
   28  0.000  0.000  0.006  0.007
   29  0.000  0.000  0.002  0.002
   30  0.003  0.001  0.002  0.005
   31  0.000  0.000  0.002  0.002
   32  0.004  0.001  0.003  0.008
   33  0.003  0.001  0.002  0.005
   34  0.004  0.001  0.003  0.008
   35  0.000  0.001  0.004  0.004
   36  0.000  0.000  0.001  0.001
   37  0.000  0.000  0.000  0.000
tot    0.300  0.042  0.352  0.694
 
band    10 # energy   -6.44211726 # occ.  2.00000000
 
ion      s      p      d    tot
    1  0.000  0.001  0.003  0.004
    2  0.004  0.001  0.003  0.008
    3  0.001  0.000  0.004  0.005
    4  0.004  0.001  0.003  0.007
    5  0.000  0.000  0.004  0.004
    6  0.008  0.001  0.004  0.013
    7  0.001  0.000  0.004  0.005
    8  0.008  0.001  0.004  0.013
    9  0.000  0.001  0.011  0.012
   10  0.000  0.005  0.005  0.009
   11  0.005  0.001  0.012  0.019
   12  0.020  0.001  0.014  0.035
   13  0.005  0.001  0.012  0.018
   14  0.000  0.002  0.023  0.025
   15  0.045  0.001  0.015  0.062
   16  0.020  0.001  0.013  0.035
   17  0.047  0.002  0.014  0.063
   18  0.000  0.001  0.043  0.044
   19  0.031  0.002  0.012  0.045
   20  0.000  0.002  0.011  0.014
   21  0.000  0.001  0.012  0.014
   22  0.027  0.001  0.013  0.041
   23  0.000  0.001  0.012  0.014
   24  0.000  0.004  0.015  0.019
   25  0.000  0.000  0.037  0.037
   26  0.032  0.002  0.011  0.045
   27  0.026  0.001  0.013  0.041
   28  0.000  0.000  0.006  0.007
   29  0.005  0.001  0.002  0.008
   30  0.002  0.000  0.003  0.005
   31  0.005  0.001  0.002  0.008
   32  0.001  0.000  0.002  0.002
   33  0.002  0.000  0.003  0.005
   34  0.001  0.000  0.002  0.003
   35  0.000  0.001  0.004  0.004
   36  0.000  0.000  0.001  0.001
   37  0.000  0.000  0.000  0.000
tot    0.300  0.042  0.352  0.694
 
band    11 # energy   -6.35072109 # occ.  2.00000000
 
ion      s      p      d    tot
    1  0.003  0.000  0.000  0.003
    2  0.001  0.000  0.002  0.003
    3  0.001  0.000  0.002  0.003
    4  0.001  0.000  0.002  0.003
    5  0.004  0.000  0.000  0.004
    6  0.001  0.000  0.002  0.003
    7  0.001  0.000  0.002  0.003
    8  0.001  0.000  0.002  0.003
    9  0.002  0.001  0.001  0.004
   10  0.001  0.000  0.009  0.010
   11  0.003  0.001  0.003  0.006
   12  0.001  0.000  0.009  0.010
   13  0.003  0.001  0.003  0.006
   14  0.003  0.001  0.003  0.006
   15  0.008  0.001  0.005  0.014
   16  0.001  0.000  0.009  0.010
   17  0.008  0.001  0.005  0.014
   18  0.008  0.001  0.005  0.014
   19  0.003  0.001  0.016  0.020
   20  0.000  0.000  0.029  0.030
   21  0.000  0.000  0.029  0.030
   22  0.013  0.002  0.017  0.032
   23  0.000  0.000  0.029  0.030
   24  0.013  0.002  0.017  0.032
   25  0.003  0.001  0.016  0.020
   26  0.003  0.001  0.016  0.020
   27  0.013  0.002  0.017  0.032
   28  0.024  0.000  0.019  0.044
   29  0.022  0.000  0.017  0.040
   30  0.022  0.000  0.017  0.040
   31  0.022  0.000  0.017  0.040
   32  0.022  0.000  0.017  0.040
   33  0.022  0.000  0.017  0.040
   34  0.022  0.000  0.017  0.040
   35  0.020  0.000  0.019  0.039
   36  0.009  0.000  0.028  0.037
   37  0.001  0.001  0.000  0.002
tot    0.284  0.019  0.420  0.723
 
band    12 # energy   -6.00223467 # occ.  2.00000000
 
ion      s      p      d    tot
    1  0.013  0.002  0.002  0.017
    2  0.000  0.001  0.008  0.009
    3  0.000  0.001  0.008  0.009
    4  0.000  0.001  0.008  0.009
    5  0.000  0.000  0.002  0.002
    6  0.000  0.001  0.008  0.009
    7  0.000  0.001  0.008  0.009
    8  0.000  0.001  0.008  0.009
    9  0.017  0.001  0.000  0.018
   10  0.010  0.001  0.014  0.026
   11  0.002  0.000  0.045  0.047
   12  0.010  0.001  0.014  0.026
   13  0.002  0.000  0.045  0.047
   14  0.002  0.000  0.045  0.047
   15  0.004  0.001  0.022  0.026
   16  0.010  0.001  0.014  0.026
   17  0.004  0.001  0.022  0.026
   18  0.004  0.001  0.022  0.027
   19  0.004  0.001  0.013  0.018
   20  0.001  0.000  0.051  0.052
   21  0.001  0.000  0.051  0.052
   22  0.012  0.001  0.019  0.032
   23  0.001  0.000  0.051  0.052
   24  0.011  0.001  0.019  0.031
   25  0.004  0.001  0.013  0.018
   26  0.004  0.001  0.013  0.018
   27  0.012  0.001  0.019  0.032
   28  0.012  0.001  0.000  0.013
   29  0.000  0.000  0.005  0.006
   30  0.000  0.001  0.006  0.006
   31  0.000  0.000  0.005  0.006
   32  0.000  0.000  0.006  0.006
   33  0.000  0.001  0.006  0.006
   34  0.000  0.000  0.006  0.006
   35  0.007  0.001  0.003  0.011
   36  0.000  0.000  0.001  0.002
   37  0.000  0.000  0.000  0.000
tot    0.148  0.027  0.581  0.756
 
band    13 # energy   -5.99950325 # occ.  2.00000000
 
ion      s      p      d    tot
    1  0.000  0.001  0.004  0.004
    2  0.001  0.001  0.005  0.006
    3  0.009  0.001  0.005  0.015
    4  0.001  0.001  0.005  0.006
    5  0.000  0.001  0.011  0.012
    6  0.005  0.001  0.004  0.009
    7  0.009  0.001  0.005  0.015
    8  0.005  0.001  0.004  0.009
    9  0.000  0.000  0.009  0.009
   10  0.000  0.001  0.050  0.050
   11  0.016  0.001  0.021  0.039
   12  0.007  0.002  0.019  0.028
   13  0.016  0.001  0.021  0.039
   14  0.000  0.000  0.053  0.053
   15  0.002  0.000  0.020  0.022
   16  0.007  0.002  0.019  0.027
   17  0.002  0.000  0.020  0.022
   18  0.000  0.001  0.011  0.013
   19  0.005  0.000  0.019  0.024
   20  0.000  0.000  0.071  0.071
   21  0.017  0.001  0.023  0.041
   22  0.004  0.001  0.019  0.024
   23  0.017  0.001  0.023  0.041
   24  0.000  0.001  0.037  0.038
   25  0.000  0.001  0.011  0.012
   26  0.005  0.000  0.019  0.024
   27  0.004  0.001  0.019  0.023
   28  0.000  0.000  0.007  0.007
   29  0.002  0.001  0.004  0.007
   30  0.008  0.001  0.004  0.014
   31  0.002  0.001  0.004  0.006
   32  0.002  0.001  0.004  0.006
   33  0.008  0.001  0.004  0.014
   34  0.002  0.001  0.004  0.007
   35  0.000  0.000  0.003  0.003
   36  0.000  0.003  0.008  0.011
   37  0.000  0.000  0.000  0.000
tot    0.155  0.031  0.566  0.752
 
band    14 # energy   -5.99949941 # occ.  2.00000000
 
ion      s      p      d    tot
    1  0.000  0.001  0.004  0.004
    2  0.009  0.001  0.004  0.014
    3  0.001  0.000  0.004  0.005
    4  0.009  0.001  0.004  0.014
    5  0.000  0.001  0.011  0.012
    6  0.005  0.001  0.005  0.011
    7  0.001  0.000  0.004  0.005
    8  0.005  0.001  0.005  0.011
    9  0.000  0.000  0.009  0.009
   10  0.009  0.002  0.009  0.020
   11  0.005  0.000  0.043  0.048
   12  0.002  0.001  0.039  0.043
   13  0.005  0.000  0.043  0.048
   14  0.022  0.001  0.011  0.034
   15  0.001  0.001  0.014  0.016
   16  0.002  0.001  0.040  0.043
   17  0.001  0.001  0.015  0.016
   18  0.002  0.000  0.023  0.025
   19  0.002  0.001  0.014  0.016
   20  0.023  0.001  0.006  0.031
   21  0.006  0.000  0.055  0.061
   22  0.001  0.001  0.031  0.033
   23  0.006  0.000  0.055  0.061
   24  0.005  0.001  0.013  0.019
   25  0.006  0.000  0.021  0.027
   26  0.002  0.001  0.014  0.016
   27  0.001  0.001  0.031  0.033
   28  0.000  0.000  0.007  0.007
   29  0.006  0.001  0.004  0.011
   30  0.000  0.000  0.004  0.004
   31  0.006  0.001  0.004  0.011
   32  0.006  0.001  0.004  0.011
   33  0.000  0.000  0.004  0.004
   34  0.006  0.001  0.004  0.011
   35  0.000  0.000  0.003  0.003
   36  0.000  0.003  0.008  0.011
   37  0.000  0.000  0.000  0.000
tot    0.155  0.031  0.566  0.752
 
band    15 # energy   -5.95376950 # occ.  2.00000000
 
ion      s      p      d    tot
    1  0.000  0.001  0.014  0.015
    2  0.009  0.001  0.004  0.015
    3  0.001  0.000  0.005  0.006
    4  0.009  0.001  0.004  0.015
    5  0.000  0.000  0.005  0.005
    6  0.004  0.001  0.005  0.010
    7  0.001  0.000  0.005  0.006
    8  0.004  0.001  0.005  0.010
    9  0.000  0.001  0.006  0.008
   10  0.000  0.001  0.031  0.032
   11  0.000  0.001  0.020  0.021
   12  0.008  0.000  0.022  0.031
   13  0.000  0.001  0.020  0.021
   14  0.000  0.001  0.018  0.019
   15  0.011  0.002  0.020  0.033
   16  0.008  0.000  0.022  0.031
   17  0.011  0.002  0.020  0.033
   18  0.000  0.000  0.063  0.064
   19  0.014  0.001  0.020  0.035
   20  0.000  0.002  0.020  0.022
   21  0.000  0.001  0.022  0.023
   22  0.017  0.001  0.021  0.038
   23  0.000  0.001  0.022  0.023
   24  0.000  0.001  0.032  0.032
   25  0.000  0.000  0.066  0.066
   26  0.014  0.001  0.020  0.035
   27  0.016  0.001  0.021  0.038
   28  0.000  0.001  0.005  0.006
   29  0.005  0.001  0.004  0.011
   30  0.000  0.000  0.004  0.005
   31  0.005  0.001  0.004  0.011
   32  0.005  0.001  0.003  0.008
   33  0.000  0.000  0.004  0.005
   34  0.005  0.001  0.003  0.008
   35  0.000  0.001  0.008  0.009
   36  0.000  0.000  0.002  0.002
   37  0.000  0.000  0.000  0.000
tot    0.150  0.029  0.572  0.751
 
band    16 # energy   -5.95376013 # occ.  2.00000000
 
ion      s      p      d    tot
    1  0.000  0.001  0.014  0.014
    2  0.000  0.001  0.005  0.006
    3  0.009  0.001  0.005  0.015
    4  0.000  0.001  0.005  0.006
    5  0.000  0.000  0.005  0.005
    6  0.006  0.001  0.004  0.011
    7  0.009  0.001  0.005  0.015
    8  0.006  0.001  0.004  0.011
    9  0.000  0.001  0.006  0.008
   10  0.011  0.000  0.019  0.030
   11  0.000  0.001  0.019  0.020
   12  0.003  0.001  0.028  0.031
   13  0.000  0.001  0.019  0.020
   14  0.001  0.001  0.021  0.022
   15  0.004  0.001  0.049  0.053
   16  0.003  0.001  0.028  0.031
   17  0.004  0.001  0.049  0.054
   18  0.015  0.002  0.006  0.023
   19  0.005  0.001  0.050  0.056
   20  0.000  0.000  0.023  0.023
   21  0.000  0.001  0.021  0.022
   22  0.005  0.001  0.028  0.034
   23  0.000  0.001  0.021  0.022
   24  0.022  0.001  0.017  0.040
   25  0.019  0.001  0.004  0.024
   26  0.005  0.001  0.051  0.056
   27  0.006  0.001  0.028  0.034
   28  0.000  0.001  0.005  0.006
   29  0.001  0.000  0.003  0.005
   30  0.007  0.001  0.003  0.011
   31  0.001  0.000  0.003  0.005
   32  0.002  0.001  0.005  0.008
   33  0.007  0.001  0.003  0.011
   34  0.002  0.001  0.005  0.008
   35  0.000  0.001  0.008  0.009
   36  0.000  0.000  0.002  0.002
   37  0.000  0.000  0.000  0.000
tot    0.150  0.029  0.572  0.751
 
band    17 # energy   -5.93752971 # occ.  2.00000000
 
ion      s      p      d    tot
    1  0.010  0.000  0.001  0.012
    2  0.000  0.001  0.009  0.009
    3  0.000  0.001  0.009  0.009
    4  0.000  0.001  0.009  0.009
    5  0.017  0.002  0.001  0.020
    6  0.000  0.001  0.009  0.010
    7  0.000  0.001  0.009  0.009
    8  0.000  0.001  0.009  0.010
    9  0.001  0.000  0.002  0.004
   10  0.000  0.000  0.041  0.042
   11  0.006  0.002  0.011  0.019
   12  0.000  0.000  0.041  0.042
   13  0.006  0.002  0.011  0.019
   14  0.006  0.002  0.012  0.019
   15  0.005  0.001  0.028  0.034
   16  0.000  0.000  0.041  0.042
   17  0.005  0.001  0.028  0.034
   18  0.005  0.001  0.028  0.034
   19  0.010  0.000  0.044  0.054
   20  0.010  0.001  0.005  0.017
   21  0.010  0.001  0.005  0.017
   22  0.000  0.000  0.038  0.038
   23  0.010  0.001  0.005  0.017
   24  0.000  0.000  0.038  0.038
   25  0.010  0.000  0.044  0.054
   26  0.010  0.000  0.044  0.054
   27  0.000  0.000  0.038  0.038
   28  0.000  0.001  0.008  0.008
   29  0.001  0.000  0.005  0.006
   30  0.001  0.000  0.005  0.006
   31  0.001  0.000  0.005  0.006
   32  0.001  0.000  0.005  0.006
   33  0.001  0.000  0.005  0.006
   34  0.001  0.000  0.005  0.006
   35  0.001  0.000  0.000  0.002
   36  0.008  0.006  0.000  0.014
   37  0.003  0.000  0.000  0.003
tot    0.139  0.029  0.600  0.769
 
band    18 # energy   -5.61042870 # occ.  2.00000000
 
ion      s      p      d    tot
    1  0.000  0.000  0.018  0.018
    2  0.001  0.001  0.010  0.011
    3  0.004  0.000  0.014  0.018
    4  0.001  0.001  0.010  0.011
    5  0.000  0.001  0.024  0.024
    6  0.009  0.001  0.009  0.018
    7  0.004  0.000  0.014  0.018
    8  0.009  0.001  0.009  0.018
    9  0.000  0.001  0.004  0.006
   10  0.000  0.000  0.021  0.022
   11  0.000  0.000  0.058  0.058
   12  0.000  0.000  0.012  0.012
   13  0.000  0.000  0.058  0.058
   14  0.000  0.000  0.051  0.052
   15  0.000  0.000  0.025  0.025
   16  0.000  0.000  0.012  0.013
   17  0.000  0.000  0.025  0.025
   18  0.000  0.000  0.040  0.040
   19  0.000  0.000  0.009  0.009
   20  0.001  0.000  0.064  0.065
   21  0.000  0.000  0.044  0.044
   22  0.000  0.000  0.032  0.033
   23  0.000  0.000  0.044  0.045
   24  0.000  0.000  0.029  0.029
   25  0.001  0.000  0.013  0.014
   26  0.000  0.000  0.009  0.009
   27  0.000  0.000  0.032  0.033
   28  0.000  0.000  0.008  0.009
   29  0.006  0.001  0.010  0.017
   30  0.000  0.000  0.008  0.008
   31  0.006  0.001  0.010  0.017
   32  0.005  0.001  0.005  0.011
   33  0.000  0.000  0.008  0.008
   34  0.006  0.001  0.005  0.011
   35  0.000  0.000  0.015  0.015
   36  0.000  0.003  0.006  0.008
   37  0.000  0.000  0.000  0.000
tot    0.054  0.015  0.764  0.834
 
band    19 # energy   -5.61042436 # occ.  2.00000000
 
ion      s      p      d    tot
    1  0.000  0.000  0.018  0.018
    2  0.008  0.000  0.012  0.021
    3  0.005  0.001  0.008  0.014
    4  0.008  0.000  0.012  0.021
    5  0.000  0.001  0.024  0.024
    6  0.000  0.000  0.013  0.013
    7  0.005  0.001  0.008  0.014
    8  0.000  0.000  0.013  0.014
    9  0.000  0.001  0.004  0.006
   10  0.000  0.000  0.009  0.009
   11  0.000  0.000  0.054  0.054
   12  0.000  0.000  0.018  0.019
   13  0.000  0.000  0.053  0.054
   14  0.000  0.000  0.060  0.060
   15  0.000  0.000  0.035  0.035
   16  0.000  0.000  0.018  0.019
   17  0.000  0.000  0.035  0.035
   18  0.000  0.000  0.021  0.021
   19  0.000  0.000  0.011  0.012
   20  0.000  0.000  0.037  0.038
   21  0.001  0.000  0.057  0.059
   22  0.000  0.000  0.030  0.030
   23  0.001  0.000  0.057  0.058
   24  0.000  0.000  0.033  0.034
   25  0.000  0.000  0.008  0.008
   26  0.000  0.000  0.012  0.012
   27  0.000  0.000  0.030  0.030
   28  0.000  0.000  0.008  0.009
   29  0.002  0.000  0.005  0.007
   30  0.008  0.001  0.008  0.016
   31  0.002  0.000  0.005  0.007
   32  0.002  0.000  0.010  0.013
   33  0.008  0.001  0.008  0.016
   34  0.002  0.000  0.010  0.013
   35  0.000  0.000  0.015  0.015
   36  0.000  0.003  0.006  0.008
   37  0.000  0.000  0.000  0.000
tot    0.054  0.015  0.764  0.834
 
band    20 # energy   -5.60167277 # occ.  2.00000000
 
ion      s      p      d    tot
    1  0.012  0.000  0.006  0.018
    2  0.000  0.001  0.011  0.012
    3  0.000  0.001  0.011  0.012
    4  0.000  0.001  0.011  0.012
    5  0.000  0.000  0.011  0.012
    6  0.000  0.001  0.011  0.012
    7  0.000  0.001  0.011  0.012
    8  0.000  0.001  0.011  0.012
    9  0.013  0.001  0.000  0.015
   10  0.000  0.000  0.028  0.028
   11  0.000  0.000  0.049  0.050
   12  0.000  0.000  0.027  0.028
   13  0.000  0.000  0.049  0.050
   14  0.000  0.000  0.049  0.050
   15  0.000  0.000  0.031  0.031
   16  0.000  0.000  0.027  0.028
   17  0.000  0.000  0.031  0.031
   18  0.000  0.000  0.031  0.031
   19  0.000  0.000  0.020  0.020
   20  0.001  0.000  0.042  0.044
   21  0.001  0.000  0.042  0.044
   22  0.000  0.000  0.031  0.031
   23  0.001  0.000  0.042  0.044
   24  0.000  0.000  0.031  0.031
   25  0.000  0.000  0.020  0.020
   26  0.000  0.000  0.020  0.020
   27  0.000  0.000  0.031  0.031
   28  0.004  0.000  0.001  0.005
   29  0.000  0.001  0.011  0.012
   30  0.000  0.001  0.011  0.012
   31  0.000  0.001  0.011  0.012
   32  0.000  0.001  0.011  0.012
   33  0.000  0.001  0.011  0.012
   34  0.000  0.001  0.011  0.012
   35  0.014  0.001  0.002  0.016
   36  0.002  0.000  0.007  0.010
   37  0.001  0.000  0.000  0.001
tot    0.052  0.016  0.764  0.832
 
band    21 # energy   -5.58262816 # occ.  2.00000000
 
ion      s      p      d    tot
    1  0.006  0.001  0.004  0.011
    2  0.000  0.001  0.020  0.021
    3  0.000  0.001  0.020  0.021
    4  0.000  0.001  0.020  0.021
    5  0.029  0.001  0.002  0.032
    6  0.000  0.001  0.020  0.021
    7  0.000  0.001  0.020  0.021
    8  0.000  0.001  0.020  0.021
    9  0.009  0.000  0.013  0.022
   10  0.000  0.000  0.043  0.044
   11  0.000  0.001  0.030  0.031
   12  0.000  0.000  0.043  0.044
   13  0.000  0.001  0.030  0.031
   14  0.000  0.001  0.030  0.031
   15  0.000  0.000  0.037  0.037
   16  0.000  0.000  0.043  0.044
   17  0.000  0.000  0.037  0.037
   18  0.000  0.000  0.037  0.037
   19  0.001  0.000  0.026  0.027
   20  0.000  0.000  0.021  0.021
   21  0.000  0.000  0.021  0.021
   22  0.001  0.000  0.019  0.021
   23  0.000  0.000  0.021  0.021
   24  0.001  0.000  0.019  0.021
   25  0.001  0.000  0.026  0.027
   26  0.001  0.000  0.026  0.027
   27  0.001  0.000  0.019  0.021
   28  0.009  0.000  0.005  0.014
   29  0.000  0.000  0.011  0.012
   30  0.000  0.000  0.011  0.012
   31  0.000  0.000  0.011  0.012
   32  0.000  0.000  0.011  0.012
   33  0.000  0.000  0.011  0.012
   34  0.000  0.000  0.011  0.012
   35  0.001  0.000  0.005  0.006
   36  0.003  0.001  0.001  0.005