PROCAR new format
# of k-points:   10         # of bands:  252         # of ions:   37

 k-point     1 :    0.00000000 0.00000000 0.00000000     weight = 0.01562500

band     1 # energy  -10.38012862 # occ.  2.00000000
 
ion      s      p      d    tot
    1  0.000  0.000  0.000  0.000
    2  0.000  0.000  0.000  0.000
    3  0.000  0.000  0.000  0.000
    4  0.000  0.000  0.000  0.000
    5  0.000  0.000  0.000  0.000
    6  0.000  0.000  0.000  0.000
    7  0.000  0.000  0.000  0.000
    8  0.000  0.000  0.000  0.000
    9  0.000  0.000  0.000  0.000
   10  0.000  0.000  0.000  0.000
   11  0.000  0.000  0.000  0.000
   12  0.000  0.000  0.000  0.000
   13  0.000  0.000  0.000  0.000
   14  0.000  0.000  0.000  0.000
   15  0.000  0.000  0.000  0.000
   16  0.000  0.000  0.000  0.000
   17  0.000  0.000  0.000  0.000
   18  0.000  0.000  0.000  0.000
   19  0.000  0.000  0.000  0.000
   20  0.003  0.001  0.002  0.006
   21  0.003  0.001  0.002  0.006
   22  0.000  0.000  0.000  0.000
   23  0.003  0.001  0.002  0.006
   24  0.000  0.000  0.000  0.000
   25  0.000  0.000  0.000  0.000
   26  0.000  0.000  0.000  0.000
   27  0.000  0.000  0.000  0.000
   28  0.000  0.000  0.000  0.000
   29  0.001  0.000  0.001  0.002
   30  0.001  0.000  0.001  0.002
   31  0.001  0.000  0.001  0.002
   32  0.001  0.000  0.001  0.002
   33  0.001  0.000  0.001  0.002
   34  0.001  0.000  0.001  0.002
   35  0.000  0.000  0.000  0.000
   36  0.143  0.056  0.234  0.433
   37  0.385  0.039  0.000  0.424
tot    0.547  0.099  0.244  0.890
 
band     2 # energy   -8.61171439 # occ.  2.00000000
 
ion      s      p      d    tot
    1  0.007  0.001  0.000  0.007
    2  0.007  0.001  0.000  0.007
    3  0.007  0.001  0.000  0.007
    4  0.007  0.001  0.000  0.007
    5  0.007  0.001  0.000  0.007
    6  0.007  0.001  0.000  0.007
    7  0.007  0.001  0.000  0.007
    8  0.007  0.001  0.000  0.007
    9  0.006  0.001  0.000  0.007
   10  0.026  0.000  0.000  0.027
   11  0.027  0.000  0.000  0.028
   12  0.026  0.000  0.000  0.027
   13  0.027  0.000  0.000  0.028
   14  0.027  0.000  0.000  0.028
   15  0.026  0.000  0.000  0.027
   16  0.026  0.000  0.000  0.027
   17  0.026  0.000  0.000  0.027
   18  0.026  0.000  0.000  0.027
   19  0.023  0.000  0.000  0.024
   20  0.025  0.000  0.000  0.025
   21  0.025  0.000  0.000  0.025
   22  0.024  0.000  0.000  0.025
   23  0.025  0.000  0.000  0.025
   24  0.024  0.000  0.000  0.025
   25  0.023  0.000  0.000  0.024
   26  0.023  0.000  0.000  0.024
   27  0.024  0.000  0.000  0.025
   28  0.005  0.000  0.000  0.005
   29  0.004  0.001  0.000  0.005
   30  0.004  0.001  0.000  0.005
   31  0.004  0.001  0.000  0.005
   32  0.004  0.001  0.000  0.005
   33  0.004  0.001  0.000  0.005
   34  0.004  0.001  0.000  0.005
   35  0.005  0.000  0.000  0.005
   36  0.001  0.005  0.006  0.012
   37  0.009  0.000  0.000  0.010
tot    0.561  0.017  0.010  0.588
 
band     3 # energy   -7.43715254 # occ.  2.00000000
 
ion      s      p      d    tot
    1  0.017  0.000  0.001  0.018
    2  0.016  0.000  0.001  0.018
    3  0.016  0.000  0.001  0.018
    4  0.016  0.000  0.001  0.018
    5  0.016  0.000  0.001  0.018
    6  0.016  0.000  0.001  0.018
    7  0.016  0.000  0.001  0.018
    8  0.016  0.000  0.001  0.018
    9  0.016  0.000  0.001  0.018
   10  0.011  0.001  0.002  0.015
   11  0.010  0.001  0.003  0.014
   12  0.011  0.001  0.002  0.015
   13  0.010  0.001  0.003  0.014
   14  0.010  0.001  0.003  0.014
   15  0.010  0.001  0.003  0.014
   16  0.011  0.001  0.002  0.015
   17  0.010  0.001  0.003  0.014
   18  0.010  0.001  0.003  0.014
   19  0.014  0.001  0.003  0.018
   20  0.013  0.001  0.003  0.018
   21  0.013  0.001  0.003  0.018
   22  0.015  0.001  0.003  0.019
   23  0.013  0.001  0.003  0.018
   24  0.015  0.001  0.003  0.019
   25  0.014  0.001  0.003  0.018
   26  0.014  0.001  0.003  0.018
   27  0.015  0.001  0.003  0.019
   28  0.014  0.000  0.001  0.015
   29  0.014  0.001  0.001  0.015
   30  0.014  0.001  0.001  0.015
   31  0.014  0.001  0.001  0.015
   32  0.014  0.001  0.001  0.015
   33  0.014  0.001  0.001  0.015
   34  0.014  0.001  0.001  0.015
   35  0.014  0.001  0.000  0.015
   36  0.007  0.004  0.012  0.023
   37  0.007  0.000  0.000  0.007
tot    0.490  0.036  0.079  0.606
 
band     4 # energy   -6.52538111 # occ.  2.00000000
 
ion      s      p      d    tot
    1  0.000  0.001  0.007  0.008
    2  0.004  0.000  0.005  0.010
    3  0.004  0.000  0.005  0.010
    4  0.004  0.000  0.005  0.010
    5  0.002  0.000  0.002  0.004
    6  0.004  0.000  0.005  0.010
    7  0.004  0.000  0.005  0.010
    8  0.004  0.000  0.005  0.010
    9  0.022  0.001  0.001  0.023
   10  0.008  0.001  0.015  0.024
   11  0.007  0.002  0.007  0.016
   12  0.008  0.001  0.015  0.023
   13  0.007  0.002  0.007  0.016
   14  0.007  0.002  0.007  0.016
   15  0.010  0.001  0.007  0.018
   16  0.008  0.001  0.015  0.023
   17  0.010  0.001  0.007  0.018
   18  0.010  0.001  0.007  0.018
   19  0.001  0.001  0.020  0.022
   20  0.028  0.002  0.018  0.048
   21  0.028  0.002  0.018  0.047
   22  0.006  0.002  0.007  0.015
   23  0.028  0.002  0.018  0.047
   24  0.006  0.002  0.007  0.015
   25  0.001  0.001  0.020  0.021
   26  0.001  0.001  0.020  0.022
   27  0.006  0.002  0.007  0.015
   28  0.011  0.000  0.003  0.014
   29  0.009  0.000  0.008  0.017
   30  0.009  0.000  0.008  0.017
   31  0.009  0.000  0.008  0.017
   32  0.009  0.000  0.008  0.017
   33  0.009  0.000  0.008  0.017
   34  0.009  0.000  0.008  0.017
   35  0.023  0.000  0.003  0.026
   36  0.000  0.006  0.015  0.021
   37  0.002  0.001  0.000  0.003
tot    0.319  0.037  0.334  0.690
 
band     5 # energy   -6.51477406 # occ.  2.00000000
 
ion      s      p      d    tot
    1  0.000  0.001  0.008  0.008
    2  0.003  0.001  0.002  0.006
    3  0.000  0.000  0.003  0.003
    4  0.003  0.001  0.002  0.006
    5  0.000  0.001  0.005  0.006
    6  0.006  0.001  0.003  0.010
    7  0.000  0.000  0.003  0.003
    8  0.006  0.001  0.003  0.010
    9  0.000  0.000  0.001  0.001
   10  0.038  0.002  0.005  0.046
   11  0.011  0.003  0.019  0.033
   12  0.010  0.001  0.026  0.037
   13  0.011  0.003  0.019  0.033
   14  0.045  0.001  0.011  0.057
   15  0.000  0.002  0.007  0.009
   16  0.010  0.001  0.026  0.037
   17  0.000  0.002  0.007  0.009
   18  0.000  0.000  0.011  0.011
   19  0.003  0.003  0.006  0.013
   20  0.067  0.001  0.010  0.079
   21  0.017  0.002  0.030  0.049
   22  0.003  0.001  0.021  0.025
   23  0.017  0.002  0.031  0.049
   24  0.013  0.002  0.005  0.020
   25  0.014  0.000  0.014  0.028
   26  0.003  0.003  0.006  0.013
   27  0.003  0.001  0.021  0.025
   28  0.000  0.000  0.001  0.002
   29  0.006  0.001  0.004  0.012
   30  0.002  0.001  0.003  0.006
   31  0.006  0.001  0.004  0.012
   32  0.001  0.000  0.003  0.004
   33  0.002  0.001  0.003  0.006
   34  0.001  0.000  0.003  0.004
   35  0.000  0.000  0.004  0.004
   36  0.000  0.002  0.017  0.020
   37  0.000  0.000  0.000  0.000
tot    0.305  0.043  0.348  0.696
 
band     6 # energy   -6.51471421 # occ.  2.00000000
 
ion      s      p      d    tot
    1  0.000  0.001  0.008  0.008
    2  0.003  0.001  0.003  0.007
    3  0.006  0.001  0.003  0.009
    4  0.003  0.001  0.003  0.007
    5  0.000  0.001  0.005  0.006
    6  0.000  0.000  0.002  0.003
    7  0.006  0.001  0.003  0.009
    8  0.000  0.000  0.002  0.003
    9  0.000  0.000  0.001  0.001
   10  0.000  0.000  0.033  0.033
   11  0.034  0.001  0.014  0.049
   12  0.029  0.002  0.012  0.043
   13  0.034  0.001  0.014  0.049
   14  0.000  0.004  0.021  0.025
   15  0.000  0.001  0.010  0.011
   16  0.029  0.002  0.012  0.043
   17  0.000  0.001  0.009  0.011
   18  0.000  0.003  0.006  0.009
   19  0.010  0.001  0.011  0.023
   20  0.000  0.002  0.037  0.039
   21  0.051  0.001  0.017  0.069
   22  0.010  0.001  0.010  0.022
   23  0.051  0.001  0.017  0.069
   24  0.000  0.001  0.026  0.026
   25  0.000  0.004  0.003  0.008
   26  0.010  0.001  0.011  0.023
   27  0.010  0.001  0.010  0.022
   28  0.000  0.000  0.001  0.002
   29  0.000  0.000  0.003  0.003
   30  0.004  0.001  0.004  0.009
   31  0.000  0.000  0.003  0.003
   32  0.005  0.001  0.004  0.010
   33  0.004  0.001  0.004  0.009
   34  0.005  0.001  0.004  0.010
   35  0.000  0.000  0.004  0.004
   36  0.000  0.002  0.017  0.019
   37  0.000  0.000  0.000  0.000
tot    0.305  0.043  0.348  0.696
 
band     7 # energy   -6.47613983 # occ.  2.00000000
 
ion      s      p      d    tot
    1  0.029  0.000  0.014  0.043
    2  0.018  0.000  0.018  0.036
    3  0.018  0.000  0.018  0.036
    4  0.018  0.000  0.018  0.036
    5  0.019  0.000  0.019  0.038
    6  0.018  0.000  0.018  0.036
    7  0.018  0.000  0.018  0.036
    8  0.018  0.000  0.018  0.036
    9  0.009  0.000  0.020  0.029
   10  0.002  0.000  0.030  0.032
   11  0.005  0.001  0.024  0.030
   12  0.002  0.000  0.030  0.032
   13  0.005  0.001  0.024  0.030
   14  0.005  0.001  0.024  0.030
   15  0.021  0.001  0.017  0.040
   16  0.002  0.000  0.030  0.032
   17  0.021  0.001  0.017  0.040
   18  0.021  0.001  0.017  0.040
   19  0.001  0.000  0.006  0.007
   20  0.004  0.000  0.006  0.011
   21  0.005  0.000  0.006  0.011
   22  0.002  0.001  0.005  0.008
   23  0.005  0.000  0.006  0.011
   24  0.002  0.001  0.005  0.008
   25  0.001  0.000  0.006  0.007
   26  0.001  0.000  0.006  0.007
   27  0.002  0.001  0.005  0.008
   28  0.001  0.000  0.000  0.001
   29  0.001  0.000  0.001  0.001
   30  0.001  0.000  0.001  0.001
   31  0.001  0.000  0.001  0.001
   32  0.001  0.000  0.001  0.001
   33  0.001  0.000  0.001  0.001
   34  0.001  0.000  0.001  0.001
   35  0.000  0.000  0.000  0.000
   36  0.002  0.002  0.000  0.005
   37  0.002  0.000  0.000  0.002
tot    0.276  0.016  0.433  0.725
 
band     8 # energy   -6.46108011 # occ.  2.00000000
 
ion      s      p      d    tot
    1  0.001  0.000  0.000  0.001
    2  0.000  0.000  0.003  0.004
    3  0.000  0.000  0.003  0.004
    4  0.000  0.000  0.003  0.004
    5  0.010  0.001  0.001  0.012
    6  0.000  0.000  0.003  0.004
    7  0.000  0.000  0.003  0.004
    8  0.000  0.000  0.003  0.004
    9  0.003  0.000  0.001  0.005
   10  0.003  0.002  0.011  0.016
   11  0.022  0.001  0.002  0.025
   12  0.003  0.002  0.011  0.016
   13  0.022  0.001  0.002  0.025
   14  0.021  0.001  0.002  0.025
   15  0.005  0.000  0.020  0.025
   16  0.003  0.002  0.011  0.016
   17  0.005  0.000  0.020  0.025
   18  0.004  0.000  0.020  0.025
   19  0.028  0.001  0.011  0.040
   20  0.003  0.001  0.025  0.029
   21  0.003  0.001  0.025  0.029
   22  0.002  0.001  0.024  0.027
   23  0.003  0.001  0.025  0.029
   24  0.002  0.001  0.024  0.027
   25  0.027  0.001  0.011  0.040
   26  0.028  0.001  0.011  0.040
   27  0.002  0.001  0.024  0.027
   28  0.000  0.001  0.012  0.013
   29  0.009  0.000  0.011  0.020
   30  0.009  0.000  0.011  0.020
   31  0.009  0.000  0.011  0.020
   32  0.009  0.000  0.011  0.020
   33  0.009  0.000  0.011  0.020
   34  0.009  0.000  0.011  0.020
   35  0.011  0.000  0.004  0.014
   36  0.018  0.001  0.026  0.046
   37  0.001  0.000  0.000  0.002
tot    0.280  0.030  0.413  0.722
 
band     9 # energy   -6.44285294 # occ.  2.00000000
 
ion      s      p      d    tot
    1  0.000  0.001  0.003  0.003
    2  0.004  0.001  0.003  0.008
    3  0.000  0.000  0.003  0.004
    4  0.004  0.001  0.003  0.008
    5  0.000  0.000  0.005  0.005
    6  0.007  0.001  0.004  0.012
    7  0.000  0.000  0.003  0.004
    8  0.007  0.001  0.004  0.012
    9  0.000  0.001  0.010  0.011
   10  0.000  0.005  0.003  0.008
   11  0.009  0.001  0.011  0.021
   12  0.015  0.001  0.013  0.029
   13  0.008  0.001  0.012  0.021
   14  0.000  0.001  0.027  0.028
   15  0.047  0.002  0.014  0.062
   16  0.015  0.001  0.013  0.029
   17  0.046  0.001  0.015  0.062
   18  0.000  0.001  0.039  0.041
   19  0.030  0.002  0.011  0.043
   20  0.000  0.003  0.009  0.012
   21  0.000  0.001  0.013  0.014
   22  0.031  0.001  0.014  0.046
   23  0.000  0.001  0.013  0.014
   24  0.000  0.004  0.018  0.022
   25  0.000  0.000  0.038  0.038
   26  0.029  0.002  0.012  0.043
   27  0.031  0.001  0.013  0.046
   28  0.000  0.000  0.006  0.007
   29  0.005  0.001  0.003  0.009
   30  0.003  0.001  0.003  0.006
   31  0.005  0.001  0.003  0.009
   32  0.000  0.000  0.002  0.003
   33  0.003  0.001  0.003  0.006
   34  0.000  0.000  0.002  0.002
   35  0.000  0.001  0.004  0.005
   36  0.000  0.000  0.001  0.001
   37  0.000  0.000  0.000  0.000
tot    0.301  0.042  0.352  0.694
 
band    10 # energy   -6.44281718 # occ.  2.00000000
 
ion      s      p      d    tot
    1  0.000  0.001  0.003  0.003
    2  0.004  0.001  0.004  0.008
    3  0.007  0.001  0.003  0.012
    4  0.003  0.001  0.004  0.008
    5  0.000  0.000  0.005  0.005
    6  0.001  0.000  0.003  0.004
    7  0.007  0.001  0.003  0.012
    8  0.001  0.000  0.003  0.004
    9  0.000  0.001  0.010  0.011
   10  0.021  0.000  0.016  0.037
   11  0.003  0.001  0.022  0.026
   12  0.005  0.003  0.007  0.015
   13  0.003  0.001  0.022  0.026
   14  0.011  0.001  0.006  0.019
   15  0.015  0.001  0.031  0.047
   16  0.005  0.003  0.006  0.014
   17  0.016  0.001  0.031  0.048
   18  0.062  0.002  0.006  0.070
   19  0.010  0.001  0.029  0.040
   20  0.000  0.001  0.014  0.015
   21  0.000  0.002  0.010  0.012
   22  0.011  0.003  0.017  0.031
   23  0.000  0.002  0.010  0.012
   24  0.040  0.001  0.012  0.053
   25  0.039  0.002  0.003  0.044
   26  0.010  0.001  0.029  0.040
   27  0.011  0.003  0.017  0.030
   28  0.000  0.000  0.006  0.007
   29  0.000  0.000  0.002  0.003
   30  0.003  0.001  0.002  0.005
   31  0.000  0.000  0.002  0.003
   32  0.005  0.001  0.003  0.009
   33  0.003  0.001  0.002  0.005
   34  0.005  0.001  0.003  0.009
   35  0.000  0.001  0.004  0.005
   36  0.000  0.000  0.001  0.001
   37  0.000  0.000  0.000  0.000
tot    0.301  0.042  0.352  0.694
 
band    11 # energy   -6.44038195 # occ.  2.00000000
 
ion      s      p      d    tot
    1  0.008  0.001  0.002  0.011
    2  0.000  0.000  0.004  0.005
    3  0.000  0.000  0.004  0.005
    4  0.000  0.000  0.004  0.005
    5  0.007  0.001  0.000  0.008
    6  0.000  0.000  0.004  0.005
    7  0.000  0.000  0.004  0.005
    8  0.000  0.000  0.004  0.005
    9  0.001  0.000  0.001  0.002
   10  0.025  0.002  0.003  0.029
   11  0.005  0.000  0.026  0.030
   12  0.026  0.002  0.003  0.030
   13  0.005  0.000  0.026  0.030
   14  0.005  0.000  0.026  0.031
   15  0.001  0.002  0.012  0.015
   16  0.026  0.002  0.003  0.030
   17  0.001  0.002  0.012  0.015
   18  0.001  0.002  0.012  0.014
   19  0.005  0.002  0.014  0.021
   20  0.003  0.001  0.025  0.030
   21  0.003  0.001  0.026  0.030
   22  0.024  0.001  0.017  0.042
   23  0.003  0.001  0.026  0.030
   24  0.025  0.001  0.017  0.042
   25  0.006  0.002  0.014  0.022
   26  0.005  0.002  0.014  0.021
   27  0.024  0.001  0.017  0.042
   28  0.023  0.001  0.004  0.028
   29  0.008  0.000  0.009  0.016
   30  0.008  0.000  0.009  0.017
   31  0.008  0.000  0.009  0.016
   32  0.007  0.000  0.009  0.016
   33  0.008  0.000  0.009  0.017
   34  0.007  0.000  0.009  0.016
   35  0.000  0.001  0.013  0.014
   36  0.005  0.000  0.013  0.018
   37  0.001  0.000  0.000  0.001
tot    0.281  0.030  0.403  0.714
 
band    12 # energy   -6.01634908 # occ.  2.00000000
 
ion      s      p      d    tot
    1  0.000  0.001  0.004  0.005
    2  0.001  0.001  0.005  0.007
    3  0.010  0.002  0.004  0.016
    4  0.001  0.001  0.005  0.007
    5  0.000  0.002  0.010  0.011
    6  0.004  0.001  0.004  0.008
    7  0.010  0.002  0.004  0.016
    8  0.004  0.001  0.004  0.008
    9  0.000  0.000  0.009  0.009
   10  0.000  0.001  0.048  0.049
   11  0.019  0.001  0.020  0.040
   12  0.007  0.001  0.019  0.027
   13  0.019  0.001  0.020  0.040
   14  0.000  0.000  0.053  0.053
   15  0.002  0.000  0.020  0.023
   16  0.007  0.001  0.019  0.027
   17  0.002  0.000  0.020  0.023
   18  0.000  0.001  0.012  0.013
   19  0.003  0.000  0.017  0.020
   20  0.000  0.000  0.072  0.073
   21  0.015  0.001  0.023  0.039
   22  0.004  0.001  0.018  0.024
   23  0.015  0.001  0.023  0.039
   24  0.000  0.001  0.035  0.036
   25  0.000  0.001  0.010  0.011
   26  0.003  0.000  0.018  0.020
   27  0.004  0.001  0.018  0.024
   28  0.000  0.000  0.007  0.007
   29  0.003  0.001  0.004  0.008
   30  0.008  0.001  0.005  0.014
   31  0.003  0.001  0.004  0.008
   32  0.001  0.001  0.004  0.005
   33  0.008  0.001  0.005  0.014
   34  0.001  0.000  0.004  0.005
   35  0.000  0.000  0.002  0.003
   36  0.000  0.003  0.017  0.019
   37  0.000  0.000  0.000  0.000
tot    0.154  0.031  0.566  0.751
 
band    13 # energy   -6.01631695 # occ.  2.00000000
 
ion      s      p      d    tot
    1  0.000  0.001  0.004  0.005
    2  0.009  0.001  0.004  0.014
    3  0.000  0.000  0.004  0.005
    4  0.009  0.001  0.004  0.014
    5  0.000  0.002  0.010  0.012
    6  0.006  0.001  0.005  0.012
    7  0.000  0.000  0.004  0.005
    8  0.006  0.001  0.005  0.012
    9  0.000  0.000  0.009  0.009
   10  0.009  0.002  0.010  0.020
   11  0.006  0.000  0.042  0.049
   12  0.002  0.001  0.039  0.042
   13  0.006  0.000  0.042  0.049
   14  0.025  0.001  0.009  0.036
   15  0.001  0.001  0.015  0.016
   16  0.002  0.001  0.039  0.042
   17  0.001  0.001  0.015  0.016
   18  0.003  0.000  0.022  0.026
   19  0.001  0.001  0.012  0.014
   20  0.020  0.002  0.006  0.028
   21  0.005  0.000  0.056  0.061
   22  0.001  0.001  0.029  0.032
   23  0.005  0.000  0.056  0.061
   24  0.005  0.001  0.013  0.020
   25  0.004  0.000  0.020  0.024
   26  0.001  0.001  0.012  0.014
   27  0.001  0.001  0.029  0.032
   28  0.000  0.000  0.007  0.007
   29  0.005  0.001  0.005  0.010
   30  0.000  0.000  0.004  0.004
   31  0.005  0.001  0.005  0.010
   32  0.007  0.001  0.005  0.013
   33  0.000  0.000  0.004  0.004
   34  0.007  0.001  0.005  0.013
   35  0.000  0.000  0.002  0.003
   36  0.000  0.003  0.017  0.019
   37  0.000  0.000  0.000  0.000
tot    0.154  0.031  0.566  0.751
 
band    14 # energy   -6.00290054 # occ.  2.00000000
 
ion      s      p      d    tot
    1  0.018  0.002  0.001  0.020
    2  0.000  0.001  0.007  0.007
    3  0.000  0.001  0.007  0.007
    4  0.000  0.001  0.007  0.007
    5  0.004  0.001  0.002  0.007
    6  0.000  0.001  0.007  0.007
    7  0.000  0.001  0.007  0.007
    8  0.000  0.001  0.007  0.007
    9  0.004  0.000  0.000  0.005
   10  0.006  0.001  0.012  0.020
   11  0.008  0.001  0.026  0.035
   12  0.006  0.001  0.012  0.020
   13  0.008  0.001  0.026  0.035
   14  0.009  0.001  0.025  0.035
   15  0.000  0.000  0.037  0.038
   16  0.006  0.001  0.012  0.020
   17  0.000  0.000  0.037  0.038
   18  0.000  0.000  0.037  0.038
   19  0.010  0.002  0.005  0.017
   20  0.000  0.000  0.041  0.042
   21  0.000  0.000  0.041  0.042
   22  0.007  0.001  0.037  0.045
   23  0.000  0.000  0.041  0.042
   24  0.007  0.001  0.037  0.045
   25  0.010  0.002  0.005  0.017
   26  0.010  0.002  0.005  0.017
   27  0.007  0.001  0.037  0.045
   28  0.016  0.002  0.001  0.019
   29  0.000  0.001  0.008  0.009
   30  0.000  0.001  0.008  0.009
   31  0.000  0.001  0.008  0.009
   32  0.000  0.001  0.008  0.009
   33  0.000  0.001  0.008  0.009
   34  0.000  0.001  0.008  0.009
   35  0.001  0.000  0.003  0.004
   36  0.008  0.002  0.003  0.013
   37  0.001  0.000  0.000  0.001
tot    0.151  0.031  0.572  0.754
 
band    15 # energy   -5.97989597 # occ.  2.00000000
 
ion      s      p      d    tot
    1  0.000  0.000  0.002  0.002
    2  0.000  0.001  0.008  0.009
    3  0.000  0.001  0.008  0.009
    4  0.000  0.001  0.008  0.009
    5  0.015  0.001  0.000  0.016
    6  0.000  0.001  0.008  0.009
    7  0.000  0.001  0.008  0.009
    8  0.000  0.001  0.008  0.009
    9  0.016  0.002  0.002  0.019
   10  0.004  0.000  0.042  0.046
   11  0.002  0.001  0.027  0.030
   12  0.004  0.000  0.042  0.046
   13  0.002  0.001  0.027  0.030
   14  0.002  0.001  0.027  0.030
   15  0.012  0.002  0.010  0.024
   16  0.004  0.000  0.042  0.046
   17  0.012  0.002  0.010  0.024
   18  0.012  0.002  0.010  0.024
   19  0.002  0.000  0.039  0.041
   20  0.009  0.002  0.021  0.032
   21  0.009  0.002  0.021  0.032
   22  0.005  0.001  0.018  0.024
   23  0.009  0.002  0.021  0.032
   24  0.005  0.001  0.018  0.024
   25  0.002  0.000  0.039  0.041
   26  0.002  0.000  0.039  0.041
   27  0.005  0.001  0.018  0.024
   28  0.001  0.000  0.002  0.003
   29  0.000  0.000  0.006  0.006
   30  0.000  0.000  0.006  0.006
   31  0.000  0.000  0.006  0.006
   32  0.000  0.000  0.006  0.006
   33  0.000  0.000  0.006  0.006
   34  0.000  0.000  0.006  0.006
   35  0.009  0.001  0.001  0.011
   36  0.008  0.007  0.000  0.015
   37  0.004  0.000  0.000  0.005
tot    0.157  0.036  0.560  0.753
 
band    16 # energy   -5.95863609 # occ.  2.00000000
 
ion      s      p      d    tot
    1  0.000  0.001  0.013  0.014
    2  0.009  0.001  0.004  0.014
    3  0.001  0.000  0.005  0.006
    4  0.009  0.001  0.004  0.014
    5  0.000  0.000  0.006  0.006
    6  0.005  0.001  0.005  0.011
    7  0.000  0.000  0.005  0.006
    8  0.005  0.001  0.005  0.011
    9  0.000  0.001  0.006  0.007
   10  0.000  0.001  0.033  0.034
   11  0.000  0.001  0.020  0.021
   12  0.010  0.000  0.022  0.032
   13  0.000  0.001  0.020  0.021
   14  0.000  0.001  0.016  0.018
   15  0.011  0.002  0.019  0.032
   16  0.010  0.000  0.021  0.032
   17  0.011  0.002  0.020  0.033
   18  0.000  0.000  0.061  0.062
   19  0.015  0.001  0.019  0.035
   20  0.000  0.002  0.021  0.023
   21  0.000  0.001  0.023  0.023
   22  0.014  0.001  0.021  0.036
   23  0.000  0.001  0.023  0.023
   24  0.000  0.001  0.029  0.030
   25  0.000  0.000  0.065  0.066
   26  0.014  0.001  0.021  0.036
   27  0.015  0.001  0.021  0.036
   28  0.000  0.001  0.005  0.006
   29  0.005  0.001  0.004  0.010
   30  0.000  0.000  0.005  0.005
   31  0.006  0.001  0.004  0.011
   32  0.006  0.001  0.003  0.010
   33  0.000  0.000  0.005  0.005
   34  0.006  0.001  0.003  0.010
   35  0.000  0.001  0.009  0.009
   36  0.000  0.000  0.003  0.003
   37  0.000  0.000  0.000  0.000
tot    0.152  0.030  0.567  0.749
 
band    17 # energy   -5.95863527 # occ.  2.00000000
 
ion      s      p      d    tot
    1  0.000  0.001  0.013  0.014
    2  0.001  0.001  0.005  0.007
    3  0.009  0.001  0.004  0.015
    4  0.001  0.001  0.005  0.006
    5  0.000  0.000  0.006  0.006
    6  0.004  0.001  0.004  0.009
    7  0.009  0.001  0.004  0.015
    8  0.005  0.001  0.004  0.009
    9  0.000  0.001  0.006  0.007
   10  0.014  0.000  0.017  0.031
   11  0.000  0.001  0.017  0.019
   12  0.004  0.001  0.029  0.033
   13  0.000  0.001  0.018  0.019
   14  0.000  0.001  0.021  0.022
   15  0.004  0.001  0.048  0.052
   16  0.003  0.001  0.030  0.033
   17  0.004  0.001  0.047  0.051
   18  0.015  0.002  0.006  0.023
   19  0.005  0.001  0.051  0.056
   20  0.000  0.000  0.023  0.023
   21  0.000  0.001  0.022  0.023
   22  0.005  0.001  0.026  0.032
   23  0.000  0.001  0.022  0.023
   24  0.019  0.001  0.018  0.038
   25  0.019  0.002  0.005  0.026
   26  0.005  0.001  0.049  0.055
   27  0.005  0.001  0.027  0.032
   28  0.000  0.001  0.005  0.006
   29  0.002  0.000  0.004  0.006
   30  0.008  0.001  0.003  0.012
   31  0.002  0.000  0.004  0.006
   32  0.002  0.001  0.005  0.007
   33  0.008  0.001  0.003  0.012
   34  0.002  0.001  0.005  0.007
   35  0.000  0.001  0.009  0.009
   36  0.000  0.000  0.003  0.003
   37  0.000  0.000  0.000  0.000
tot    0.152  0.030  0.567  0.749
 
band    18 # energy   -5.63290496 # occ.  2.00000000
 
ion      s      p      d    tot
    1  0.010  0.000  0.008  0.017
    2  0.000  0.001  0.015  0.016
    3  0.000  0.001  0.015  0.016
    4  0.000  0.001  0.015  0.016
    5  0.003  0.000  0.003  0.006
    6  0.000  0.001  0.015  0.016
    7  0.000  0.001  0.015  0.016
    8  0.000  0.001  0.015  0.016
    9  0.022  0.001  0.002  0.024
   10  0.001  0.000  0.024  0.025
   11  0.000  0.000  0.028  0.029
   12  0.001  0.000  0.024  0.025
   13  0.000  0.000  0.028  0.029
   14  0.000  0.000  0.028  0.028
   15  0.000  0.000  0.029  0.029
   16  0.001  0.000  0.024  0.025
   17  0.000  0.000  0.029  0.029
   18  0.000  0.000  0.029  0.029
   19  0.000  0.000  0.025  0.025
   20  0.001  0.000  0.036  0.036
   21  0.001  0.000  0.035  0.036
   22  0.000  0.000  0.029  0.029
   23  0.001  0.000  0.035  0.036
   24  0.000  0.000  0.029  0.029
   25  0.000  0.000  0.025  0.025
   26  0.000  0.000  0.025  0.025
   27  0.000  0.000  0.029  0.029
   28  0.000  0.000  0.008  0.008
   29  0.000  0.001  0.017  0.018
   30  0.000  0.001  0.017  0.018
   31  0.000  0.001  0.017  0.018
   32  0.000  0.001  0.017  0.018
   33  0.000  0.001  0.017  0.018
   34  0.000  0.001  0.017  0.018
   35  0.016  0.001  0.000  0.018
   36  0.011  0.000  0.017  0.028
   37  0.000  0.000  0.000  0.000
tot    0.067  0.017  0.740  0.824
 
band    19 # energy   -5.62314471 # occ.  2.00000000
 
ion      s      p      d    tot
    1  0.000  0.000  0.018  0.018
    2  0.001  0.001  0.008  0.010
    3  0.003  0.000  0.012  0.016
    4  0.001  0.001  0.008  0.010
    5  0.000  0.001  0.020  0.021
    6  0.009  0.001  0.008  0.017
    7  0.003  0.000  0.012  0.016
    8  0.009  0.001  0.008  0.017
    9  0.000  0.001  0.003  0.004
   10  0.000  0.000  0.023  0.023
   11  0.000  0.000  0.056  0.057
   12  0.000  0.000  0.013  0.013
   13  0.000  0.000  0.056  0.057
   14  0.000  0.000  0.051  0.052
   15  0.000  0.000  0.020  0.020
   16  0.000  0.000  0.013  0.013
   17  0.000  0.000  0.020  0.020
   18  0.000  0.000  0.032  0.033
   19  0.000  0.000  0.008  0.008
   20  0.001  0.000  0.080  0.082
   21  0.000  0.000  0.052  0.053
   22  0.000  0.000  0.033  0.033
   23  0.000  0.000  0.052  0.053
   24  0.001  0.000  0.024  0.025
   25  0.000  0.000  0.015  0.015
   26  0.000  0.000  0.007  0.008
   27  0.000  0.000  0.033  0.033
   28  0.000  0.000  0.005  0.005
   29  0.006  0.001  0.012  0.018
   30  0.000  0.000  0.009  0.009
   31  0.006  0.001  0.012  0.018
   32  0.004  0.001  0.005  0.010
   33  0.000  0.000  0.009  0.009
   34  0.004  0.001  0.005  0.010
   35  0.000  0.000  0.014  0.014
   36  0.000  0.002  0.015  0.017
   37  0.000  0.000  0.000  0.000
tot    0.049  0.014  0.774  0.837
 
band    20 # energy   -5.62312183 # occ.  2.00000000
 
ion      s      p      d    tot
    1  0.000  0.000  0.018  0.018
    2  0.007  0.000  0.011  0.019
    3  0.006  0.001  0.007  0.013
    4  0.007  0.000  0.011  0.019
    5  0.000  0.001  0.020  0.021
    6  0.000  0.000  0.011  0.012
    7  0.006  0.001  0.007  0.013
    8  0.000  0.000  0.011  0.012
    9  0.000  0.001  0.003  0.004
   10  0.000  0.000  0.009  0.009
   11  0.000  0.000  0.053  0.054
   12  0.000  0.000  0.019  0.020
   13  0.000  0.000  0.053  0.054
   14  0.000  0.000  0.058  0.058
   15  0.000  0.000  0.028  0.028
   16  0.000  0.000  0.019  0.020
   17  0.000  0.000  0.028  0.028
   18  0.000  0.000  0.016  0.016
   19  0.000  0.000  0.013  0.013
   20  0.000  0.000  0.043  0.043
   21  0.001  0.000  0.071  0.072
   22  0.000  0.000  0.027  0.028
   23  0.001  0.000  0.071  0.072
   24  0.000  0.000  0.036  0.036
   25  0.000  0.000  0.005  0.005
   26  0.000  0.000  0.013  0.013
   27  0.000  0.000  0.027  0.028
   28  0.000  0.000  0.005  0.005
   29  0.001  0.000  0.006  0.007
   30  0.006  0.001  0.008  0.015
   31  0.001  0.000  0.006  0.007
   32  0.003  0.000  0.012  0.015
   33  0.006  0.001  0.008  0.015
   34  0.003  0.000  0.012  0.015
   35  0.000  0.000  0.014  0.014
   36  0.000  0.002  0.015  0.017
   37  0.000  0.000  0.000  0.000
tot    0.049  0.014  0.774  0.837
 
band    21 # energy   -5.59194174 # occ.  2.00000000
 
ion      s      p      d    tot
    1  0.008  0.001  0.000  0.009
    2  0.000  0.001  0.014  0.014
    3  0.000  0.001  0.014  0.014
    4  0.000  0.001  0.014  0.014
    5  0.013  0.000  0.008  0.022
    6  0.000  0.001  0.014  0.014
    7  0.000  0.001  0.014  0.014
    8  0.000  0.001  0.014  0.014
    9  0.001  0.000  0.011  0.012
   10  0.000  0.000  0.028  0.028
   11  0.000  0.000  0.032  0.032
   12  0.000  0.000  0.028  0.028
   13  0.000  0.000  0.032  0.032
   14  0.000  0.000  0.032  0.032
   15  0.000  0.000  0.040  0.040
   16  0.000  0.000  0.028  0.028
   17  0.000  0.000  0.040  0.040
   18  0.000  0.000  0.039  0.040
   19  0.000  0.000  0.027  0.027
   20  0.000  0.000  0.030  0.030
   21  0.000  0.000  0.030  0.030
   22  0.001  0.000  0.032  0.033
   23  0.000  0.000  0.030  0.030
   24  0.001  0.000  0.032  0.033
   25  0.000  0.000  0.027  0.027
   26  0.000  0.000  0.027  0.027
   27  0.001  0.000  0.032  0.033
   28  0.015  0.000  0.003  0.018
   29  0.000  0.001  0.015  0.015
   30  0.000  0.001  0.015  0.015
   31  0.000  0.001  0.015  0.015
   32  0.000  0.001  0.015  0.015
   33  0.000  0.001  0.015  0.015
   34  0.000  0.001  0.015  0.015
   35  0.007  0.000  0.007  0.015
   36  0.002  0.002  0.000  0.005