PROCAR new format
# of k-points:   10         # of bands:  252         # of ions:   37

 k-point     1 :    0.00000000 0.00000000 0.00000000     weight = 0.01562500

band     1 # energy   -8.15368921 # occ.  2.00000000
 
ion      s      p      d    tot
    1  0.007  0.001  0.000  0.007
    2  0.006  0.001  0.000  0.007
    3  0.006  0.001  0.000  0.007
    4  0.006  0.001  0.000  0.007
    5  0.006  0.001  0.000  0.007
    6  0.006  0.001  0.000  0.007
    7  0.006  0.001  0.000  0.007
    8  0.006  0.001  0.000  0.007
    9  0.007  0.001  0.000  0.007
   10  0.027  0.000  0.000  0.027
   11  0.027  0.000  0.000  0.027
   12  0.027  0.000  0.000  0.027
   13  0.027  0.000  0.000  0.027
   14  0.027  0.000  0.000  0.027
   15  0.027  0.000  0.000  0.027
   16  0.027  0.000  0.000  0.027
   17  0.027  0.000  0.000  0.027
   18  0.027  0.000  0.000  0.027
   19  0.024  0.000  0.000  0.025
   20  0.026  0.000  0.000  0.026
   21  0.026  0.000  0.000  0.026
   22  0.025  0.000  0.000  0.025
   23  0.026  0.000  0.000  0.026
   24  0.025  0.000  0.000  0.025
   25  0.024  0.000  0.000  0.025
   26  0.024  0.000  0.000  0.025
   27  0.025  0.000  0.000  0.025
   28  0.005  0.000  0.000  0.005
   29  0.005  0.000  0.000  0.005
   30  0.005  0.000  0.000  0.005
   31  0.005  0.000  0.000  0.005
   32  0.005  0.000  0.000  0.005
   33  0.005  0.000  0.000  0.005
   34  0.005  0.000  0.000  0.005
   35  0.005  0.000  0.000  0.005
   36  0.005  0.000  0.000  0.005
   37  0.000  0.000  0.000  0.000
tot    0.566  0.012  0.003  0.581
 
band     2 # energy   -6.96986212 # occ.  2.00000000
 
ion      s      p      d    tot
    1  0.017  0.000  0.001  0.019
    2  0.017  0.000  0.001  0.018
    3  0.017  0.000  0.001  0.018
    4  0.017  0.000  0.001  0.018
    5  0.016  0.000  0.001  0.018
    6  0.017  0.000  0.001  0.018
    7  0.017  0.000  0.001  0.018
    8  0.017  0.000  0.001  0.018
    9  0.017  0.000  0.001  0.018
   10  0.011  0.002  0.003  0.015
   11  0.010  0.002  0.003  0.014
   12  0.011  0.002  0.003  0.015
   13  0.010  0.002  0.003  0.014
   14  0.010  0.002  0.003  0.014
   15  0.010  0.002  0.003  0.015
   16  0.011  0.002  0.003  0.015
   17  0.010  0.002  0.003  0.015
   18  0.010  0.002  0.003  0.015
   19  0.014  0.001  0.004  0.019
   20  0.015  0.001  0.004  0.020
   21  0.015  0.001  0.004  0.020
   22  0.014  0.001  0.003  0.019
   23  0.015  0.001  0.004  0.020
   24  0.014  0.001  0.003  0.019
   25  0.014  0.001  0.004  0.019
   26  0.014  0.001  0.004  0.019
   27  0.014  0.001  0.003  0.019
   28  0.014  0.001  0.000  0.014
   29  0.013  0.001  0.000  0.014
   30  0.013  0.001  0.000  0.014
   31  0.013  0.001  0.000  0.014
   32  0.013  0.001  0.000  0.014
   33  0.013  0.001  0.000  0.014
   34  0.013  0.001  0.000  0.014
   35  0.013  0.001  0.000  0.014
   36  0.011  0.000  0.000  0.011
   37  0.001  0.000  0.000  0.001
tot    0.495  0.032  0.070  0.596
 
band     3 # energy   -6.01531223 # occ.  2.00000000
 
ion      s      p      d    tot
    1  0.021  0.000  0.022  0.043
    2  0.021  0.000  0.020  0.041
    3  0.021  0.000  0.020  0.041
    4  0.021  0.000  0.020  0.041
    5  0.017  0.000  0.021  0.038
    6  0.021  0.000  0.020  0.041
    7  0.021  0.000  0.020  0.041
    8  0.021  0.000  0.020  0.041
    9  0.026  0.000  0.019  0.044
   10  0.007  0.001  0.025  0.033
   11  0.013  0.001  0.022  0.035
   12  0.007  0.001  0.025  0.033
   13  0.013  0.001  0.022  0.035
   14  0.013  0.001  0.022  0.035
   15  0.005  0.001  0.026  0.032
   16  0.007  0.001  0.025  0.033
   17  0.005  0.001  0.026  0.032
   18  0.005  0.001  0.026  0.032
   19  0.001  0.000  0.002  0.003
   20  0.000  0.001  0.003  0.004
   21  0.000  0.001  0.003  0.004
   22  0.000  0.000  0.003  0.003
   23  0.000  0.001  0.003  0.004
   24  0.000  0.000  0.003  0.003
   25  0.001  0.000  0.002  0.003
   26  0.001  0.000  0.002  0.003
   27  0.000  0.000  0.003  0.003
   28  0.003  0.000  0.000  0.003
   29  0.001  0.000  0.000  0.002
   30  0.001  0.000  0.000  0.002
   31  0.001  0.000  0.000  0.002
   32  0.001  0.000  0.000  0.002
   33  0.001  0.000  0.000  0.002
   34  0.001  0.000  0.000  0.002
   35  0.002  0.000  0.000  0.002
   36  0.000  0.000  0.000  0.000
   37  0.000  0.000  0.000  0.000
tot    0.282  0.011  0.428  0.721
 
band     4 # energy   -6.01036040 # occ.  2.00000000
 
ion      s      p      d    tot
    1  0.010  0.001  0.001  0.012
    2  0.000  0.001  0.005  0.006
    3  0.000  0.001  0.005  0.006
    4  0.000  0.001  0.005  0.006
    5  0.002  0.000  0.001  0.002
    6  0.000  0.001  0.005  0.006
    7  0.000  0.001  0.005  0.006
    8  0.000  0.001  0.005  0.006
    9  0.010  0.002  0.002  0.014
   10  0.010  0.000  0.029  0.038
   11  0.003  0.002  0.015  0.020
   12  0.009  0.000  0.029  0.038
   13  0.003  0.002  0.015  0.020
   14  0.003  0.002  0.014  0.020
   15  0.032  0.003  0.004  0.039
   16  0.009  0.000  0.029  0.038
   17  0.032  0.003  0.004  0.039
   18  0.032  0.003  0.004  0.039
   19  0.000  0.001  0.022  0.023
   20  0.021  0.001  0.022  0.043
   21  0.021  0.001  0.022  0.043
   22  0.022  0.003  0.004  0.029
   23  0.021  0.001  0.022  0.043
   24  0.022  0.003  0.004  0.029
   25  0.000  0.001  0.022  0.023
   26  0.000  0.001  0.022  0.023
   27  0.022  0.003  0.004  0.029
   28  0.000  0.000  0.000  0.001
   29  0.000  0.000  0.004  0.005
   30  0.000  0.000  0.004  0.005
   31  0.000  0.000  0.004  0.005
   32  0.000  0.000  0.004  0.005
   33  0.000  0.000  0.004  0.005
   34  0.000  0.000  0.004  0.005
   35  0.007  0.001  0.000  0.009
   36  0.010  0.001  0.002  0.013
   37  0.001  0.000  0.000  0.001
tot    0.306  0.041  0.350  0.698
 
band     5 # energy   -5.98582987 # occ.  2.00000000
 
ion      s      p      d    tot
    1  0.000  0.000  0.004  0.004
    2  0.007  0.001  0.004  0.012
    3  0.003  0.001  0.003  0.007
    4  0.007  0.001  0.004  0.012
    5  0.000  0.001  0.010  0.011
    6  0.001  0.000  0.003  0.005
    7  0.003  0.001  0.003  0.007
    8  0.001  0.000  0.003  0.005
    9  0.000  0.001  0.003  0.004
   10  0.000  0.001  0.021  0.022
   11  0.044  0.002  0.014  0.059
   12  0.005  0.001  0.012  0.017
   13  0.044  0.002  0.014  0.059
   14  0.000  0.001  0.042  0.043
   15  0.020  0.001  0.014  0.035
   16  0.005  0.001  0.012  0.017
   17  0.020  0.001  0.014  0.035
   18  0.000  0.005  0.006  0.011
   19  0.000  0.001  0.010  0.012
   20  0.000  0.004  0.014  0.018
   21  0.028  0.001  0.013  0.042
   22  0.035  0.002  0.012  0.049
   23  0.028  0.001  0.013  0.042
   24  0.000  0.000  0.040  0.040
   25  0.000  0.002  0.010  0.013
   26  0.000  0.001  0.010  0.012
   27  0.035  0.002  0.013  0.049
   28  0.000  0.000  0.001  0.001
   29  0.001  0.000  0.002  0.004
   30  0.007  0.001  0.003  0.010
   31  0.001  0.000  0.002  0.004
   32  0.002  0.001  0.003  0.006
   33  0.007  0.001  0.003  0.010
   34  0.002  0.001  0.003  0.006
   35  0.000  0.001  0.007  0.008
   36  0.000  0.001  0.001  0.002
   37  0.000  0.000  0.000  0.000
tot    0.306  0.042  0.346  0.694
 
band     6 # energy   -5.98577356 # occ.  2.00000000
 
ion      s      p      d    tot
    1  0.000  0.000  0.004  0.004
    2  0.000  0.000  0.003  0.004
    3  0.005  0.001  0.004  0.009
    4  0.000  0.000  0.003  0.004
    5  0.000  0.001  0.010  0.011
    6  0.007  0.001  0.003  0.011
    7  0.005  0.001  0.004  0.009
    8  0.007  0.001  0.003  0.011
    9  0.000  0.001  0.003  0.004
   10  0.006  0.001  0.009  0.016
   11  0.015  0.001  0.032  0.049
   12  0.002  0.001  0.018  0.021
   13  0.015  0.001  0.032  0.049
   14  0.057  0.002  0.005  0.064
   15  0.007  0.003  0.008  0.019
   16  0.002  0.001  0.018  0.021
   17  0.007  0.003  0.008  0.019
   18  0.027  0.000  0.017  0.044
   19  0.000  0.002  0.010  0.012
   20  0.038  0.000  0.013  0.051
   21  0.009  0.003  0.013  0.026
   22  0.012  0.001  0.031  0.044
   23  0.009  0.003  0.013  0.026
   24  0.046  0.002  0.003  0.051
   25  0.000  0.001  0.010  0.012
   26  0.000  0.002  0.010  0.012
   27  0.012  0.001  0.031  0.044
   28  0.000  0.000  0.001  0.001
   29  0.005  0.001  0.003  0.010
   30  0.000  0.000  0.002  0.003
   31  0.005  0.001  0.003  0.010
   32  0.005  0.001  0.002  0.008
   33  0.000  0.000  0.002  0.003
   34  0.005  0.001  0.002  0.008
   35  0.000  0.001  0.007  0.008
   36  0.000  0.001  0.001  0.002
   37  0.000  0.000  0.000  0.000
tot    0.306  0.042  0.346  0.694
 
band     7 # energy   -5.98152958 # occ.  2.00000000
 
ion      s      p      d    tot
    1  0.005  0.001  0.001  0.007
    2  0.000  0.001  0.006  0.007
    3  0.000  0.001  0.006  0.007
    4  0.000  0.001  0.006  0.007
    5  0.018  0.002  0.001  0.021
    6  0.000  0.001  0.006  0.007
    7  0.000  0.001  0.006  0.007
    8  0.000  0.001  0.006  0.007
    9  0.000  0.000  0.002  0.003
   10  0.022  0.003  0.003  0.028
   11  0.023  0.001  0.019  0.043
   12  0.022  0.003  0.003  0.028
   13  0.023  0.001  0.019  0.043
   14  0.024  0.001  0.019  0.045
   15  0.001  0.001  0.027  0.029
   16  0.022  0.003  0.003  0.028
   17  0.001  0.001  0.027  0.029
   18  0.001  0.001  0.026  0.028
   19  0.026  0.002  0.008  0.036
   20  0.008  0.003  0.011  0.022
   21  0.009  0.003  0.011  0.023
   22  0.006  0.000  0.026  0.032
   23  0.009  0.003  0.011  0.023
   24  0.007  0.000  0.027  0.033
   25  0.026  0.002  0.009  0.037
   26  0.026  0.002  0.008  0.036
   27  0.006  0.000  0.026  0.032
   28  0.011  0.001  0.001  0.014
   29  0.000  0.000  0.004  0.004
   30  0.000  0.000  0.004  0.005
   31  0.000  0.000  0.004  0.004
   32  0.000  0.000  0.004  0.005
   33  0.000  0.000  0.004  0.005
   34  0.000  0.000  0.004  0.005
   35  0.003  0.001  0.002  0.006
   36  0.001  0.000  0.000  0.001
   37  0.000  0.000  0.000  0.000
tot    0.302  0.041  0.351  0.694
 
band     8 # energy   -5.97040709 # occ.  2.00000000
 
ion      s      p      d    tot
    1  0.000  0.001  0.008  0.010
    2  0.008  0.001  0.004  0.013
    3  0.004  0.001  0.003  0.007
    4  0.008  0.001  0.004  0.013
    5  0.000  0.000  0.001  0.002
    6  0.001  0.000  0.004  0.005
    7  0.004  0.001  0.003  0.007
    8  0.001  0.000  0.004  0.005
    9  0.000  0.000  0.009  0.009
   10  0.057  0.001  0.011  0.070
   11  0.001  0.003  0.007  0.011
   12  0.014  0.003  0.021  0.038
   13  0.001  0.003  0.007  0.011
   14  0.003  0.000  0.015  0.018
   15  0.009  0.001  0.033  0.042
   16  0.015  0.003  0.021  0.039
   17  0.009  0.000  0.033  0.042
   18  0.036  0.002  0.003  0.041
   19  0.013  0.002  0.025  0.040
   20  0.019  0.002  0.005  0.026
   21  0.005  0.001  0.023  0.029
   22  0.002  0.003  0.007  0.012
   23  0.005  0.001  0.023  0.029
   24  0.009  0.000  0.015  0.023
   25  0.052  0.002  0.007  0.060
   26  0.013  0.002  0.025  0.040
   27  0.002  0.003  0.007  0.012
   28  0.000  0.001  0.006  0.007
   29  0.001  0.000  0.002  0.003
   30  0.004  0.001  0.002  0.007
   31  0.001  0.000  0.002  0.003
   32  0.001  0.000  0.003  0.004
   33  0.004  0.001  0.002  0.007
   34  0.001  0.000  0.003  0.004
   35  0.000  0.000  0.001  0.001
   36  0.000  0.000  0.001  0.001
   37  0.000  0.000  0.000  0.000
tot    0.301  0.042  0.349  0.693
 
band     9 # energy   -5.97034060 # occ.  2.00000000
 
ion      s      p      d    tot
    1  0.000  0.001  0.008  0.010
    2  0.000  0.000  0.003  0.004
    3  0.005  0.001  0.004  0.010
    4  0.000  0.000  0.003  0.004
    5  0.000  0.000  0.001  0.002
    6  0.007  0.001  0.004  0.012
    7  0.005  0.001  0.004  0.010
    8  0.007  0.001  0.004  0.012
    9  0.000  0.000  0.009  0.009
   10  0.000  0.003  0.025  0.028
   11  0.002  0.001  0.012  0.016
   12  0.043  0.001  0.015  0.059
   13  0.002  0.001  0.012  0.016
   14  0.000  0.004  0.004  0.008
   15  0.027  0.001  0.013  0.042
   16  0.043  0.001  0.015  0.059
   17  0.027  0.001  0.013  0.042
   18  0.000  0.000  0.043  0.043
   19  0.039  0.002  0.013  0.053
   20  0.000  0.000  0.030  0.030
   21  0.015  0.001  0.011  0.027
   22  0.006  0.001  0.012  0.019
   23  0.015  0.001  0.011  0.027
   24  0.000  0.004  0.004  0.008
   25  0.000  0.002  0.031  0.033
   26  0.039  0.002  0.013  0.053
   27  0.006  0.001  0.012  0.019
   28  0.000  0.001  0.006  0.007
   29  0.003  0.001  0.003  0.007
   30  0.000  0.000  0.002  0.002
   31  0.003  0.001  0.003  0.007
   32  0.003  0.001  0.002  0.006
   33  0.000  0.000  0.002  0.002
   34  0.003  0.001  0.002  0.006
   35  0.000  0.000  0.001  0.001
   36  0.000  0.000  0.001  0.001
   37  0.000  0.000  0.000  0.000
tot    0.301  0.042  0.349  0.693
 
band    10 # energy   -5.84539073 # occ.  2.00000000
 
ion      s      p      d    tot
    1  0.000  0.000  0.000  0.000
    2  0.000  0.000  0.000  0.000
    3  0.000  0.000  0.000  0.000
    4  0.000  0.000  0.000  0.000
    5  0.001  0.000  0.000  0.001
    6  0.000  0.000  0.000  0.000
    7  0.000  0.000  0.000  0.000
    8  0.000  0.000  0.000  0.000
    9  0.000  0.000  0.000  0.000
   10  0.000  0.000  0.002  0.003
   11  0.000  0.000  0.003  0.003
   12  0.000  0.000  0.002  0.003
   13  0.000  0.000  0.003  0.003
   14  0.000  0.000  0.003  0.003
   15  0.000  0.000  0.003  0.004
   16  0.000  0.000  0.002  0.003
   17  0.000  0.000  0.003  0.004
   18  0.000  0.000  0.003  0.004
   19  0.006  0.001  0.023  0.030
   20  0.005  0.001  0.024  0.029
   21  0.005  0.001  0.024  0.029
   22  0.006  0.001  0.029  0.036
   23  0.005  0.001  0.024  0.029
   24  0.006  0.001  0.029  0.036
   25  0.006  0.001  0.023  0.030
   26  0.006  0.001  0.023  0.030
   27  0.006  0.001  0.029  0.036
   28  0.027  0.000  0.022  0.049
   29  0.025  0.000  0.021  0.046
   30  0.025  0.000  0.021  0.046
   31  0.025  0.000  0.021  0.046
   32  0.025  0.000  0.021  0.046
   33  0.025  0.000  0.021  0.046
   34  0.025  0.000  0.021  0.046
   35  0.030  0.000  0.022  0.052
   36  0.013  0.001  0.001  0.015
   37  0.003  0.000  0.000  0.003
tot    0.278  0.011  0.426  0.716
 
band    11 # energy   -5.50943377 # occ.  2.00000000
 
ion      s      p      d    tot
    1  0.019  0.002  0.001  0.023
    2  0.000  0.001  0.008  0.009
    3  0.000  0.001  0.008  0.009
    4  0.000  0.001  0.008  0.009
    5  0.001  0.000  0.002  0.003
    6  0.000  0.001  0.008  0.009
    7  0.000  0.001  0.008  0.009
    8  0.000  0.001  0.008  0.009
    9  0.011  0.001  0.000  0.012
   10  0.009  0.002  0.010  0.020
   11  0.006  0.000  0.033  0.039
   12  0.009  0.002  0.010  0.020
   13  0.006  0.000  0.033  0.039
   14  0.006  0.000  0.033  0.039
   15  0.001  0.001  0.037  0.038
   16  0.009  0.002  0.010  0.020
   17  0.001  0.001  0.037  0.038
   18  0.001  0.001  0.037  0.038
   19  0.009  0.001  0.009  0.019
   20  0.000  0.000  0.041  0.041
   21  0.000  0.000  0.041  0.041
   22  0.009  0.001  0.030  0.040
   23  0.000  0.000  0.041  0.041
   24  0.009  0.001  0.030  0.040
   25  0.009  0.001  0.009  0.019
   26  0.009  0.001  0.009  0.019
   27  0.009  0.001  0.030  0.040
   28  0.012  0.002  0.002  0.016
   29  0.000  0.001  0.006  0.006
   30  0.000  0.001  0.006  0.006
   31  0.000  0.001  0.006  0.006
   32  0.000  0.001  0.006  0.006
   33  0.000  0.001  0.006  0.006
   34  0.000  0.001  0.006  0.006
   35  0.006  0.001  0.002  0.008
   36  0.003  0.000  0.000  0.003
   37  0.000  0.000  0.000  0.000
tot    0.153  0.029  0.568  0.751
 
band    12 # energy   -5.50042400 # occ.  2.00000000
 
ion      s      p      d    tot
    1  0.001  0.000  0.001  0.003
    2  0.000  0.001  0.008  0.009
    3  0.000  0.001  0.008  0.009
    4  0.000  0.001  0.008  0.009
    5  0.018  0.002  0.000  0.020
    6  0.000  0.001  0.008  0.009
    7  0.000  0.001  0.008  0.009
    8  0.000  0.001  0.008  0.009
    9  0.009  0.001  0.002  0.013
   10  0.002  0.000  0.045  0.047
   11  0.004  0.001  0.018  0.024
   12  0.001  0.000  0.045  0.046
   13  0.004  0.001  0.018  0.024
   14  0.004  0.001  0.018  0.023
   15  0.010  0.001  0.016  0.028
   16  0.001  0.000  0.045  0.046
   17  0.010  0.001  0.016  0.028
   18  0.010  0.001  0.017  0.028
   19  0.004  0.000  0.044  0.048
   20  0.012  0.002  0.014  0.028
   21  0.011  0.002  0.014  0.027
   22  0.002  0.001  0.024  0.027
   23  0.011  0.002  0.014  0.027
   24  0.003  0.001  0.022  0.026
   25  0.005  0.000  0.042  0.047
   26  0.004  0.000  0.044  0.048
   27  0.002  0.001  0.024  0.027
   28  0.000  0.000  0.002  0.002
   29  0.000  0.001  0.005  0.006
   30  0.000  0.001  0.005  0.006
   31  0.000  0.001  0.005  0.006
   32  0.000  0.001  0.005  0.006
   33  0.000  0.001  0.005  0.006
   34  0.000  0.001  0.005  0.006
   35  0.009  0.001  0.000  0.010
   36  0.013  0.001  0.003  0.017
   37  0.002  0.000  0.000  0.002
tot    0.156  0.030  0.568  0.754
 
band    13 # energy   -5.49841453 # occ.  2.00000000
 
ion      s      p      d    tot
    1  0.000  0.001  0.004  0.005
    2  0.000  0.000  0.005  0.005
    3  0.006  0.001  0.005  0.012
    4  0.000  0.000  0.005  0.005
    5  0.000  0.001  0.012  0.013
    6  0.006  0.001  0.004  0.011
    7  0.008  0.001  0.005  0.014
    8  0.007  0.001  0.004  0.012
    9  0.000  0.000  0.007  0.007
   10  0.000  0.000  0.057  0.058
   11  0.014  0.001  0.020  0.035
   12  0.008  0.002  0.023  0.033
   13  0.012  0.001  0.024  0.036
   14  0.000  0.000  0.043  0.043
   15  0.000  0.001  0.021  0.022
   16  0.010  0.002  0.016  0.028
   17  0.000  0.001  0.019  0.020
   18  0.000  0.001  0.011  0.013
   19  0.012  0.000  0.021  0.033
   20  0.000  0.000  0.068  0.068
   21  0.015  0.001  0.026  0.042
   22  0.001  0.001  0.020  0.022
   23  0.018  0.001  0.017  0.037
   24  0.000  0.001  0.027  0.029
   25  0.000  0.001  0.020  0.021
   26  0.010  0.001  0.021  0.031
   27  0.001  0.001  0.018  0.020
   28  0.000  0.001  0.009  0.010
   29  0.001  0.000  0.004  0.005
   30  0.008  0.001  0.003  0.013
   31  0.000  0.000  0.004  0.005
   32  0.004  0.001  0.005  0.010
   33  0.009  0.001  0.003  0.014
   34  0.006  0.001  0.004  0.011
   35  0.000  0.000  0.004  0.004
   36  0.000  0.002  0.001  0.003
   37  0.000  0.000  0.000  0.000
tot    0.158  0.031  0.560  0.749
 
band    14 # energy   -5.49841375 # occ.  2.00000000
 
ion      s      p      d    tot
    1  0.000  0.001  0.004  0.005
    2  0.009  0.001  0.004  0.014
    3  0.003  0.000  0.004  0.008
    4  0.009  0.001  0.004  0.015
    5  0.000  0.001  0.012  0.013
    6  0.003  0.001  0.005  0.009
    7  0.002  0.000  0.004  0.006
    8  0.002  0.001  0.005  0.008
    9  0.000  0.000  0.007  0.007
   10  0.012  0.002  0.006  0.020
   11  0.003  0.000  0.038  0.041
   12  0.004  0.001  0.041  0.046
   13  0.005  0.000  0.034  0.039
   14  0.018  0.001  0.015  0.034
   15  0.000  0.001  0.014  0.015
   16  0.002  0.001  0.049  0.052
   17  0.000  0.001  0.015  0.016
   18  0.001  0.000  0.022  0.023
   19  0.003  0.001  0.020  0.024
   20  0.021  0.002  0.006  0.029
   21  0.008  0.001  0.048  0.056
   22  0.000  0.001  0.023  0.025
   23  0.004  0.000  0.057  0.061
   24  0.001  0.001  0.018  0.019
   25  0.014  0.000  0.022  0.036
   26  0.005  0.001  0.020  0.025
   27  0.000  0.001  0.025  0.027
   28  0.000  0.001  0.009  0.010
   29  0.008  0.001  0.004  0.014
   30  0.001  0.001  0.004  0.006
   31  0.009  0.001  0.004  0.014
   32  0.005  0.001  0.003  0.009
   33  0.000  0.001  0.004  0.005
   34  0.004  0.001  0.004  0.008
   35  0.000  0.000  0.004  0.004
   36  0.000  0.002  0.001  0.003
   37  0.000  0.000  0.000  0.000
tot    0.158  0.031  0.560  0.749
 
band    15 # energy   -5.47705257 # occ.  2.00000000
 
ion      s      p      d    tot
    1  0.000  0.000  0.014  0.014
    2  0.010  0.001  0.005  0.017
    3  0.003  0.001  0.005  0.009
    4  0.010  0.001  0.005  0.017
    5  0.000  0.000  0.004  0.004
    6  0.002  0.001  0.006  0.008
    7  0.003  0.001  0.005  0.009
    8  0.002  0.001  0.006  0.008
    9  0.000  0.001  0.010  0.011
   10  0.000  0.001  0.020  0.021
   11  0.003  0.001  0.019  0.023
   12  0.005  0.000  0.023  0.028
   13  0.003  0.001  0.019  0.023
   14  0.000  0.001  0.030  0.031
   15  0.013  0.002  0.022  0.037
   16  0.005  0.000  0.023  0.028
   17  0.014  0.002  0.022  0.037
   18  0.000  0.000  0.066  0.066
   19  0.009  0.001  0.020  0.030
   20  0.000  0.002  0.012  0.014
   21  0.002  0.000  0.020  0.022
   22  0.019  0.001  0.021  0.041
   23  0.002  0.000  0.020  0.022
   24  0.000  0.000  0.044  0.045
   25  0.000  0.001  0.060  0.061
   26  0.009  0.001  0.019  0.030
   27  0.019  0.001  0.021  0.041
   28  0.000  0.000  0.003  0.004
   29  0.006  0.001  0.004  0.011
   30  0.001  0.001  0.004  0.005
   31  0.006  0.001  0.004  0.011
   32  0.002  0.001  0.002  0.005
   33  0.001  0.001  0.004  0.005
   34  0.002  0.001  0.002  0.005
   35  0.000  0.001  0.008  0.009
   36  0.000  0.000  0.001  0.001
   37  0.000  0.000  0.000  0.000
tot    0.151  0.029  0.572  0.752
 
band    16 # energy   -5.47703331 # occ.  2.00000000
 
ion      s      p      d    tot
    1  0.000  0.000  0.014  0.014
    2  0.000  0.000  0.005  0.006
    3  0.007  0.001  0.005  0.014
    4  0.000  0.000  0.005  0.006
    5  0.000  0.000  0.004  0.004
    6  0.009  0.001  0.005  0.014
    7  0.007  0.001  0.005  0.014
    8  0.008  0.001  0.005  0.014
    9  0.000  0.001  0.010  0.011
   10  0.006  0.000  0.024  0.030
   11  0.001  0.001  0.027  0.028
   12  0.002  0.001  0.021  0.023
   13  0.001  0.001  0.027  0.029
   14  0.003  0.002  0.016  0.021
   15  0.005  0.001  0.051  0.056
   16  0.002  0.001  0.021  0.023
   17  0.004  0.001  0.051  0.056
   18  0.018  0.002  0.007  0.027
   19  0.003  0.001  0.047  0.050
   20  0.002  0.000  0.023  0.025
   21  0.001  0.001  0.015  0.017
   22  0.006  0.000  0.037  0.043
   23  0.001  0.001  0.015  0.017
   24  0.025  0.001  0.014  0.040
   25  0.012  0.001  0.006  0.019
   26  0.003  0.001  0.047  0.051
   27  0.006  0.000  0.037  0.043
   28  0.000  0.000  0.003  0.004
   29  0.000  0.000  0.003  0.003
   30  0.005  0.001  0.002  0.009
   31  0.000  0.000  0.003  0.003
   32  0.004  0.001  0.004  0.009
   33  0.005  0.001  0.002  0.009
   34  0.004  0.001  0.004  0.009
   35  0.000  0.001  0.008  0.009
   36  0.000  0.000  0.001  0.001
   37  0.000  0.000  0.000  0.000
tot    0.151  0.029  0.572  0.752
 
band    17 # energy   -5.11586138 # occ.  2.00000000
 
ion      s      p      d    tot
    1  0.000  0.001  0.013  0.014
    2  0.011  0.001  0.012  0.023
    3  0.002  0.001  0.010  0.013
    4  0.011  0.001  0.012  0.023
    5  0.000  0.000  0.031  0.032
    6  0.004  0.000  0.016  0.020
    7  0.002  0.001  0.010  0.013
    8  0.004  0.000  0.016  0.020
    9  0.000  0.002  0.012  0.013
   10  0.000  0.000  0.007  0.007
   11  0.000  0.000  0.034  0.035
   12  0.000  0.000  0.016  0.016
   13  0.000  0.000  0.034  0.035
   14  0.000  0.000  0.037  0.037
   15  0.000  0.000  0.052  0.052
   16  0.000  0.000  0.016  0.016
   17  0.000  0.000  0.052  0.052
   18  0.000  0.000  0.043  0.044
   19  0.001  0.000  0.012  0.013
   20  0.000  0.000  0.017  0.017
   21  0.001  0.000  0.028  0.029
   22  0.000  0.000  0.043  0.044
   23  0.001  0.000  0.028  0.029
   24  0.000  0.000  0.035  0.035
   25  0.000  0.000  0.012  0.013
   26  0.001  0.000  0.012  0.013
   27  0.000  0.000  0.043  0.044
   28  0.000  0.000  0.015  0.015
   29  0.004  0.001  0.006  0.012
   30  0.009  0.001  0.010  0.020
   31  0.004  0.001  0.006  0.011
   32  0.001  0.000  0.010  0.011
   33  0.009  0.001  0.010  0.020
   34  0.001  0.000  0.010  0.011
   35  0.000  0.001  0.018  0.019
   36  0.000  0.001  0.001  0.002
   37  0.000  0.000  0.000  0.000
tot    0.067  0.016  0.741  0.824
 
band    18 # energy   -5.11585959 # occ.  2.00000000
 
ion      s      p      d    tot
    1  0.000  0.001  0.013  0.014
    2  0.000  0.000  0.014  0.014
    3  0.009  0.001  0.015  0.025
    4  0.000  0.000  0.014  0.014
    5  0.000  0.000  0.031  0.031
    6  0.008  0.001  0.009  0.018
    7  0.009  0.001  0.015  0.025
    8  0.008  0.001  0.009  0.018
    9  0.000  0.002  0.012  0.013
   10  0.000  0.000  0.019  0.020
   11  0.000  0.000  0.036  0.037
   12  0.000  0.000  0.010  0.010
   13  0.000  0.000  0.036  0.037
   14  0.000  0.001  0.033  0.033
   15  0.000  0.000  0.046  0.046
   16  0.000  0.000  0.009  0.010
   17  0.000  0.000  0.046  0.046
   18  0.000  0.000  0.054  0.055
   19  0.000  0.000  0.012  0.013
   20  0.001  0.000  0.032  0.034
   21  0.000  0.000  0.021  0.021
   22  0.000  0.000  0.038  0.038
   23  0.000  0.000  0.021  0.021
   24  0.000  0.000  0.046  0.046
   25  0.001  0.000  0.012  0.013
   26  0.000  0.000  0.012  0.013
   27  0.000  0.000  0.038  0.038
   28  0.000  0.000  0.015  0.015
   29  0.005  0.000  0.011  0.017
   30  0.000  0.001  0.007  0.008
   31  0.005  0.000  0.011  0.017
   32  0.009  0.001  0.008  0.017
   33  0.000  0.001  0.007  0.008
   34  0.009  0.001  0.008  0.017
   35  0.000  0.001  0.018  0.019
   36  0.000  0.001  0.001  0.002
   37  0.000  0.000  0.000  0.000
tot    0.067  0.016  0.741  0.824
 
band    19 # energy   -5.11027506 # occ.  2.00000000
 
ion      s      p      d    tot
    1  0.012  0.001  0.000  0.013
    2  0.000  0.001  0.017  0.018
    3  0.000  0.001  0.017  0.018
    4  0.000  0.001  0.017  0.018
    5  0.018  0.000  0.010  0.028
    6  0.000  0.001  0.017  0.018
    7  0.000  0.001  0.017  0.018
    8  0.000  0.001  0.017  0.018
    9  0.001  0.000  0.011  0.012
   10  0.000  0.000  0.029  0.029
   11  0.000  0.000  0.033  0.033
   12  0.000  0.000  0.030  0.030
   13  0.000  0.000  0.033  0.033
   14  0.000  0.000  0.033  0.034
   15  0.000  0.000  0.041  0.042
   16  0.000  0.000  0.030  0.030
   17  0.000  0.000  0.041  0.042
   18  0.000  0.000  0.041  0.042
   19  0.000  0.000  0.028  0.028
   20  0.000  0.000  0.023  0.024
   21  0.000  0.000  0.024  0.024
   22  0.001  0.000  0.029  0.030
   23  0.000  0.000  0.024  0.024
   24  0.001  0.000  0.029  0.031
   25  0.000  0.000  0.028  0.028
   26  0.000  0.000  0.028  0.028
   27  0.001  0.000  0.029  0.030
   28  0.015  0.001  0.003  0.019
   29  0.000  0.001  0.012  0.012
   30  0.000  0.001  0.012  0.013
   31  0.000  0.001  0.012  0.012
   32  0.000  0.001  0.012  0.012
   33  0.000  0.001  0.012  0.013
   34  0.000  0.001  0.012  0.012
   35  0.005  0.000  0.005  0.010
   36  0.003  0.000  0.001  0.004
   37  0.001  0.000  0.000  0.001
tot    0.059  0.014  0.755  0.827
 
band    20 # energy   -5.09535667 # occ.  2.00000000
 
ion      s      p      d    tot
    1  0.007  0.000  0.016  0.023
    2  0.000  0.001  0.019  0.019
    3  0.000  0.001  0.019  0.019
    4  0.000  0.001  0.019  0.019
    5  0.004  0.001  0.005  0.010
    6  0.000  0.001  0.019  0.019
    7  0.000  0.001  0.019  0.019
    8  0.000  0.001  0.019  0.019
    9  0.024  0.001  0.003  0.028
   10  0.000  0.000  0.045  0.045
   11  0.000  0.000  0.042  0.042
   12  0.000  0.000  0.045  0.045
   13  0.000  0.000  0.042  0.042
   14  0.000  0.000  0.042  0.042
   15  0.000  0.000  0.030  0.031
   16  0.000  0.000  0.045  0.045
   17  0.000  0.000  0.030  0.031
   18  0.000  0.000  0.030  0.031
   19  0.001  0.000  0.022  0.024
   20  0.001  0.000  0.034  0.035
   21  0.001  0.000  0.034  0.035
   22  0.000  0.000  0.019  0.019
   23  0.001  0.000  0.034  0.035
   24  0.000  0.000  0.019  0.019
   25  0.001  0.000  0.022  0.024
   26  0.001  0.000  0.022  0.024
   27  0.000  0.000  0.019  0.019
   28  0.000  0.000  0.002  0.002
   29  0.000  0.000  0.007  0.008
   30  0.000  0.000  0.007  0.008
   31  0.000  0.000  0.007  0.008
   32  0.000  0.000  0.007  0.008
   33  0.000  0.000  0.007  0.008
   34  0.000  0.000  0.007  0.008
   35  0.004  0.000  0.000  0.005
   36  0.007  0.000  0.001  0.008
   37  0.001  0.000  0.000  0.001
tot    0.055  0.015  0.759  0.829
 
band    21 # energy   -5.07909600 # occ.  2.00000000
 
ion      s      p      d    tot
    1  0.000  0.001  0.020  0.021
    2  0.000  0.001  0.015  0.016
    3  0.007  0.000  0.016  0.023
    4  0.000  0.001  0.015  0.016
    5  0.000  0.001  0.007  0.008
    6  0.010  0.001  0.009  0.019
    7  0.007  0.000  0.016  0.023
    8  0.010  0.001  0.009  0.019
    9  0.000  0.000  0.025  0.025
   10  0.000  0.000  0.078  0.078
   11  0.000  0.000  0.044  0.044
   12  0.000  0.000  0.062  0.063
   13  0.000  0.000  0.044  0.044
   14  0.000  0.000  0.029  0.029
   15  0.000  0.001  0.023  0.024
   16  0.000  0.000  0.062  0.063
   17  0.000  0.001  0.023  0.024
   18  0.000  0.000  0.020  0.020
   19  0.001  0.000  0.040  0.041
   20  0.000  0.000  0.026  0.027
   21  0.000  0.000  0.027  0.027
   22  0.002  0.000  0.013  0.015
   23  0.000  0.000  0.027  0.027
   24  0.000  0.000  0.006  0.006
   25  0.000  0.000  0.027  0.027
   26  0.001  0.000  0.040  0.041
   27  0.002  0.000  0.013  0.015
   28  0.000  0.001  0.007  0.008
   29  0.001  0.000  0.004  0.005
   30  0.000  0.000  0.004  0.005
   31  0.001  0.000  0.004  0.005
   32  0.003  0.000  0.003  0.006
   33  0.000  0.000  0.004  0.005
   34  0.003  0.000  0.003  0.006
   35  0.000  0.000  0.005  0.006
   36  0.000  0.000  0.001  0.001