PROCAR new format
# of k-points:   10         # of bands:  252         # of ions:   37

 k-point     1 :    0.00000000 0.00000000 0.00000000     weight = 0.01562500

band     1 # energy  -16.53659684 # occ.  2.00000000
 
ion      s      p      d    tot
    1  0.000  0.000  0.000  0.000
    2  0.000  0.000  0.000  0.000
    3  0.000  0.000  0.000  0.000
    4  0.000  0.000  0.000  0.000
    5  0.000  0.000  0.000  0.000
    6  0.000  0.000  0.000  0.000
    7  0.000  0.000  0.000  0.000
    8  0.000  0.000  0.000  0.000
    9  0.000  0.000  0.000  0.000
   10  0.000  0.000  0.000  0.000
   11  0.000  0.000  0.000  0.000
   12  0.000  0.000  0.000  0.000
   13  0.000  0.000  0.000  0.000
   14  0.000  0.000  0.000  0.000
   15  0.000  0.000  0.000  0.000
   16  0.000  0.000  0.000  0.000
   17  0.000  0.000  0.000  0.000
   18  0.000  0.000  0.000  0.000
   19  0.000  0.000  0.000  0.000
   20  0.000  0.000  0.000  0.000
   21  0.000  0.000  0.000  0.000
   22  0.000  0.000  0.000  0.000
   23  0.000  0.000  0.000  0.000
   24  0.000  0.000  0.000  0.000
   25  0.000  0.000  0.000  0.000
   26  0.000  0.000  0.000  0.000
   27  0.000  0.000  0.000  0.000
   28  0.000  0.000  0.000  0.000
   29  0.000  0.000  0.000  0.000
   30  0.000  0.000  0.000  0.000
   31  0.000  0.000  0.000  0.000
   32  0.000  0.000  0.000  0.000
   33  0.000  0.000  0.000  0.000
   34  0.000  0.000  0.000  0.000
   35  0.000  0.000  0.000  0.000
   36  0.052  0.061  0.104  0.217
   37  0.785  0.007  0.000  0.792
tot    0.837  0.068  0.104  1.009
 
band     2 # energy   -6.42586020 # occ.  2.00000000
 
ion      s      p      d    tot
    1  0.006  0.001  0.000  0.006
    2  0.006  0.001  0.000  0.006
    3  0.006  0.001  0.000  0.006
    4  0.006  0.001  0.000  0.006
    5  0.006  0.001  0.000  0.006
    6  0.006  0.001  0.000  0.006
    7  0.006  0.001  0.000  0.006
    8  0.006  0.001  0.000  0.006
    9  0.006  0.001  0.000  0.006
   10  0.023  0.000  0.000  0.023
   11  0.023  0.000  0.000  0.024
   12  0.023  0.000  0.000  0.023
   13  0.023  0.000  0.000  0.024
   14  0.023  0.000  0.000  0.024
   15  0.022  0.000  0.000  0.023
   16  0.023  0.000  0.000  0.023
   17  0.022  0.000  0.000  0.023
   18  0.022  0.000  0.000  0.023
   19  0.023  0.000  0.000  0.024
   20  0.026  0.000  0.000  0.026
   21  0.026  0.000  0.000  0.026
   22  0.023  0.000  0.000  0.023
   23  0.026  0.000  0.000  0.026
   24  0.023  0.000  0.000  0.023
   25  0.023  0.000  0.000  0.024
   26  0.023  0.000  0.000  0.024
   27  0.023  0.000  0.000  0.023
   28  0.006  0.001  0.000  0.006
   29  0.006  0.001  0.000  0.006
   30  0.006  0.001  0.000  0.006
   31  0.006  0.001  0.000  0.006
   32  0.006  0.001  0.000  0.006
   33  0.006  0.001  0.000  0.006
   34  0.006  0.001  0.000  0.006
   35  0.005  0.001  0.000  0.006
   36  0.007  0.001  0.000  0.009
   37  0.000  0.000  0.000  0.001
tot    0.525  0.014  0.007  0.546
 
band     3 # energy   -5.56043269 # occ.  2.00000000
 
ion      s      p      d    tot
    1  0.008  0.000  0.000  0.008
    2  0.008  0.000  0.000  0.008
    3  0.008  0.000  0.000  0.008
    4  0.008  0.000  0.000  0.008
    5  0.008  0.000  0.000  0.008
    6  0.008  0.000  0.000  0.008
    7  0.008  0.000  0.000  0.008
    8  0.008  0.000  0.000  0.008
    9  0.008  0.000  0.000  0.008
   10  0.012  0.001  0.016  0.029
   11  0.012  0.001  0.015  0.028
   12  0.012  0.001  0.016  0.029
   13  0.012  0.001  0.015  0.028
   14  0.011  0.001  0.015  0.028
   15  0.011  0.001  0.013  0.026
   16  0.012  0.001  0.016  0.029
   17  0.011  0.001  0.013  0.026
   18  0.011  0.001  0.013  0.026
   19  0.011  0.001  0.017  0.029
   20  0.013  0.001  0.025  0.038
   21  0.013  0.001  0.025  0.038
   22  0.011  0.001  0.015  0.027
   23  0.013  0.001  0.025  0.038
   24  0.011  0.001  0.015  0.027
   25  0.011  0.001  0.017  0.029
   26  0.011  0.001  0.017  0.029
   27  0.011  0.001  0.015  0.027
   28  0.006  0.000  0.000  0.007
   29  0.006  0.000  0.000  0.006
   30  0.006  0.000  0.000  0.006
   31  0.006  0.000  0.000  0.006
   32  0.006  0.000  0.000  0.006
   33  0.006  0.000  0.000  0.006
   34  0.006  0.000  0.000  0.006
   35  0.006  0.000  0.000  0.006
   36  0.006  0.001  0.000  0.007
   37  0.000  0.000  0.000  0.001
tot    0.330  0.025  0.309  0.664
 
band     4 # energy   -5.26924265 # occ.  2.00000000
 
ion      s      p      d    tot
    1  0.012  0.000  0.020  0.031
    2  0.012  0.000  0.017  0.030
    3  0.012  0.000  0.017  0.030
    4  0.012  0.000  0.017  0.030
    5  0.012  0.000  0.016  0.029
    6  0.012  0.000  0.017  0.030
    7  0.012  0.000  0.017  0.030
    8  0.012  0.000  0.017  0.030
    9  0.013  0.000  0.016  0.029
   10  0.000  0.000  0.017  0.018
   11  0.000  0.000  0.017  0.017
   12  0.000  0.000  0.017  0.018
   13  0.000  0.000  0.017  0.017
   14  0.000  0.000  0.017  0.017
   15  0.000  0.000  0.013  0.014
   16  0.000  0.000  0.017  0.018
   17  0.000  0.000  0.013  0.014
   18  0.000  0.000  0.013  0.014
   19  0.000  0.000  0.011  0.012
   20  0.000  0.000  0.021  0.021
   21  0.000  0.000  0.021  0.021
   22  0.000  0.000  0.013  0.013
   23  0.000  0.000  0.021  0.021
   24  0.000  0.000  0.013  0.013
   25  0.000  0.000  0.011  0.012
   26  0.000  0.000  0.011  0.012
   27  0.000  0.000  0.013  0.013
   28  0.010  0.000  0.013  0.023
   29  0.010  0.000  0.014  0.024
   30  0.010  0.000  0.014  0.024
   31  0.010  0.000  0.014  0.024
   32  0.010  0.000  0.014  0.024
   33  0.010  0.000  0.014  0.024
   34  0.010  0.000  0.014  0.024
   35  0.011  0.000  0.015  0.026
   36  0.009  0.000  0.004  0.013
   37  0.000  0.000  0.000  0.000
tot    0.205  0.007  0.548  0.760
 
band     5 # energy   -5.20000044 # occ.  2.00000000
 
ion      s      p      d    tot
    1  0.004  0.001  0.001  0.005
    2  0.000  0.000  0.004  0.004
    3  0.000  0.000  0.004  0.004
    4  0.000  0.000  0.004  0.004
    5  0.001  0.000  0.000  0.001
    6  0.000  0.000  0.004  0.004
    7  0.000  0.000  0.004  0.004
    8  0.000  0.000  0.004  0.004
    9  0.000  0.000  0.000  0.001
   10  0.004  0.000  0.021  0.025
   11  0.000  0.000  0.017  0.018
   12  0.004  0.000  0.021  0.025
   13  0.000  0.000  0.017  0.018
   14  0.000  0.000  0.017  0.018
   15  0.004  0.001  0.006  0.010
   16  0.004  0.000  0.021  0.025
   17  0.004  0.001  0.006  0.010
   18  0.004  0.001  0.006  0.010
   19  0.001  0.001  0.036  0.038
   20  0.006  0.000  0.121  0.127
   21  0.006  0.000  0.121  0.127
   22  0.017  0.001  0.012  0.029
   23  0.006  0.000  0.121  0.127
   24  0.017  0.001  0.012  0.029
   25  0.001  0.001  0.036  0.038
   26  0.001  0.001  0.036  0.038
   27  0.017  0.001  0.012  0.029
   28  0.000  0.000  0.001  0.001
   29  0.000  0.000  0.004  0.005
   30  0.000  0.000  0.004  0.005
   31  0.000  0.000  0.004  0.005
   32  0.000  0.000  0.004  0.005
   33  0.000  0.000  0.004  0.005
   34  0.000  0.000  0.004  0.005
   35  0.005  0.001  0.003  0.009
   36  0.004  0.002  0.006  0.012
   37  0.000  0.002  0.000  0.002
tot    0.109  0.016  0.699  0.824
 
band     6 # energy   -5.17317016 # occ.  2.00000000
 
ion      s      p      d    tot
    1  0.000  0.000  0.007  0.008
    2  0.001  0.000  0.002  0.004
    3  0.001  0.000  0.002  0.003
    4  0.000  0.000  0.002  0.002
    5  0.000  0.000  0.004  0.004
    6  0.000  0.000  0.002  0.003
    7  0.000  0.000  0.002  0.003
    8  0.001  0.000  0.002  0.003
    9  0.000  0.000  0.001  0.001
   10  0.004  0.001  0.017  0.022
   11  0.001  0.000  0.025  0.027
   12  0.001  0.001  0.019  0.020
   13  0.000  0.001  0.019  0.020
   14  0.000  0.000  0.022  0.023
   15  0.004  0.001  0.008  0.012
   16  0.008  0.001  0.015  0.024
   17  0.000  0.000  0.013  0.013
   18  0.002  0.000  0.011  0.013
   19  0.023  0.000  0.038  0.061
   20  0.010  0.000  0.103  0.113
   21  0.002  0.000  0.161  0.164
   22  0.000  0.001  0.040  0.041
   23  0.023  0.000  0.014  0.037
   24  0.000  0.001  0.038  0.039
   25  0.010  0.001  0.033  0.045
   26  0.002  0.001  0.030  0.033
   27  0.000  0.000  0.035  0.036
   28  0.000  0.000  0.006  0.006
   29  0.000  0.000  0.004  0.004
   30  0.000  0.000  0.006  0.007
   31  0.001  0.001  0.008  0.009
   32  0.001  0.001  0.009  0.010
   33  0.001  0.001  0.004  0.005
   34  0.001  0.000  0.002  0.003
   35  0.000  0.000  0.000  0.000
   36  0.000  0.001  0.003  0.003
   37  0.000  0.000  0.000  0.000
tot    0.098  0.014  0.709  0.820
 
band     7 # energy   -5.17316932 # occ.  2.00000000
 
ion      s      p      d    tot
    1  0.000  0.000  0.007  0.008
    2  0.000  0.000  0.002  0.002
    3  0.000  0.000  0.002  0.002
    4  0.001  0.000  0.002  0.003
    5  0.000  0.000  0.004  0.004
    6  0.001  0.000  0.002  0.003
    7  0.001  0.000  0.002  0.003
    8  0.000  0.000  0.002  0.003
    9  0.000  0.000  0.001  0.001
   10  0.005  0.001  0.017  0.022
   11  0.000  0.001  0.019  0.020
   12  0.007  0.001  0.015  0.023
   13  0.001  0.000  0.025  0.026
   14  0.001  0.000  0.023  0.024
   15  0.000  0.000  0.013  0.014
   16  0.000  0.001  0.019  0.020
   17  0.003  0.000  0.008  0.012
   18  0.002  0.000  0.010  0.013
   19  0.001  0.001  0.029  0.032
   20  0.013  0.000  0.083  0.096
   21  0.021  0.000  0.024  0.046
   22  0.000  0.000  0.036  0.036
   23  0.001  0.000  0.171  0.172
   24  0.000  0.001  0.037  0.038
   25  0.013  0.001  0.034  0.048
   26  0.021  0.000  0.038  0.059
   27  0.000  0.001  0.040  0.041
   28  0.000  0.000  0.006  0.006
   29  0.001  0.001  0.007  0.009
   30  0.001  0.001  0.005  0.006
   31  0.000  0.000  0.003  0.004
   32  0.001  0.000  0.002  0.003
   33  0.000  0.000  0.007  0.007
   34  0.001  0.000  0.008  0.009
   35  0.000  0.000  0.000  0.000
   36  0.000  0.001  0.003  0.003
   37  0.000  0.000  0.000  0.000
tot    0.098  0.014  0.709  0.820
 
band     8 # energy   -5.14690317 # occ.  2.00000000
 
ion      s      p      d    tot
    1  0.000  0.000  0.002  0.002
    2  0.000  0.000  0.002  0.002
    3  0.001  0.000  0.005  0.007
    4  0.000  0.000  0.002  0.002
    5  0.000  0.000  0.009  0.009
    6  0.001  0.000  0.004  0.005
    7  0.001  0.000  0.005  0.007
    8  0.001  0.000  0.004  0.005
    9  0.000  0.000  0.003  0.003
   10  0.003  0.001  0.019  0.022
   11  0.007  0.001  0.060  0.067
   12  0.001  0.000  0.053  0.055
   13  0.007  0.001  0.059  0.067
   14  0.027  0.001  0.010  0.038
   15  0.003  0.001  0.014  0.018
   16  0.001  0.000  0.054  0.055
   17  0.003  0.001  0.014  0.018
   18  0.010  0.000  0.034  0.044
   19  0.001  0.000  0.041  0.042
   20  0.012  0.000  0.043  0.055
   21  0.003  0.001  0.026  0.030
   22  0.005  0.000  0.042  0.048
   23  0.003  0.001  0.026  0.029
   24  0.021  0.001  0.008  0.030
   25  0.002  0.000  0.014  0.016
   26  0.001  0.000  0.041  0.042
   27  0.005  0.000  0.042  0.048
   28  0.000  0.000  0.001  0.001
   29  0.002  0.000  0.005  0.007
   30  0.000  0.000  0.003  0.003
   31  0.002  0.000  0.005  0.007
   32  0.001  0.000  0.003  0.004
   33  0.000  0.000  0.003  0.003
   34  0.001  0.000  0.003  0.004
   35  0.000  0.000  0.008  0.008
   36  0.000  0.000  0.001  0.001
   37  0.000  0.000  0.000  0.000
tot    0.123  0.017  0.665  0.804
 
band     9 # energy   -5.14689967 # occ.  2.00000000
 
ion      s      p      d    tot
    1  0.000  0.000  0.002  0.002
    2  0.002  0.001  0.005  0.007
    3  0.000  0.000  0.003  0.003
    4  0.002  0.001  0.005  0.007
    5  0.000  0.000  0.009  0.009
    6  0.001  0.000  0.003  0.004
    7  0.000  0.000  0.002  0.003
    8  0.001  0.000  0.003  0.004
    9  0.000  0.000  0.003  0.003
   10  0.000  0.000  0.065  0.066
   11  0.021  0.001  0.026  0.047
   12  0.002  0.000  0.031  0.033
   13  0.021  0.001  0.027  0.048
   14  0.000  0.000  0.076  0.077
   15  0.008  0.001  0.027  0.035
   16  0.002  0.000  0.030  0.033
   17  0.008  0.001  0.026  0.035
   18  0.000  0.002  0.009  0.010
   19  0.002  0.000  0.023  0.025
   20  0.000  0.002  0.020  0.022
   21  0.008  0.001  0.037  0.046
   22  0.015  0.001  0.020  0.036
   23  0.009  0.001  0.037  0.046
   24  0.000  0.000  0.054  0.054
   25  0.000  0.000  0.050  0.050
   26  0.002  0.000  0.023  0.025
   27  0.016  0.001  0.019  0.036
   28  0.000  0.000  0.001  0.001
   29  0.000  0.000  0.002  0.002
   30  0.001  0.000  0.004  0.006
   31  0.000  0.000  0.002  0.002
   32  0.001  0.000  0.004  0.005
   33  0.001  0.000  0.004  0.006
   34  0.001  0.000  0.004  0.005
   35  0.000  0.000  0.008  0.008
   36  0.000  0.000  0.001  0.001
   37  0.000  0.000  0.000  0.000
tot    0.123  0.017  0.665  0.804
 
band    10 # energy   -5.14661263 # occ.  2.00000000
 
ion      s      p      d    tot
    1  0.001  0.000  0.000  0.002
    2  0.000  0.000  0.005  0.005
    3  0.000  0.000  0.005  0.005
    4  0.000  0.000  0.005  0.005
    5  0.002  0.001  0.005  0.008
    6  0.000  0.000  0.005  0.006
    7  0.000  0.000  0.005  0.005
    8  0.000  0.000  0.005  0.006
    9  0.001  0.000  0.002  0.003
   10  0.008  0.001  0.004  0.014
   11  0.013  0.001  0.049  0.063
   12  0.008  0.001  0.005  0.014
   13  0.013  0.001  0.049  0.063
   14  0.014  0.001  0.048  0.063
   15  0.000  0.000  0.045  0.045
   16  0.008  0.001  0.005  0.014
   17  0.000  0.000  0.045  0.045
   18  0.000  0.000  0.043  0.044
   19  0.010  0.001  0.034  0.045
   20  0.006  0.001  0.024  0.031
   21  0.006  0.001  0.024  0.032
   22  0.000  0.000  0.041  0.041
   23  0.006  0.001  0.024  0.032
   24  0.000  0.000  0.041  0.041
   25  0.011  0.001  0.034  0.045
   26  0.010  0.001  0.034  0.045
   27  0.000  0.000  0.041  0.041
   28  0.003  0.001  0.003  0.007
   29  0.000  0.000  0.005  0.005
   30  0.000  0.000  0.005  0.005
   31  0.000  0.000  0.005  0.005
   32  0.000  0.000  0.005  0.005
   33  0.000  0.000  0.005  0.005
   34  0.000  0.000  0.005  0.005
   35  0.001  0.000  0.002  0.004
   36  0.000  0.000  0.000  0.000
   37  0.000  0.000  0.000  0.000
tot    0.122  0.017  0.663  0.802
 
band    11 # energy   -5.13102034 # occ.  2.00000000
 
ion      s      p      d    tot
    1  0.001  0.001  0.012  0.014
    2  0.000  0.000  0.007  0.007
    3  0.000  0.000  0.007  0.007
    4  0.000  0.000  0.007  0.007
    5  0.001  0.000  0.003  0.004
    6  0.000  0.000  0.007  0.007
    7  0.000  0.000  0.007  0.007
    8  0.000  0.000  0.007  0.007
    9  0.007  0.001  0.001  0.009
   10  0.003  0.000  0.063  0.066
   11  0.001  0.000  0.045  0.047
   12  0.003  0.000  0.063  0.066
   13  0.001  0.000  0.045  0.047
   14  0.001  0.000  0.045  0.047
   15  0.009  0.000  0.007  0.016
   16  0.003  0.000  0.063  0.066
   17  0.009  0.000  0.007  0.016
   18  0.009  0.000  0.007  0.016
   19  0.003  0.000  0.012  0.016
   20  0.004  0.000  0.037  0.041
   21  0.004  0.000  0.037  0.041
   22  0.000  0.000  0.029  0.030
   23  0.004  0.000  0.037  0.041
   24  0.000  0.000  0.029  0.030
   25  0.003  0.000  0.012  0.016
   26  0.003  0.000  0.012  0.016
   27  0.000  0.000  0.029  0.030
   28  0.009  0.001  0.000  0.010
   29  0.000  0.000  0.015  0.015
   30  0.000  0.000  0.015  0.015
   31  0.000  0.000  0.015  0.015
   32  0.000  0.000  0.015  0.015
   33  0.000  0.000  0.015  0.015
   34  0.000  0.000  0.015  0.015
   35  0.000  0.000  0.006  0.006
   36  0.007  0.001  0.000  0.008
   37  0.000  0.000  0.000  0.000
tot    0.089  0.011  0.733  0.833
 
band    12 # energy   -5.10948531 # occ.  2.00000000
 
ion      s      p      d    tot
    1  0.000  0.000  0.002  0.003
    2  0.003  0.000  0.012  0.015
    3  0.003  0.000  0.012  0.015
    4  0.003  0.000  0.012  0.015
    5  0.006  0.000  0.004  0.010
    6  0.003  0.000  0.012  0.015
    7  0.003  0.000  0.012  0.015
    8  0.003  0.000  0.012  0.015
    9  0.003  0.000  0.027  0.030
   10  0.002  0.000  0.032  0.034
   11  0.001  0.000  0.001  0.002
   12  0.002  0.000  0.032  0.034
   13  0.001  0.000  0.001  0.002
   14  0.001  0.000  0.001  0.002
   15  0.005  0.000  0.055  0.060
   16  0.002  0.000  0.032  0.034
   17  0.005  0.000  0.055  0.060
   18  0.005  0.000  0.055  0.060
   19  0.000  0.000  0.021  0.021
   20  0.002  0.000  0.026  0.028
   21  0.002  0.000  0.026  0.028
   22  0.000  0.000  0.031  0.031
   23  0.002  0.000  0.026  0.028
   24  0.000  0.000  0.031  0.031
   25  0.000  0.000  0.021  0.021
   26  0.000  0.000  0.021  0.021
   27  0.000  0.000  0.031  0.031
   28  0.003  0.000  0.000  0.003
   29  0.004  0.000  0.016  0.020
   30  0.004  0.000  0.016  0.020
   31  0.004  0.000  0.016  0.020
   32  0.004  0.000  0.016  0.020
   33  0.004  0.000  0.016  0.020
   34  0.004  0.000  0.016  0.020
   35  0.012  0.000  0.019  0.031
   36  0.000  0.000  0.004  0.004
   37  0.000  0.000  0.000  0.000
tot    0.096  0.007  0.718  0.822
 
band    13 # energy   -5.10562877 # occ.  2.00000000
 
ion      s      p      d    tot
    1  0.000  0.001  0.012  0.013
    2  0.001  0.000  0.006  0.007
    3  0.001  0.001  0.010  0.012
    4  0.001  0.000  0.006  0.007
    5  0.000  0.000  0.007  0.007
    6  0.004  0.001  0.006  0.010
    7  0.001  0.001  0.010  0.011
    8  0.004  0.001  0.005  0.010
    9  0.000  0.000  0.008  0.008
   10  0.000  0.000  0.075  0.076
   11  0.001  0.000  0.035  0.036
   12  0.019  0.000  0.031  0.050
   13  0.001  0.000  0.037  0.038
   14  0.000  0.001  0.010  0.010
   15  0.010  0.000  0.035  0.046
   16  0.017  0.000  0.034  0.052
   17  0.011  0.000  0.029  0.040
   18  0.000  0.000  0.108  0.108
   19  0.001  0.000  0.025  0.027
   20  0.000  0.000  0.024  0.024
   21  0.001  0.001  0.018  0.020
   22  0.004  0.000  0.018  0.022
   23  0.001  0.001  0.019  0.020
   24  0.000  0.000  0.021  0.021
   25  0.000  0.000  0.036  0.036
   26  0.001  0.000  0.024  0.026
   27  0.004  0.000  0.018  0.022
   28  0.000  0.000  0.016  0.016
   29  0.002  0.000  0.005  0.007
   30  0.003  0.001  0.005  0.009
   31  0.002  0.000  0.005  0.008
   32  0.000  0.000  0.005  0.005
   33  0.003  0.001  0.005  0.009
   34  0.000  0.000  0.005  0.005
   35  0.000  0.000  0.004  0.005
   36  0.000  0.000  0.001  0.001
   37  0.000  0.000  0.000  0.000
tot    0.094  0.012  0.717  0.822
 
band    14 # energy   -5.10562112 # occ.  2.00000000
 
ion      s      p      d    tot
    1  0.000  0.001  0.012  0.013
    2  0.003  0.001  0.009  0.012
    3  0.003  0.001  0.004  0.008
    4  0.003  0.001  0.008  0.012
    5  0.000  0.000  0.007  0.007
    6  0.000  0.000  0.009  0.009
    7  0.003  0.001  0.004  0.008
    8  0.000  0.000  0.009  0.009
    9  0.000  0.000  0.008  0.008
   10  0.024  0.000  0.018  0.043
   11  0.000  0.001  0.019  0.020
   12  0.005  0.000  0.063  0.069
   13  0.000  0.001  0.017  0.018
   14  0.001  0.000  0.045  0.046
   15  0.004  0.000  0.079  0.084
   16  0.007  0.000  0.059  0.066
   17  0.003  0.000  0.086  0.089
   18  0.014  0.000  0.007  0.021
   19  0.001  0.000  0.031  0.032
   20  0.001  0.001  0.016  0.018
   21  0.000  0.000  0.023  0.023
   22  0.001  0.000  0.020  0.021
   23  0.000  0.000  0.022  0.023
   24  0.005  0.000  0.017  0.022
   25  0.002  0.000  0.021  0.023
   26  0.000  0.000  0.032  0.033
   27  0.002  0.000  0.020  0.021
   28  0.000  0.000  0.016  0.016
   29  0.002  0.000  0.005  0.007
   30  0.001  0.000  0.005  0.006
   31  0.001  0.000  0.005  0.007
   32  0.004  0.000  0.005  0.009
   33  0.000  0.000  0.005  0.005
   34  0.004  0.001  0.005  0.009
   35  0.000  0.000  0.004  0.005
   36  0.000  0.000  0.001  0.001
   37  0.000  0.000  0.000  0.000
tot    0.094  0.012  0.717  0.822
 
band    15 # energy   -5.10165789 # occ.  2.00000000
 
ion      s      p      d    tot
    1  0.010  0.000  0.015  0.025
    2  0.004  0.000  0.014  0.019
    3  0.004  0.000  0.014  0.019
    4  0.004  0.000  0.014  0.019
    5  0.002  0.000  0.018  0.020
    6  0.004  0.000  0.014  0.019
    7  0.004  0.000  0.014  0.019
    8  0.004  0.000  0.014  0.019
    9  0.002  0.000  0.003  0.006
   10  0.000  0.000  0.022  0.023
   11  0.005  0.000  0.015  0.020
   12  0.000  0.000  0.022  0.023
   13  0.005  0.000  0.015  0.020
   14  0.005  0.000  0.015  0.020
   15  0.000  0.000  0.019  0.020
   16  0.000  0.000  0.022  0.023
   17  0.000  0.000  0.019  0.020
   18  0.000  0.000  0.019  0.020
   19  0.004  0.000  0.035  0.039
   20  0.000  0.001  0.008  0.009
   21  0.000  0.001  0.008  0.009
   22  0.001  0.000  0.028  0.028
   23  0.000  0.001  0.008  0.009
   24  0.001  0.000  0.028  0.028
   25  0.004  0.000  0.035  0.039
   26  0.004  0.000  0.035  0.039
   27  0.001  0.000  0.028  0.028
   28  0.007  0.000  0.035  0.043
   29  0.006  0.000  0.020  0.027
   30  0.006  0.000  0.020  0.027
   31  0.006  0.000  0.020  0.027
   32  0.006  0.000  0.020  0.027
   33  0.006  0.000  0.020  0.027
   34  0.006  0.000  0.020  0.027
   35  0.003  0.000  0.008  0.011
   36  0.012  0.001  0.001  0.014
   37  0.000  0.000  0.000  0.001
tot    0.131  0.008  0.668  0.808
 
band    16 # energy   -5.09629280 # occ.  2.00000000
 
ion      s      p      d    tot
    1  0.000  0.000  0.005  0.005
    2  0.001  0.000  0.007  0.008
    3  0.000  0.000  0.008  0.008
    4  0.002  0.000  0.006  0.008
    5  0.000  0.000  0.006  0.007
    6  0.002  0.000  0.005  0.007
    7  0.000  0.000  0.008  0.008
    8  0.002  0.000  0.005  0.007
    9  0.000  0.000  0.015  0.016
   10  0.000  0.000  0.035  0.035
   11  0.001  0.000  0.062  0.063
   12  0.000  0.000  0.019  0.019
   13  0.002  0.000  0.057  0.059
   14  0.007  0.000  0.006  0.013
   15  0.001  0.000  0.040  0.041
   16  0.000  0.000  0.018  0.018
   17  0.001  0.000  0.040  0.041
   18  0.004  0.000  0.034  0.039
   19  0.001  0.000  0.061  0.063
   20  0.000  0.000  0.052  0.052
   21  0.000  0.000  0.024  0.024
   22  0.002  0.000  0.052  0.054
   23  0.000  0.000  0.022  0.022
   24  0.007  0.000  0.028  0.036
   25  0.005  0.000  0.007  0.013
   26  0.002  0.000  0.057  0.059
   27  0.002  0.000  0.054  0.056
   28  0.000  0.000  0.005  0.005
   29  0.001  0.000  0.008  0.009
   30  0.002  0.000  0.003  0.006
   31  0.001  0.000  0.009  0.010
   32  0.000  0.000  0.009  0.009
   33  0.002  0.000  0.004  0.006
   34  0.000  0.000  0.009  0.009
   35  0.000  0.000  0.014  0.014
   36  0.000  0.000  0.001  0.001
   37  0.000  0.000  0.000  0.000
tot    0.048  0.006  0.795  0.849
 
band    17 # energy   -5.09627730 # occ.  2.00000000
 
ion      s      p      d    tot
    1  0.000  0.000  0.005  0.005
    2  0.001  0.000  0.006  0.007
    3  0.002  0.000  0.005  0.007
    4  0.001  0.000  0.006  0.008
    5  0.000  0.000  0.006  0.007
    6  0.000  0.000  0.008  0.009
    7  0.002  0.000  0.005  0.007
    8  0.000  0.000  0.008  0.009
    9  0.000  0.000  0.015  0.016
   10  0.000  0.000  0.013  0.013
   11  0.005  0.000  0.022  0.027
   12  0.000  0.000  0.029  0.029
   13  0.005  0.000  0.026  0.031
   14  0.000  0.000  0.077  0.077
   15  0.003  0.000  0.036  0.039
   16  0.000  0.000  0.030  0.030
   17  0.003  0.000  0.036  0.040
   18  0.000  0.000  0.042  0.042
   19  0.004  0.000  0.022  0.027
   20  0.000  0.000  0.013  0.013
   21  0.000  0.000  0.041  0.041
   22  0.005  0.000  0.038  0.043
   23  0.000  0.000  0.044  0.044
   24  0.000  0.000  0.061  0.061
   25  0.000  0.000  0.077  0.077
   26  0.004  0.000  0.027  0.031
   27  0.006  0.000  0.035  0.041
   28  0.000  0.000  0.005  0.005
   29  0.001  0.000  0.006  0.007
   30  0.000  0.000  0.010  0.011
   31  0.001  0.000  0.005  0.007
   32  0.002  0.000  0.005  0.007
   33  0.000  0.000  0.010  0.011
   34  0.002  0.000  0.005  0.007
   35  0.000  0.000  0.014  0.014
   36  0.000  0.000  0.001  0.001
   37  0.000  0.000  0.000  0.000
tot    0.048  0.006  0.795  0.849
 
band    18 # energy   -4.96968770 # occ.  2.00000000
 
ion      s      p      d    tot
    1  0.000  0.000  0.000  0.001
    2  0.000  0.000  0.004  0.004
    3  0.000  0.000  0.004  0.004
    4  0.000  0.000  0.004  0.004
    5  0.000  0.000  0.015  0.016
    6  0.000  0.000  0.004  0.004
    7  0.000  0.000  0.004  0.004
    8  0.000  0.000  0.004  0.004
    9  0.001  0.001  0.006  0.007
   10  0.000  0.000  0.012  0.012
   11  0.000  0.001  0.077  0.078
   12  0.000  0.000  0.012  0.012
   13  0.000  0.001  0.077  0.078
   14  0.000  0.001  0.077  0.078
   15  0.000  0.001  0.036  0.037
   16  0.000  0.000  0.012  0.012
   17  0.000  0.001  0.036  0.037
   18  0.000  0.001  0.036  0.037
   19  0.000  0.000  0.019  0.019
   20  0.001  0.000  0.071  0.073
   21  0.001  0.000  0.071  0.073
   22  0.002  0.000  0.021  0.024
   23  0.001  0.000  0.071  0.073
   24  0.002  0.000  0.021  0.023
   25  0.000  0.000  0.019  0.019
   26  0.000  0.000  0.019  0.019
   27  0.002  0.000  0.021  0.024
   28  0.005  0.001  0.000  0.006
   29  0.000  0.000  0.012  0.013
   30  0.000  0.000  0.012  0.013
   31  0.000  0.000  0.012  0.013
   32  0.000  0.000  0.012  0.013
   33  0.000  0.000  0.012  0.013
   34  0.000  0.000  0.012  0.013
   35  0.002  0.000  0.001  0.004
   36  0.001  0.001  0.003  0.004
   37  0.000  0.001  0.000  0.001
tot    0.024  0.014  0.831  0.869
 
band    19 # energy   -4.96052415 # occ.  2.00000000
 
ion      s      p      d    tot
    1  0.000  0.000  0.001  0.001
    2  0.001  0.001  0.005  0.007
    3  0.000  0.000  0.008  0.008
    4  0.001  0.001  0.006  0.007
    5  0.000  0.001  0.015  0.015
    6  0.001  0.000  0.005  0.006
    7  0.000  0.000  0.008  0.008
    8  0.001  0.000  0.005  0.006
    9  0.000  0.000  0.008  0.009
   10  0.001  0.001  0.020  0.021
   11  0.001  0.000  0.073  0.074
   12  0.000  0.000  0.031  0.031
   13  0.000  0.000  0.075  0.076
   14  0.002  0.000  0.045  0.047
   15  0.001  0.000  0.012  0.013
   16  0.000  0.000  0.030  0.031
   17  0.001  0.000  0.011  0.012
   18  0.003  0.001  0.031  0.034
   19  0.001  0.000  0.013  0.014
   20  0.003  0.000  0.055  0.058
   21  0.001  0.000  0.096  0.097
   22  0.000  0.000  0.025  0.026
   23  0.001  0.000  0.094  0.095
   24  0.000  0.001  0.021  0.023
   25  0.003  0.001  0.033  0.036
   26  0.001  0.000  0.012  0.013
   27  0.000  0.000  0.025  0.026
   28  0.000  0.000  0.009  0.009
   29  0.001  0.000  0.006  0.007
   30  0.000  0.000  0.009  0.009
   31  0.001  0.000  0.006  0.007
   32  0.002  0.001  0.008  0.011
   33  0.000  0.000  0.009  0.009
   34  0.002  0.001  0.008  0.011
   35  0.000  0.000  0.001  0.001
   36  0.000  0.002  0.004  0.006
   37  0.000  0.000  0.000  0.000
tot    0.025  0.017  0.823  0.865
 
band    20 # energy   -4.96051158 # occ.  2.00000000
 
ion      s      p      d    tot
    1  0.000  0.000  0.001  0.001
    2  0.000  0.000  0.007  0.007
    3  0.001  0.000  0.005  0.006
    4  0.000  0.000  0.007  0.007
    5  0.000  0.001  0.015  0.015
    6  0.001  0.000  0.007  0.008
    7  0.001  0.000  0.005  0.006
    8  0.000  0.000  0.007  0.008
    9  0.000  0.000  0.008  0.009
   10  0.000  0.000  0.034  0.034
   11  0.001  0.000  0.055  0.057
   12  0.000  0.001  0.023  0.024
   13  0.002  0.000  0.054  0.055
   14  0.000  0.000  0.084  0.084
   15  0.002  0.001  0.024  0.027
   16  0.000  0.001  0.024  0.025
   17  0.002  0.001  0.025  0.028
   18  0.000  0.000  0.005  0.005
   19  0.002  0.001  0.025  0.028
   20  0.000  0.000  0.108  0.109
   21  0.002  0.000  0.067  0.070
   22  0.000  0.001  0.023  0.024
   23  0.002  0.000  0.069  0.072
   24  0.000  0.000  0.027  0.027
   25  0.000  0.000  0.006  0.006
   26  0.002  0.001  0.027  0.029
   27  0.000  0.001  0.023  0.024
   28  0.000  0.000  0.009  0.009
   29  0.001  0.001  0.009  0.011
   30  0.002  0.001  0.006  0.009
   31  0.001  0.001  0.009  0.011
   32  0.000  0.000  0.007  0.007
   33  0.002  0.001  0.006  0.009
   34  0.000  0.000  0.007  0.008
   35  0.000  0.000  0.001  0.001
   36  0.000  0.002  0.004  0.006
   37  0.000  0.000  0.000  0.000
tot    0.025  0.017  0.823  0.865
 
band    21 # energy   -4.93794640 # occ.  2.00000000
 
ion      s      p      d    tot
    1  0.001  0.000  0.004  0.005
    2  0.000  0.001  0.012  0.012
    3  0.000  0.001  0.012  0.012
    4  0.000  0.001  0.012  0.012
    5  0.005  0.001  0.000  0.006
    6  0.000  0.001  0.012  0.012
    7  0.000  0.001  0.012  0.012
    8  0.000  0.001  0.012  0.012
    9  0.002  0.000  0.002  0.004
   10  0.002  0.001  0.051  0.053
   11  0.000  0.000  0.021  0.021
   12  0.002  0.001  0.051  0.053
   13  0.000  0.000  0.021  0.021
   14  0.000  0.000  0.021  0.021
   15  0.003  0.000  0.023  0.026
   16  0.002  0.001  0.051  0.053
   17  0.003  0.000  0.023  0.026
   18  0.003  0.000  0.023  0.026
   19  0.001  0.000  0.056  0.057
   20  0.001  0.000  0.017  0.018
   21  0.001  0.000  0.017  0.018
   22  0.000  0.001  0.045  0.046
   23  0.001  0.000  0.017  0.018
   24  0.000  0.001  0.045  0.046
   25  0.001  0.000  0.056  0.057
   26  0.001  0.000  0.056  0.057
   27  0.000  0.001  0.045  0.046
   28  0.000  0.000  0.016  0.016
   29  0.000  0.000  0.012  0.012
   30  0.000  0.000  0.012  0.012
   31  0.000  0.000  0.012  0.012
   32  0.000  0.000  0.012  0.012
   33  0.000  0.000  0.012  0.012
   34  0.000  0.000  0.012  0.012
   35  0.003  0.001  0.004  0.008
   36  0.004  0.001  0.000  0.005