PROCAR new format
# of k-points:   10         # of bands:  252         # of ions:   37

 k-point     1 :    0.00000000 0.00000000 0.00000000     weight = 0.01562500

band     1 # energy   -9.64174250 # occ.  2.00000000
 
ion      s      p      d    tot
    1  0.001  0.000  0.000  0.001
    2  0.001  0.000  0.000  0.001
    3  0.001  0.000  0.000  0.001
    4  0.001  0.000  0.000  0.001
    5  0.001  0.000  0.000  0.001
    6  0.001  0.000  0.000  0.001
    7  0.001  0.000  0.000  0.001
    8  0.001  0.000  0.000  0.001
    9  0.001  0.000  0.000  0.001
   10  0.005  0.000  0.000  0.005
   11  0.005  0.000  0.000  0.005
   12  0.005  0.000  0.000  0.005
   13  0.005  0.000  0.000  0.005
   14  0.005  0.000  0.000  0.005
   15  0.004  0.000  0.000  0.005
   16  0.005  0.000  0.000  0.005
   17  0.004  0.000  0.000  0.005
   18  0.004  0.000  0.000  0.005
   19  0.008  0.000  0.000  0.008
   20  0.013  0.000  0.000  0.014
   21  0.013  0.000  0.000  0.014
   22  0.008  0.000  0.000  0.008
   23  0.013  0.000  0.000  0.014
   24  0.008  0.000  0.000  0.008
   25  0.008  0.000  0.000  0.008
   26  0.008  0.000  0.000  0.008
   27  0.008  0.000  0.000  0.008
   28  0.004  0.000  0.000  0.004
   29  0.008  0.000  0.000  0.009
   30  0.008  0.000  0.000  0.009
   31  0.008  0.000  0.000  0.009
   32  0.008  0.000  0.000  0.009
   33  0.008  0.000  0.000  0.009
   34  0.008  0.000  0.000  0.009
   35  0.004  0.000  0.000  0.004
   36  0.083  0.026  0.066  0.175
   37  0.288  0.012  0.000  0.300
tot    0.560  0.044  0.070  0.674
 
band     2 # energy   -9.16673616 # occ.  2.00000000
 
ion      s      p      d    tot
    1  0.007  0.001  0.000  0.008
    2  0.007  0.001  0.000  0.008
    3  0.007  0.001  0.000  0.008
    4  0.007  0.001  0.000  0.008
    5  0.007  0.001  0.000  0.008
    6  0.007  0.001  0.000  0.008
    7  0.007  0.001  0.000  0.008
    8  0.007  0.001  0.000  0.008
    9  0.007  0.001  0.000  0.008
   10  0.022  0.000  0.000  0.022
   11  0.022  0.000  0.000  0.022
   12  0.022  0.000  0.000  0.022
   13  0.022  0.000  0.000  0.022
   14  0.022  0.000  0.000  0.022
   15  0.023  0.000  0.000  0.023
   16  0.022  0.000  0.000  0.022
   17  0.023  0.000  0.000  0.023
   18  0.023  0.000  0.000  0.023
   19  0.016  0.000  0.000  0.016
   20  0.012  0.001  0.000  0.013
   21  0.012  0.001  0.000  0.013
   22  0.016  0.000  0.000  0.016
   23  0.012  0.001  0.000  0.013
   24  0.016  0.000  0.000  0.016
   25  0.016  0.000  0.000  0.016
   26  0.016  0.000  0.000  0.016
   27  0.016  0.000  0.000  0.016
   28  0.002  0.000  0.000  0.003
   29  0.001  0.001  0.000  0.002
   30  0.001  0.001  0.000  0.002
   31  0.001  0.001  0.000  0.002
   32  0.001  0.001  0.000  0.002
   33  0.001  0.001  0.000  0.002
   34  0.001  0.001  0.000  0.002
   35  0.002  0.000  0.000  0.003
   36  0.014  0.020  0.030  0.064
   37  0.129  0.004  0.000  0.133
tot    0.546  0.043  0.034  0.622
 
band     3 # energy   -7.89954806 # occ.  2.00000000
 
ion      s      p      d    tot
    1  0.018  0.001  0.001  0.019
    2  0.018  0.001  0.001  0.019
    3  0.018  0.001  0.001  0.019
    4  0.018  0.001  0.001  0.019
    5  0.018  0.001  0.001  0.020
    6  0.018  0.001  0.001  0.019
    7  0.018  0.001  0.001  0.019
    8  0.018  0.001  0.001  0.019
    9  0.018  0.001  0.001  0.019
   10  0.007  0.003  0.000  0.011
   11  0.008  0.003  0.000  0.011
   12  0.007  0.003  0.000  0.011
   13  0.008  0.003  0.000  0.011
   14  0.008  0.003  0.000  0.011
   15  0.007  0.003  0.001  0.010
   16  0.007  0.003  0.000  0.011
   17  0.007  0.003  0.001  0.010
   18  0.007  0.003  0.001  0.010
   19  0.015  0.002  0.001  0.017
   20  0.010  0.001  0.001  0.013
   21  0.010  0.001  0.001  0.013
   22  0.014  0.002  0.001  0.017
   23  0.010  0.001  0.001  0.013
   24  0.014  0.002  0.001  0.017
   25  0.015  0.002  0.001  0.017
   26  0.015  0.002  0.001  0.017
   27  0.014  0.002  0.001  0.017
   28  0.019  0.001  0.000  0.020
   29  0.014  0.001  0.000  0.016
   30  0.014  0.001  0.000  0.016
   31  0.014  0.001  0.000  0.016
   32  0.014  0.001  0.000  0.016
   33  0.014  0.001  0.000  0.016
   34  0.014  0.001  0.000  0.016
   35  0.019  0.001  0.000  0.020
   36  0.001  0.007  0.012  0.019
   37  0.026  0.000  0.000  0.027
tot    0.495  0.063  0.033  0.591
 
band     4 # energy   -6.37297682 # occ.  2.00000000
 
ion      s      p      d    tot
    1  0.013  0.000  0.004  0.017
    2  0.009  0.001  0.005  0.015
    3  0.009  0.001  0.005  0.015
    4  0.009  0.001  0.005  0.015
    5  0.000  0.001  0.006  0.008
    6  0.009  0.001  0.005  0.015
    7  0.009  0.001  0.005  0.015
    8  0.009  0.001  0.005  0.015
    9  0.026  0.001  0.002  0.028
   10  0.001  0.003  0.005  0.009
   11  0.023  0.007  0.001  0.031
   12  0.001  0.003  0.005  0.009
   13  0.023  0.007  0.001  0.031
   14  0.023  0.007  0.001  0.031
   15  0.002  0.002  0.007  0.011
   16  0.001  0.003  0.005  0.009
   17  0.002  0.002  0.007  0.011
   18  0.002  0.002  0.007  0.011
   19  0.000  0.002  0.008  0.010
   20  0.029  0.007  0.002  0.038
   21  0.029  0.007  0.002  0.038
   22  0.000  0.005  0.004  0.009
   23  0.029  0.007  0.002  0.038
   24  0.000  0.005  0.004  0.009
   25  0.000  0.002  0.008  0.010
   26  0.000  0.002  0.008  0.010
   27  0.000  0.005  0.004  0.009
   28  0.021  0.000  0.002  0.023
   29  0.010  0.001  0.006  0.017
   30  0.010  0.001  0.006  0.017
   31  0.010  0.001  0.006  0.017
   32  0.010  0.001  0.006  0.017
   33  0.010  0.001  0.006  0.017
   34  0.010  0.001  0.006  0.017
   35  0.026  0.000  0.003  0.029
   36  0.001  0.002  0.011  0.014
   37  0.000  0.001  0.000  0.001
tot    0.369  0.087  0.174  0.631
 
band     5 # energy   -6.33558839 # occ.  2.00000000
 
ion      s      p      d    tot
    1  0.000  0.002  0.005  0.007
    2  0.009  0.002  0.002  0.013
    3  0.000  0.001  0.002  0.003
    4  0.008  0.002  0.002  0.012
    5  0.000  0.003  0.004  0.007
    6  0.005  0.002  0.002  0.009
    7  0.001  0.001  0.002  0.003
    8  0.006  0.002  0.002  0.010
    9  0.000  0.000  0.002  0.002
   10  0.049  0.005  0.003  0.057
   11  0.013  0.008  0.006  0.027
   12  0.009  0.001  0.014  0.024
   13  0.008  0.009  0.006  0.023
   14  0.042  0.001  0.007  0.049
   15  0.000  0.006  0.005  0.012
   16  0.016  0.002  0.012  0.029
   17  0.000  0.007  0.005  0.013
   18  0.000  0.002  0.004  0.006
   19  0.004  0.009  0.003  0.017
   20  0.066  0.003  0.005  0.075
   21  0.013  0.005  0.013  0.030
   22  0.004  0.003  0.011  0.018
   23  0.021  0.004  0.012  0.037
   24  0.019  0.004  0.002  0.025
   25  0.013  0.000  0.006  0.020
   26  0.002  0.011  0.002  0.016
   27  0.006  0.003  0.010  0.019
   28  0.000  0.002  0.003  0.005
   29  0.011  0.003  0.003  0.016
   30  0.001  0.001  0.002  0.004
   31  0.010  0.003  0.003  0.016
   32  0.004  0.001  0.002  0.008
   33  0.002  0.001  0.002  0.005
   34  0.005  0.002  0.002  0.010
   35  0.000  0.000  0.004  0.004
   36  0.000  0.004  0.005  0.009
   37  0.000  0.000  0.000  0.000
tot    0.347  0.115  0.178  0.640
 
band     6 # energy   -6.33557327 # occ.  2.00000000
 
ion      s      p      d    tot
    1  0.000  0.002  0.005  0.007
    2  0.001  0.001  0.002  0.004
    3  0.009  0.002  0.002  0.014
    4  0.001  0.001  0.002  0.005
    5  0.000  0.003  0.004  0.007
    6  0.005  0.002  0.002  0.008
    7  0.009  0.002  0.002  0.014
    8  0.003  0.001  0.002  0.007
    9  0.000  0.000  0.002  0.002
   10  0.000  0.000  0.016  0.017
   11  0.029  0.004  0.006  0.039
   12  0.040  0.004  0.005  0.050
   13  0.034  0.003  0.006  0.043
   14  0.000  0.011  0.006  0.017
   15  0.000  0.004  0.005  0.009
   16  0.034  0.003  0.007  0.044
   17  0.000  0.003  0.004  0.008
   18  0.000  0.008  0.006  0.014
   19  0.009  0.004  0.005  0.018
   20  0.000  0.005  0.015  0.020
   21  0.054  0.004  0.007  0.065
   22  0.015  0.004  0.004  0.023
   23  0.045  0.004  0.008  0.058
   24  0.000  0.002  0.013  0.016
   25  0.000  0.014  0.001  0.015
   26  0.011  0.003  0.006  0.019
   27  0.013  0.004  0.006  0.022
   28  0.000  0.002  0.003  0.005
   29  0.000  0.001  0.002  0.003
   30  0.010  0.003  0.003  0.015
   31  0.001  0.001  0.002  0.004
   32  0.007  0.002  0.003  0.012
   33  0.009  0.002  0.003  0.014
   34  0.005  0.002  0.003  0.010
   35  0.000  0.000  0.003  0.004
   36  0.000  0.004  0.005  0.009
   37  0.000  0.000  0.000  0.000
tot    0.347  0.115  0.178  0.640
 
band     7 # energy   -6.31137323 # occ.  2.00000000
 
ion      s      p      d    tot
    1  0.020  0.003  0.001  0.024
    2  0.000  0.002  0.004  0.006
    3  0.000  0.002  0.004  0.006
    4  0.000  0.002  0.004  0.006
    5  0.001  0.000  0.000  0.002
    6  0.000  0.002  0.004  0.006
    7  0.000  0.002  0.004  0.006
    8  0.000  0.002  0.004  0.006
    9  0.010  0.002  0.000  0.011
   10  0.030  0.006  0.006  0.042
   11  0.005  0.000  0.012  0.017
   12  0.030  0.006  0.006  0.042
   13  0.005  0.000  0.012  0.017
   14  0.005  0.000  0.012  0.016
   15  0.012  0.008  0.003  0.024
   16  0.030  0.006  0.006  0.042
   17  0.012  0.008  0.003  0.024
   18  0.012  0.008  0.003  0.024
   19  0.023  0.009  0.002  0.034
   20  0.000  0.002  0.011  0.013
   21  0.000  0.002  0.011  0.013
   22  0.025  0.002  0.009  0.036
   23  0.000  0.002  0.011  0.013
   24  0.025  0.002  0.009  0.036
   25  0.022  0.009  0.002  0.033
   26  0.023  0.009  0.002  0.034
   27  0.025  0.002  0.009  0.036
   28  0.018  0.003  0.001  0.021
   29  0.000  0.002  0.004  0.006
   30  0.000  0.002  0.004  0.006
   31  0.000  0.002  0.004  0.006
   32  0.000  0.002  0.004  0.006
   33  0.000  0.002  0.004  0.006
   34  0.000  0.002  0.004  0.006
   35  0.013  0.002  0.001  0.017
   36  0.000  0.000  0.000  0.000
   37  0.000  0.000  0.000  0.000
tot    0.345  0.115  0.180  0.640
 
band     8 # energy   -6.30559053 # occ.  2.00000000
 
ion      s      p      d    tot
    1  0.000  0.002  0.003  0.004
    2  0.009  0.002  0.002  0.014
    3  0.000  0.001  0.002  0.003
    4  0.009  0.002  0.002  0.014
    5  0.000  0.000  0.004  0.004
    6  0.005  0.002  0.002  0.010
    7  0.001  0.001  0.002  0.004
    8  0.006  0.002  0.003  0.011
    9  0.000  0.003  0.006  0.009
   10  0.000  0.014  0.002  0.015
   11  0.014  0.003  0.006  0.023
   12  0.010  0.003  0.006  0.018
   13  0.016  0.004  0.005  0.024
   14  0.000  0.002  0.013  0.016
   15  0.044  0.004  0.007  0.055
   16  0.009  0.004  0.005  0.018
   17  0.049  0.004  0.006  0.059
   18  0.000  0.005  0.013  0.018
   19  0.035  0.004  0.007  0.046
   20  0.000  0.009  0.006  0.015
   21  0.000  0.003  0.005  0.008
   22  0.035  0.003  0.006  0.045
   23  0.000  0.004  0.005  0.009
   24  0.000  0.011  0.006  0.017
   25  0.000  0.000  0.017  0.017
   26  0.039  0.004  0.006  0.048
   27  0.032  0.004  0.006  0.042
   28  0.000  0.002  0.005  0.007
   29  0.010  0.002  0.003  0.015
   30  0.001  0.001  0.002  0.005
   31  0.010  0.002  0.003  0.015
   32  0.004  0.001  0.002  0.007
   33  0.002  0.001  0.002  0.005
   34  0.004  0.001  0.002  0.008
   35  0.000  0.003  0.005  0.008
   36  0.000  0.000  0.002  0.002
   37  0.000  0.000  0.000  0.000
tot    0.345  0.116  0.178  0.638
 
band     9 # energy   -6.30557805 # occ.  2.00000000
 
ion      s      p      d    tot
    1  0.000  0.002  0.003  0.004
    2  0.001  0.001  0.002  0.004
    3  0.010  0.003  0.003  0.015
    4  0.001  0.001  0.002  0.005
    5  0.000  0.000  0.004  0.004
    6  0.005  0.002  0.002  0.009
    7  0.010  0.002  0.003  0.015
    8  0.004  0.001  0.002  0.008
    9  0.000  0.003  0.006  0.009
   10  0.012  0.000  0.007  0.019
   11  0.006  0.003  0.010  0.019
   12  0.003  0.011  0.003  0.016
   13  0.004  0.003  0.011  0.018
   14  0.020  0.004  0.002  0.026
   15  0.018  0.004  0.011  0.033
   16  0.004  0.010  0.003  0.016
   17  0.013  0.004  0.011  0.029
   18  0.062  0.004  0.005  0.070
   19  0.014  0.002  0.013  0.029
   20  0.000  0.002  0.005  0.007
   21  0.000  0.008  0.005  0.013
   22  0.009  0.009  0.006  0.024
   23  0.000  0.007  0.005  0.013
   24  0.044  0.001  0.006  0.052
   25  0.050  0.005  0.002  0.057
   26  0.011  0.001  0.014  0.026
   27  0.013  0.008  0.006  0.027
   28  0.000  0.002  0.005  0.007
   29  0.000  0.001  0.002  0.003
   30  0.009  0.002  0.002  0.014
   31  0.000  0.001  0.002  0.003
   32  0.007  0.002  0.003  0.011
   33  0.009  0.002  0.002  0.013
   34  0.006  0.002  0.003  0.010
   35  0.000  0.003  0.005  0.008
   36  0.000  0.000  0.002  0.002
   37  0.000  0.000  0.000  0.000
tot    0.345  0.116  0.178  0.638
 
band    10 # energy   -6.21070088 # occ.  2.00000000
 
ion      s      p      d    tot
    1  0.002  0.000  0.004  0.006
    2  0.007  0.001  0.007  0.016
    3  0.007  0.001  0.007  0.016
    4  0.007  0.001  0.007  0.016
    5  0.044  0.002  0.001  0.048
    6  0.007  0.001  0.007  0.016
    7  0.007  0.001  0.007  0.016
    8  0.007  0.001  0.007  0.016
    9  0.000  0.002  0.007  0.009
   10  0.006  0.004  0.007  0.017
   11  0.008  0.007  0.006  0.020
   12  0.006  0.004  0.007  0.017
   13  0.008  0.007  0.006  0.020
   14  0.008  0.007  0.006  0.020
   15  0.027  0.002  0.008  0.038
   16  0.006  0.004  0.007  0.017
   17  0.027  0.002  0.008  0.038
   18  0.027  0.002  0.008  0.038
   19  0.007  0.003  0.005  0.016
   20  0.008  0.003  0.006  0.017
   21  0.008  0.003  0.006  0.017
   22  0.007  0.006  0.003  0.016
   23  0.008  0.003  0.006  0.017
   24  0.007  0.006  0.003  0.016
   25  0.007  0.003  0.005  0.016
   26  0.007  0.003  0.005  0.016
   27  0.007  0.006  0.003  0.016
   28  0.005  0.000  0.005  0.010
   29  0.008  0.000  0.004  0.012
   30  0.008  0.000  0.004  0.012
   31  0.008  0.000  0.004  0.012
   32  0.008  0.000  0.004  0.012
   33  0.008  0.000  0.004  0.012
   34  0.008  0.000  0.004  0.012
   35  0.003  0.000  0.004  0.007
   36  0.007  0.004  0.007  0.019
   37  0.008  0.000  0.000  0.008
tot    0.348  0.094  0.204  0.646
 
band    11 # energy   -5.57202212 # occ.  2.00000000
 
ion      s      p      d    tot
    1  0.008  0.000  0.008  0.016
    2  0.004  0.001  0.009  0.014
    3  0.004  0.001  0.009  0.014
    4  0.004  0.001  0.009  0.014
    5  0.001  0.002  0.009  0.012
    6  0.004  0.001  0.009  0.014
    7  0.004  0.001  0.009  0.014
    8  0.004  0.001  0.009  0.014
    9  0.016  0.000  0.005  0.022
   10  0.005  0.000  0.024  0.030
   11  0.013  0.001  0.020  0.034
   12  0.005  0.000  0.024  0.030
   13  0.013  0.001  0.020  0.034
   14  0.013  0.001  0.020  0.034
   15  0.001  0.000  0.020  0.021
   16  0.005  0.000  0.024  0.030
   17  0.001  0.000  0.020  0.021
   18  0.001  0.000  0.020  0.021
   19  0.002  0.000  0.018  0.021
   20  0.013  0.001  0.026  0.040
   21  0.013  0.001  0.026  0.040
   22  0.002  0.000  0.022  0.024
   23  0.013  0.001  0.026  0.040
   24  0.002  0.000  0.022  0.025
   25  0.002  0.000  0.018  0.021
   26  0.002  0.000  0.018  0.021
   27  0.002  0.000  0.022  0.024
   28  0.006  0.000  0.006  0.012
   29  0.004  0.001  0.008  0.013
   30  0.004  0.001  0.008  0.013
   31  0.004  0.001  0.008  0.013
   32  0.004  0.001  0.008  0.012
   33  0.004  0.001  0.008  0.013
   34  0.004  0.001  0.008  0.012
   35  0.014  0.000  0.006  0.019
   36  0.001  0.002  0.010  0.013
   37  0.000  0.001  0.000  0.001
tot    0.203  0.025  0.540  0.768
 
band    12 # energy   -5.55672220 # occ.  2.00000000
 
ion      s      p      d    tot
    1  0.000  0.001  0.010  0.011
    2  0.017  0.003  0.005  0.026
    3  0.000  0.002  0.005  0.007
    4  0.014  0.003  0.005  0.023
    5  0.000  0.006  0.009  0.015
    6  0.015  0.003  0.005  0.024
    7  0.000  0.002  0.005  0.007
    8  0.018  0.004  0.005  0.027
    9  0.000  0.002  0.012  0.014
   10  0.011  0.004  0.009  0.024
   11  0.007  0.002  0.020  0.029
   12  0.002  0.001  0.015  0.018
   13  0.004  0.002  0.022  0.028
   14  0.022  0.005  0.005  0.032
   15  0.001  0.003  0.016  0.019
   16  0.004  0.002  0.014  0.019
   17  0.000  0.003  0.017  0.021
   18  0.002  0.000  0.008  0.010
   19  0.000  0.002  0.016  0.018
   20  0.018  0.004  0.005  0.028
   21  0.003  0.002  0.028  0.033
   22  0.002  0.001  0.014  0.017
   23  0.006  0.002  0.024  0.032
   24  0.012  0.004  0.010  0.026
   25  0.001  0.000  0.008  0.008
   26  0.000  0.003  0.017  0.020
   27  0.004  0.002  0.013  0.019
   28  0.000  0.001  0.012  0.013
   29  0.016  0.003  0.005  0.024
   30  0.001  0.002  0.005  0.008
   31  0.013  0.003  0.005  0.021
   32  0.017  0.003  0.006  0.026
   33  0.000  0.002  0.005  0.007
   34  0.019  0.003  0.006  0.028
   35  0.000  0.002  0.009  0.011
   36  0.000  0.007  0.004  0.011
   37  0.000  0.000  0.000  0.000
tot    0.228  0.094  0.381  0.703
 
band    13 # energy   -5.55671108 # occ.  2.00000000
 
ion      s      p      d    tot
    1  0.000  0.001  0.010  0.011
    2  0.004  0.002  0.005  0.012
    3  0.021  0.004  0.005  0.030
    4  0.007  0.002  0.005  0.015
    5  0.000  0.006  0.009  0.015
    6  0.007  0.002  0.005  0.014
    7  0.021  0.004  0.005  0.031
    8  0.004  0.002  0.005  0.011
    9  0.000  0.002  0.012  0.014
   10  0.000  0.001  0.016  0.017
   11  0.015  0.004  0.012  0.030
   12  0.009  0.003  0.010  0.023
   13  0.018  0.004  0.009  0.031
   14  0.000  0.001  0.026  0.028
   15  0.001  0.001  0.011  0.014
   16  0.008  0.003  0.011  0.022
   17  0.001  0.001  0.010  0.012
   18  0.000  0.004  0.020  0.024
   19  0.000  0.001  0.011  0.013
   20  0.000  0.002  0.033  0.035
   21  0.015  0.004  0.010  0.029
   22  0.010  0.004  0.011  0.024
   23  0.012  0.004  0.014  0.030
   24  0.000  0.000  0.015  0.015
   25  0.000  0.003  0.020  0.023
   26  0.000  0.001  0.010  0.011
   27  0.008  0.003  0.011  0.023
   28  0.000  0.001  0.012  0.013
   29  0.006  0.002  0.005  0.013
   30  0.021  0.004  0.005  0.030
   31  0.009  0.002  0.005  0.017
   32  0.005  0.002  0.005  0.012
   33  0.022  0.004  0.006  0.031
   34  0.003  0.002  0.005  0.010
   35  0.000  0.002  0.009  0.011
   36  0.000  0.007  0.004  0.011
   37  0.000  0.000  0.000  0.000
tot    0.228  0.094  0.381  0.703
 
band    14 # energy   -5.54397489 # occ.  2.00000000
 
ion      s      p      d    tot
    1  0.035  0.003  0.000  0.038
    2  0.000  0.003  0.010  0.013
    3  0.000  0.003  0.010  0.013
    4  0.000  0.003  0.010  0.013
    5  0.000  0.000  0.000  0.000
    6  0.000  0.003  0.010  0.013
    7  0.000  0.003  0.010  0.013
    8  0.000  0.003  0.010  0.013
    9  0.029  0.004  0.001  0.033
   10  0.009  0.004  0.010  0.023
   11  0.001  0.000  0.015  0.017
   12  0.008  0.004  0.011  0.023
   13  0.001  0.000  0.015  0.017
   14  0.001  0.000  0.015  0.017
   15  0.007  0.003  0.018  0.028
   16  0.008  0.004  0.011  0.023
   17  0.007  0.003  0.018  0.028
   18  0.007  0.003  0.018  0.028
   19  0.005  0.004  0.017  0.026
   20  0.000  0.000  0.017  0.017
   21  0.000  0.000  0.017  0.017
   22  0.011  0.003  0.010  0.025
   23  0.000  0.000  0.017  0.017
   24  0.011  0.003  0.010  0.025
   25  0.005  0.004  0.017  0.026
   26  0.005  0.004  0.017  0.026
   27  0.011  0.003  0.010  0.025
   28  0.036  0.003  0.000  0.040
   29  0.000  0.003  0.010  0.013
   30  0.000  0.003  0.010  0.013
   31  0.000  0.003  0.010  0.013
   32  0.000  0.003  0.010  0.013
   33  0.000  0.003  0.010  0.013
   34  0.000  0.003  0.010  0.013
   35  0.026  0.003  0.001  0.030
   36  0.000  0.000  0.000  0.000
   37  0.000  0.000  0.000  0.000
tot    0.226  0.091  0.389  0.706
 
band    15 # energy   -5.53527489 # occ.  2.00000000
 
ion      s      p      d    tot
    1  0.000  0.005  0.011  0.016
    2  0.006  0.002  0.005  0.014
    3  0.021  0.004  0.005  0.031
    4  0.005  0.002  0.005  0.013
    5  0.000  0.000  0.012  0.012
    6  0.005  0.002  0.005  0.012
    7  0.021  0.004  0.005  0.031
    8  0.005  0.002  0.005  0.013
    9  0.000  0.004  0.008  0.013
   10  0.011  0.002  0.005  0.019
   11  0.000  0.002  0.014  0.016
   12  0.003  0.003  0.022  0.028
   13  0.000  0.002  0.014  0.016
   14  0.001  0.001  0.010  0.012
   15  0.005  0.001  0.018  0.024
   16  0.003  0.003  0.022  0.028
   17  0.005  0.002  0.018  0.024
   18  0.020  0.006  0.007  0.033
   19  0.005  0.001  0.019  0.025
   20  0.002  0.001  0.011  0.015
   21  0.001  0.002  0.015  0.018
   22  0.003  0.003  0.020  0.026
   23  0.001  0.002  0.015  0.018
   24  0.010  0.002  0.005  0.017
   25  0.021  0.006  0.006  0.033
   26  0.006  0.002  0.019  0.026
   27  0.002  0.003  0.021  0.026
   28  0.000  0.005  0.008  0.013
   29  0.007  0.002  0.006  0.015
   30  0.021  0.004  0.005  0.030
   31  0.007  0.002  0.006  0.014
   32  0.003  0.002  0.006  0.011
   33  0.021  0.004  0.005  0.029
   34  0.004  0.002  0.006  0.012
   35  0.000  0.004  0.011  0.015
   36  0.000  0.000  0.007  0.007
   37  0.000  0.000  0.000  0.000
tot    0.226  0.094  0.382  0.701
 
band    16 # energy   -5.53526155 # occ.  2.00000000
 
ion      s      p      d    tot
    1  0.000  0.005  0.011  0.016
    2  0.015  0.003  0.005  0.024
    3  0.000  0.002  0.005  0.007
    4  0.016  0.003  0.005  0.025
    5  0.000  0.000  0.012  0.012
    6  0.017  0.003  0.006  0.026
    7  0.000  0.002  0.005  0.007
    8  0.016  0.003  0.006  0.025
    9  0.000  0.004  0.008  0.013
   10  0.000  0.003  0.028  0.031
   11  0.001  0.001  0.011  0.013
   12  0.008  0.002  0.011  0.022
   13  0.001  0.001  0.011  0.013
   14  0.000  0.003  0.015  0.018
   15  0.015  0.004  0.010  0.030
   16  0.009  0.002  0.011  0.022
   17  0.015  0.004  0.011  0.030
   18  0.000  0.000  0.021  0.021
   19  0.016  0.004  0.010  0.031
   20  0.000  0.002  0.016  0.018
   21  0.002  0.002  0.012  0.016
   22  0.007  0.002  0.011  0.020
   23  0.002  0.002  0.012  0.016
   24  0.000  0.003  0.026  0.029
   25  0.000  0.000  0.023  0.023
   26  0.016  0.004  0.011  0.030
   27  0.007  0.002  0.010  0.020
   28  0.000  0.005  0.008  0.013
   29  0.014  0.003  0.005  0.022
   30  0.000  0.002  0.006  0.008
   31  0.014  0.003  0.005  0.023
   32  0.017  0.003  0.005  0.026
   33  0.000  0.002  0.006  0.008
   34  0.017  0.003  0.005  0.025
   35  0.000  0.004  0.011  0.015
   36  0.000  0.000  0.007  0.007
   37  0.000  0.000  0.000  0.000
tot    0.226  0.094  0.382  0.701
 
band    17 # energy   -5.39637780 # occ.  2.00000000
 
ion      s      p      d    tot
    1  0.010  0.002  0.001  0.013
    2  0.000  0.003  0.010  0.013
    3  0.000  0.003  0.010  0.013
    4  0.000  0.003  0.010  0.013
    5  0.043  0.003  0.000  0.046
    6  0.000  0.003  0.010  0.013
    7  0.000  0.003  0.010  0.013
    8  0.000  0.003  0.010  0.013
    9  0.004  0.001  0.002  0.006
   10  0.002  0.001  0.024  0.027
   11  0.002  0.003  0.021  0.026
   12  0.002  0.001  0.024  0.027
   13  0.002  0.003  0.021  0.026
   14  0.002  0.003  0.021  0.026
   15  0.004  0.001  0.011  0.017
   16  0.002  0.001  0.024  0.027
   17  0.004  0.001  0.011  0.017
   18  0.004  0.001  0.011  0.017
   19  0.012  0.000  0.023  0.036
   20  0.007  0.004  0.011  0.022
   21  0.007  0.004  0.011  0.022
   22  0.004  0.001  0.019  0.024
   23  0.007  0.004  0.011  0.022
   24  0.004  0.001  0.019  0.024
   25  0.012  0.000  0.023  0.036
   26  0.012  0.000  0.023  0.036
   27  0.004  0.001  0.019  0.024
   28  0.000  0.002  0.009  0.011
   29  0.003  0.001  0.011  0.015
   30  0.003  0.001  0.011  0.015
   31  0.003  0.001  0.011  0.015
   32  0.003  0.001  0.011  0.015
   33  0.003  0.001  0.011  0.015
   34  0.003  0.001  0.011  0.015
   35  0.001  0.001  0.004  0.007
   36  0.018  0.007  0.005  0.030
   37  0.007  0.000  0.000  0.007
tot    0.194  0.073  0.476  0.743
 
band    18 # energy   -4.86916443 # occ.  2.00000000
 
ion      s      p      d    tot
    1  0.000  0.002  0.001  0.004
    2  0.014  0.001  0.009  0.025
    3  0.008  0.001  0.009  0.017
    4  0.014  0.001  0.009  0.025
    5  0.000  0.002  0.020  0.022
    6  0.001  0.001  0.009  0.011
    7  0.008  0.001  0.009  0.017
    8  0.001  0.001  0.009  0.011
    9  0.000  0.000  0.030  0.030
   10  0.001  0.007  0.021  0.029
   11  0.000  0.001  0.040  0.041
   12  0.000  0.002  0.010  0.012
   13  0.000  0.001  0.041  0.042
   14  0.001  0.002  0.004  0.007
   15  0.000  0.000  0.029  0.030
   16  0.000  0.002  0.010  0.012
   17  0.000  0.000  0.029  0.030
   18  0.000  0.001  0.012  0.013
   19  0.000  0.000  0.044  0.044
   20  0.002  0.006  0.023  0.032
   21  0.000  0.002  0.016  0.018
   22  0.000  0.001  0.025  0.026
   23  0.000  0.002  0.016  0.018
   24  0.000  0.002  0.015  0.017
   25  0.001  0.001  0.003  0.005
   26  0.000  0.000  0.044  0.045
   27  0.000  0.001  0.025  0.026
   28  0.000  0.002  0.029  0.030
   29  0.014  0.001  0.011  0.026
   30  0.000  0.001  0.010  0.011
   31  0.014  0.001  0.011  0.026
   32  0.012  0.001  0.010  0.023
   33  0.000  0.001  0.010  0.011
   34  0.012  0.001  0.010  0.023
   35  0.000  0.000  0.027  0.028
   36  0.000  0.003  0.002  0.005
   37  0.000  0.003  0.000  0.003
tot    0.104  0.056  0.633  0.793
 
band    19 # energy   -4.86913409 # occ.  2.00000000
 
ion      s      p      d    tot
    1  0.000  0.002  0.001  0.004
    2  0.001  0.001  0.009  0.010
    3  0.007  0.001  0.009  0.018
    4  0.001  0.001  0.009  0.010
    5  0.000  0.002  0.020  0.022
    6  0.014  0.001  0.009  0.024
    7  0.007  0.001  0.009  0.018
    8  0.014  0.001  0.009  0.024
    9  0.000  0.000  0.030  0.030
   10  0.000  0.000  0.007  0.007
   11  0.001  0.002  0.016  0.019
   12  0.001  0.005  0.017  0.023
   13  0.001  0.002  0.016  0.018
   14  0.000  0.000  0.053  0.053
   15  0.000  0.001  0.018  0.019
   16  0.001  0.005  0.017  0.023
   17  0.000  0.001  0.017  0.018
   18  0.000  0.000  0.035  0.035
   19  0.000  0.001  0.017  0.018
   20  0.000  0.000  0.014  0.014
   21  0.001  0.005  0.021  0.027
   22  0.000  0.002  0.018  0.020
   23  0.001  0.005  0.021  0.027
   24  0.000  0.000  0.028  0.028
   25  0.000  0.000  0.058  0.058
   26  0.000  0.001  0.017  0.018
   27  0.000  0.002  0.018  0.020
   28  0.000  0.002  0.029  0.030
   29  0.003  0.001  0.009  0.014
   30  0.017  0.001  0.011  0.029
   31  0.003  0.001  0.009  0.014
   32  0.005  0.001  0.011  0.018
   33  0.017  0.001  0.011  0.029
   34  0.005  0.001  0.011  0.017
   35  0.000  0.000  0.027  0.028
   36  0.000  0.003  0.002  0.005
   37  0.000  0.003  0.000  0.003
tot    0.104  0.056  0.633  0.793
 
band    20 # energy   -4.85595145 # occ.  2.00000000
 
ion      s      p      d    tot
    1  0.000  0.000  0.036  0.037
    2  0.015  0.001  0.010  0.026
    3  0.010  0.001  0.009  0.020
    4  0.013  0.001  0.010  0.025
    5  0.000  0.001  0.013  0.014
    6  0.001  0.001  0.010  0.012
    7  0.008  0.001  0.009  0.018
    8  0.000  0.001  0.010  0.011
    9  0.000  0.003  0.006  0.009
   10  0.000  0.000  0.059  0.059
   11  0.000  0.004  0.018  0.023
   12  0.000  0.000  0.022  0.022
   13  0.000  0.004  0.017  0.021
   14  0.000  0.000  0.011  0.012
   15  0.001  0.004  0.016  0.021
   16  0.000  0.000  0.016  0.016
   17  0.001  0.004  0.018  0.022
   18  0.000  0.000  0.031  0.031
   19  0.000  0.005  0.017  0.022
   20  0.000  0.000  0.069  0.069
   21  0.000  0.000  0.028  0.029
   22  0.001  0.003  0.019  0.023
   23  0.000  0.000  0.022  0.022
   24  0.000  0.000  0.037  0.037
   25  0.000  0.000  0.007  0.007
   26  0.000  0.004  0.015  0.020
   27  0.001  0.004  0.016  0.021
   28  0.000  0.001  0.007  0.008
   29  0.011  0.001  0.010  0.021
   30  0.000  0.001  0.011  0.012
   31  0.012  0.001  0.009  0.023
   32  0.012  0.001  0.009  0.021
   33  0.000  0.001  0.011  0.012
   34  0.010  0.001  0.009  0.020
   35  0.000  0.002  0.010  0.012
   36  0.000  0.000  0.018  0.018
   37  0.000  0.000  0.000  0.000
tot    0.097  0.053  0.647  0.797
 
band    21 # energy   -4.85594822 # occ.  2.00000000
 
ion      s      p      d    tot
    1  0.000  0.000  0.036  0.037
    2  0.001  0.001  0.009  0.011
    3  0.006  0.001  0.010  0.017
    4  0.002  0.001  0.009  0.013
    5  0.000  0.001  0.013  0.014
    6  0.015  0.001  0.010  0.026
    7  0.008  0.001  0.010  0.019
    8  0.015  0.001  0.010  0.026
    9  0.000  0.003  0.006  0.009
   10  0.000  0.000  0.006  0.006
   11  0.000  0.001  0.013  0.014
   12  0.000  0.000  0.043  0.043
   13  0.000  0.002  0.014  0.016
   14  0.000  0.005  0.020  0.025
   15  0.000  0.001  0.027  0.028
   16  0.000  0.000  0.049  0.049
   17  0.000  0.002  0.025  0.027
   18  0.001  0.005  0.012  0.019
   19  0.000  0.001  0.009  0.011
   20  0.000  0.000  0.010  0.011
   21  0.000  0.000  0.051  0.051
   22  0.000  0.001  0.029  0.031
   23  0.000  0.000  0.058  0.058
   24  0.001  0.005  0.012  0.017
   25  0.001  0.006  0.019  0.025
   26  0.000  0.002  0.011  0.013
   27  0.000  0.001  0.032  0.033
   28  0.000  0.001  0.007  0.008
   29  0.004  0.001  0.010  0.015
   30  0.015  0.001  0.009  0.024
   31  0.003  0.001  0.010  0.013
   32  0.003  0.001  0.011  0.015
   33  0.015  0.001  0.009  0.025
   34  0.005  0.001  0.011  0.017
   35  0.000  0.002  0.010  0.012
   36  0.000  0.000  0.018  0.018