PROCAR new format
# of k-points:   10         # of bands:  252         # of ions:   37

 k-point     1 :    0.00000000 0.00000000 0.00000000     weight = 0.01562500

band     1 # energy   -8.81894402 # occ.  2.00000000
 
ion      s      p      d    tot
    1  0.006  0.001  0.000  0.007
    2  0.006  0.001  0.000  0.007
    3  0.006  0.001  0.000  0.007
    4  0.006  0.001  0.000  0.007
    5  0.006  0.001  0.000  0.007
    6  0.006  0.001  0.000  0.007
    7  0.006  0.001  0.000  0.007
    8  0.006  0.001  0.000  0.007
    9  0.006  0.001  0.000  0.007
   10  0.024  0.000  0.000  0.024
   11  0.024  0.000  0.000  0.024
   12  0.024  0.000  0.000  0.024
   13  0.024  0.000  0.000  0.024
   14  0.024  0.000  0.000  0.024
   15  0.024  0.000  0.000  0.024
   16  0.024  0.000  0.000  0.024
   17  0.024  0.000  0.000  0.024
   18  0.024  0.000  0.000  0.024
   19  0.024  0.000  0.000  0.024
   20  0.026  0.000  0.000  0.026
   21  0.026  0.000  0.000  0.026
   22  0.024  0.000  0.000  0.024
   23  0.026  0.000  0.000  0.026
   24  0.024  0.000  0.000  0.024
   25  0.024  0.000  0.000  0.024
   26  0.024  0.000  0.000  0.024
   27  0.024  0.000  0.000  0.024
   28  0.007  0.001  0.000  0.008
   29  0.007  0.001  0.000  0.008
   30  0.007  0.001  0.000  0.008
   31  0.007  0.001  0.000  0.008
   32  0.007  0.001  0.000  0.008
   33  0.007  0.001  0.000  0.008
   34  0.007  0.001  0.000  0.008
   35  0.007  0.001  0.000  0.007
   36  0.017  0.001  0.000  0.018
   37  0.001  0.000  0.000  0.001
tot    0.569  0.016  0.001  0.586
 
band     2 # energy   -7.55970400 # occ.  2.00000000
 
ion      s      p      d    tot
    1  0.018  0.001  0.000  0.019
    2  0.018  0.001  0.000  0.019
    3  0.018  0.001  0.000  0.019
    4  0.018  0.001  0.000  0.019
    5  0.017  0.001  0.000  0.019
    6  0.018  0.001  0.000  0.019
    7  0.018  0.001  0.000  0.019
    8  0.018  0.001  0.000  0.019
    9  0.018  0.001  0.000  0.019
   10  0.011  0.002  0.001  0.013
   11  0.010  0.002  0.001  0.013
   12  0.011  0.002  0.001  0.013
   13  0.010  0.002  0.001  0.013
   14  0.010  0.002  0.001  0.013
   15  0.011  0.002  0.001  0.013
   16  0.011  0.002  0.001  0.013
   17  0.011  0.002  0.001  0.013
   18  0.011  0.002  0.001  0.013
   19  0.008  0.002  0.000  0.011
   20  0.010  0.003  0.000  0.013
   21  0.010  0.003  0.000  0.013
   22  0.008  0.002  0.000  0.011
   23  0.010  0.003  0.000  0.013
   24  0.008  0.002  0.000  0.011
   25  0.008  0.002  0.000  0.011
   26  0.008  0.002  0.000  0.011
   27  0.008  0.002  0.000  0.011
   28  0.017  0.001  0.001  0.018
   29  0.018  0.001  0.001  0.020
   30  0.018  0.001  0.001  0.020
   31  0.018  0.001  0.001  0.020
   32  0.018  0.001  0.001  0.020
   33  0.018  0.001  0.001  0.020
   34  0.018  0.001  0.001  0.020
   35  0.016  0.001  0.001  0.017
   36  0.042  0.001  0.000  0.043
   37  0.002  0.000  0.000  0.002
tot    0.521  0.053  0.018  0.592
 
band     3 # energy   -5.94409444 # occ.  2.00000000
 
ion      s      p      d    tot
    1  0.012  0.000  0.005  0.017
    2  0.015  0.000  0.005  0.020
    3  0.015  0.000  0.005  0.020
    4  0.015  0.000  0.005  0.020
    5  0.026  0.000  0.004  0.030
    6  0.015  0.000  0.005  0.020
    7  0.015  0.000  0.005  0.020
    8  0.015  0.000  0.005  0.020
    9  0.009  0.000  0.006  0.015
   10  0.004  0.004  0.002  0.010
   11  0.000  0.003  0.003  0.006
   12  0.004  0.004  0.002  0.010
   13  0.000  0.003  0.003  0.006
   14  0.000  0.003  0.003  0.006
   15  0.009  0.004  0.002  0.014
   16  0.004  0.004  0.002  0.010
   17  0.009  0.004  0.002  0.014
   18  0.009  0.004  0.002  0.014
   19  0.013  0.003  0.003  0.019
   20  0.000  0.004  0.006  0.010
   21  0.000  0.004  0.006  0.010
   22  0.010  0.004  0.003  0.016
   23  0.000  0.004  0.006  0.010
   24  0.010  0.004  0.003  0.016
   25  0.013  0.003  0.003  0.019
   26  0.013  0.003  0.003  0.019
   27  0.010  0.004  0.003  0.016
   28  0.005  0.001  0.006  0.012
   29  0.013  0.001  0.007  0.021
   30  0.013  0.001  0.007  0.021
   31  0.013  0.001  0.007  0.021
   32  0.013  0.001  0.007  0.021
   33  0.013  0.001  0.007  0.021
   34  0.013  0.001  0.007  0.021
   35  0.004  0.001  0.005  0.010
   36  0.076  0.000  0.001  0.077
   37  0.008  0.000  0.000  0.008
tot    0.414  0.073  0.158  0.645
 
band     4 # energy   -5.88043063 # occ.  2.00000000
 
ion      s      p      d    tot
    1  0.005  0.000  0.001  0.006
    2  0.002  0.001  0.003  0.007
    3  0.002  0.001  0.003  0.007
    4  0.002  0.001  0.003  0.007
    5  0.003  0.002  0.003  0.008
    6  0.002  0.001  0.003  0.007
    7  0.002  0.001  0.003  0.007
    8  0.002  0.001  0.003  0.007
    9  0.018  0.001  0.000  0.020
   10  0.000  0.003  0.007  0.010
   11  0.025  0.008  0.001  0.034
   12  0.000  0.003  0.007  0.010
   13  0.025  0.008  0.001  0.034
   14  0.025  0.008  0.001  0.034
   15  0.010  0.001  0.008  0.019
   16  0.000  0.003  0.007  0.010
   17  0.010  0.001  0.008  0.019
   18  0.010  0.001  0.008  0.019
   19  0.003  0.000  0.011  0.015
   20  0.037  0.008  0.005  0.050
   21  0.037  0.008  0.005  0.050
   22  0.005  0.006  0.004  0.015
   23  0.037  0.008  0.005  0.050
   24  0.005  0.006  0.004  0.015
   25  0.003  0.000  0.011  0.015
   26  0.003  0.000  0.011  0.015
   27  0.005  0.006  0.004  0.015
   28  0.013  0.000  0.000  0.014
   29  0.004  0.002  0.004  0.010
   30  0.004  0.002  0.004  0.010
   31  0.004  0.002  0.004  0.010
   32  0.004  0.002  0.004  0.010
   33  0.004  0.002  0.004  0.010
   34  0.004  0.002  0.004  0.010
   35  0.021  0.001  0.001  0.023
   36  0.021  0.003  0.029  0.053
   37  0.006  0.000  0.000  0.007
tot    0.365  0.104  0.186  0.656
 
band     5 # energy   -5.83292985 # occ.  2.00000000
 
ion      s      p      d    tot
    1  0.000  0.003  0.005  0.008
    2  0.009  0.002  0.002  0.013
    3  0.003  0.001  0.002  0.006
    4  0.009  0.002  0.002  0.014
    5  0.000  0.002  0.003  0.006
    6  0.004  0.002  0.002  0.008
    7  0.001  0.001  0.002  0.004
    8  0.002  0.001  0.002  0.005
    9  0.000  0.000  0.003  0.003
   10  0.057  0.005  0.004  0.066
   11  0.003  0.011  0.003  0.018
   12  0.023  0.003  0.011  0.036
   13  0.010  0.008  0.004  0.022
   14  0.025  0.001  0.007  0.032
   15  0.001  0.005  0.008  0.014
   16  0.008  0.002  0.013  0.023
   17  0.003  0.004  0.007  0.013
   18  0.006  0.003  0.003  0.012
   19  0.004  0.011  0.003  0.018
   20  0.064  0.004  0.006  0.074
   21  0.025  0.002  0.013  0.041
   22  0.002  0.004  0.007  0.013
   23  0.009  0.002  0.016  0.027
   24  0.005  0.003  0.003  0.011
   25  0.028  0.001  0.007  0.035
   26  0.011  0.008  0.004  0.023
   27  0.001  0.005  0.008  0.014
   28  0.000  0.003  0.004  0.006
   29  0.010  0.003  0.003  0.016
   30  0.006  0.002  0.002  0.010
   31  0.009  0.003  0.003  0.015
   32  0.002  0.001  0.003  0.007
   33  0.003  0.001  0.002  0.006
   34  0.000  0.001  0.003  0.004
   35  0.000  0.000  0.003  0.003
   36  0.000  0.005  0.017  0.022
   37  0.000  0.000  0.000  0.000
tot    0.344  0.114  0.190  0.648
 
band     6 # energy   -5.83277327 # occ.  2.00000000
 
ion      s      p      d    tot
    1  0.000  0.003  0.005  0.008
    2  0.000  0.001  0.002  0.003
    3  0.006  0.002  0.002  0.011
    4  0.000  0.001  0.002  0.003
    5  0.000  0.002  0.003  0.006
    6  0.005  0.002  0.002  0.009
    7  0.009  0.002  0.002  0.013
    8  0.008  0.002  0.002  0.012
    9  0.000  0.000  0.003  0.003
   10  0.001  0.002  0.015  0.018
   11  0.022  0.002  0.006  0.030
   12  0.036  0.003  0.008  0.047
   13  0.016  0.005  0.005  0.026
   14  0.001  0.013  0.003  0.016
   15  0.006  0.003  0.004  0.012
   16  0.051  0.004  0.005  0.060
   17  0.004  0.004  0.005  0.013
   18  0.000  0.005  0.009  0.014
   19  0.025  0.002  0.006  0.033
   20  0.001  0.002  0.017  0.020
   21  0.040  0.003  0.010  0.053
   22  0.003  0.004  0.005  0.012
   23  0.057  0.004  0.007  0.068
   24  0.000  0.006  0.009  0.014
   25  0.001  0.013  0.003  0.016
   26  0.017  0.005  0.005  0.028
   27  0.005  0.003  0.004  0.012
   28  0.000  0.003  0.004  0.006
   29  0.000  0.001  0.003  0.003
   30  0.004  0.002  0.003  0.009
   31  0.001  0.001  0.002  0.004
   32  0.008  0.002  0.003  0.013
   33  0.007  0.002  0.003  0.013
   34  0.010  0.003  0.003  0.015
   35  0.000  0.000  0.003  0.003
   36  0.000  0.005  0.017  0.022
   37  0.000  0.000  0.000  0.000
tot    0.344  0.114  0.190  0.648
 
band     7 # energy   -5.78918793 # occ.  2.00000000
 
ion      s      p      d    tot
    1  0.000  0.001  0.002  0.003
    2  0.010  0.002  0.002  0.015
    3  0.002  0.001  0.002  0.006
    4  0.010  0.002  0.002  0.015
    5  0.000  0.001  0.005  0.006
    6  0.003  0.001  0.002  0.007
    7  0.002  0.001  0.002  0.005
    8  0.003  0.001  0.002  0.006
    9  0.000  0.003  0.005  0.009
   10  0.000  0.011  0.003  0.014
   11  0.028  0.004  0.005  0.037
   12  0.001  0.004  0.005  0.010
   13  0.026  0.003  0.006  0.036
   14  0.000  0.000  0.016  0.016
   15  0.042  0.004  0.006  0.051
   16  0.001  0.003  0.005  0.009
   17  0.039  0.004  0.006  0.049
   18  0.000  0.008  0.009  0.017
   19  0.026  0.004  0.005  0.035
   20  0.000  0.013  0.002  0.015
   21  0.002  0.004  0.005  0.011
   22  0.041  0.004  0.006  0.051
   23  0.002  0.003  0.005  0.011
   24  0.000  0.008  0.009  0.017
   25  0.000  0.000  0.016  0.016
   26  0.025  0.003  0.006  0.034
   27  0.044  0.004  0.006  0.054
   28  0.000  0.001  0.005  0.006
   29  0.011  0.003  0.003  0.016
   30  0.003  0.002  0.003  0.008
   31  0.011  0.003  0.003  0.016
   32  0.003  0.001  0.002  0.006
   33  0.003  0.002  0.003  0.007
   34  0.002  0.001  0.002  0.006
   35  0.000  0.004  0.005  0.009
   36  0.000  0.001  0.008  0.009
   37  0.000  0.000  0.000  0.000
tot    0.343  0.116  0.179  0.638
 
band     8 # energy   -5.78905076 # occ.  2.00000000
 
ion      s      p      d    tot
    1  0.000  0.001  0.002  0.003
    2  0.000  0.001  0.002  0.003
    3  0.008  0.002  0.003  0.012
    4  0.000  0.001  0.002  0.003
    5  0.000  0.001  0.005  0.006
    6  0.007  0.002  0.002  0.011
    7  0.008  0.002  0.003  0.013
    8  0.007  0.002  0.002  0.012
    9  0.000  0.003  0.005  0.009
   10  0.002  0.001  0.005  0.008
   11  0.008  0.001  0.013  0.022
   12  0.000  0.008  0.004  0.013
   13  0.010  0.001  0.012  0.024
   14  0.036  0.005  0.002  0.043
   15  0.012  0.007  0.008  0.027
   16  0.000  0.009  0.004  0.013
   17  0.015  0.007  0.008  0.029
   18  0.054  0.002  0.006  0.062
   19  0.008  0.001  0.013  0.022
   20  0.003  0.001  0.006  0.010
   21  0.001  0.010  0.003  0.013
   22  0.016  0.006  0.008  0.030
   23  0.001  0.010  0.003  0.013
   24  0.056  0.003  0.005  0.064
   25  0.034  0.005  0.002  0.040
   26  0.010  0.002  0.012  0.023
   27  0.013  0.007  0.008  0.028
   28  0.000  0.001  0.005  0.006
   29  0.000  0.001  0.003  0.004
   30  0.008  0.002  0.002  0.012
   31  0.000  0.001  0.003  0.004
   32  0.008  0.002  0.003  0.014
   33  0.008  0.002  0.002  0.013
   34  0.009  0.003  0.003  0.014
   35  0.000  0.004  0.005  0.009
   36  0.000  0.001  0.008  0.009
   37  0.000  0.000  0.000  0.000
tot    0.343  0.116  0.179  0.638
 
band     9 # energy   -5.78253347 # occ.  2.00000000
 
ion      s      p      d    tot
    1  0.023  0.003  0.001  0.027
    2  0.000  0.002  0.004  0.006
    3  0.000  0.002  0.004  0.006
    4  0.000  0.002  0.004  0.006
    5  0.001  0.000  0.001  0.002
    6  0.000  0.002  0.004  0.006
    7  0.000  0.002  0.004  0.006
    8  0.000  0.002  0.004  0.006
    9  0.009  0.002  0.000  0.011
   10  0.030  0.006  0.006  0.042
   11  0.006  0.000  0.012  0.018
   12  0.030  0.006  0.006  0.042
   13  0.006  0.000  0.012  0.018
   14  0.006  0.000  0.012  0.018
   15  0.012  0.008  0.003  0.023
   16  0.030  0.006  0.006  0.042
   17  0.012  0.008  0.003  0.023
   18  0.011  0.008  0.003  0.023
   19  0.022  0.009  0.002  0.033
   20  0.000  0.003  0.010  0.012
   21  0.000  0.003  0.010  0.013
   22  0.023  0.002  0.009  0.035
   23  0.000  0.003  0.010  0.013
   24  0.024  0.002  0.009  0.035
   25  0.023  0.009  0.002  0.034
   26  0.022  0.009  0.002  0.033
   27  0.023  0.002  0.009  0.035
   28  0.019  0.003  0.000  0.022
   29  0.000  0.002  0.004  0.005
   30  0.000  0.002  0.004  0.006
   31  0.000  0.002  0.004  0.005
   32  0.000  0.002  0.004  0.006
   33  0.000  0.002  0.004  0.006
   34  0.000  0.002  0.004  0.006
   35  0.011  0.002  0.001  0.015
   36  0.000  0.000  0.000  0.000
   37  0.000  0.000  0.000  0.000
tot    0.345  0.115  0.178  0.638
 
band    10 # energy   -5.18070062 # occ.  2.00000000
 
ion      s      p      d    tot
    1  0.008  0.001  0.000  0.009
    2  0.000  0.003  0.009  0.012
    3  0.000  0.003  0.009  0.012
    4  0.000  0.003  0.009  0.012
    5  0.043  0.005  0.001  0.048
    6  0.000  0.003  0.009  0.012
    7  0.000  0.003  0.009  0.012
    8  0.000  0.003  0.009  0.012
    9  0.011  0.002  0.001  0.014
   10  0.001  0.002  0.013  0.016
   11  0.015  0.006  0.007  0.028
   12  0.001  0.002  0.013  0.016
   13  0.015  0.006  0.007  0.028
   14  0.015  0.006  0.007  0.028
   15  0.010  0.001  0.012  0.024
   16  0.001  0.002  0.013  0.016
   17  0.010  0.001  0.012  0.024
   18  0.010  0.001  0.012  0.024
   19  0.003  0.002  0.003  0.007
   20  0.003  0.005  0.028  0.036
   21  0.003  0.005  0.028  0.036
   22  0.000  0.001  0.013  0.014
   23  0.003  0.005  0.028  0.036
   24  0.000  0.001  0.013  0.014
   25  0.003  0.002  0.003  0.007
   26  0.003  0.002  0.003  0.007
   27  0.000  0.001  0.013  0.014
   28  0.013  0.001  0.000  0.014
   29  0.000  0.002  0.006  0.008
   30  0.000  0.002  0.006  0.008
   31  0.000  0.002  0.006  0.008
   32  0.000  0.002  0.006  0.008
   33  0.000  0.002  0.006  0.008
   34  0.000  0.002  0.006  0.008
   35  0.010  0.001  0.000  0.011
   36  0.072  0.000  0.032  0.105
   37  0.024  0.001  0.000  0.024
tot    0.282  0.089  0.353  0.724
 
band    11 # energy   -5.07865023 # occ.  2.00000000
 
ion      s      p      d    tot
    1  0.000  0.003  0.010  0.013
    2  0.016  0.003  0.005  0.024
    3  0.002  0.002  0.005  0.008
    4  0.019  0.004  0.005  0.027
    5  0.000  0.000  0.010  0.010
    6  0.013  0.003  0.005  0.021
    7  0.000  0.001  0.005  0.006
    8  0.008  0.002  0.005  0.015
    9  0.000  0.005  0.008  0.013
   10  0.000  0.004  0.017  0.022
   11  0.005  0.002  0.009  0.015
   12  0.004  0.002  0.010  0.017
   13  0.003  0.002  0.010  0.015
   14  0.000  0.002  0.014  0.016
   15  0.021  0.004  0.007  0.032
   16  0.006  0.001  0.008  0.015
   17  0.015  0.003  0.011  0.029
   18  0.000  0.001  0.021  0.022
   19  0.011  0.005  0.009  0.024
   20  0.000  0.003  0.019  0.022
   21  0.000  0.002  0.014  0.015
   22  0.008  0.003  0.012  0.022
   23  0.000  0.001  0.012  0.013
   24  0.000  0.002  0.026  0.028
   25  0.000  0.000  0.014  0.014
   26  0.008  0.003  0.010  0.021
   27  0.011  0.003  0.006  0.020
   28  0.000  0.004  0.008  0.011
   29  0.020  0.003  0.008  0.031
   30  0.002  0.002  0.009  0.013
   31  0.024  0.003  0.008  0.035
   32  0.019  0.002  0.008  0.029
   33  0.000  0.002  0.009  0.011
   34  0.013  0.002  0.008  0.023
   35  0.000  0.006  0.009  0.014
   36  0.000  0.000  0.038  0.039
   37  0.000  0.000  0.000  0.000
tot    0.227  0.091  0.389  0.707
 
band    12 # energy   -5.07861186 # occ.  2.00000000
 
ion      s      p      d    tot
    1  0.000  0.003  0.010  0.013
    2  0.003  0.002  0.005  0.010
    3  0.017  0.003  0.005  0.026
    4  0.001  0.002  0.005  0.007
    5  0.000  0.000  0.010  0.010
    6  0.006  0.002  0.005  0.013
    7  0.019  0.004  0.005  0.028
    8  0.011  0.003  0.005  0.019
    9  0.000  0.005  0.008  0.013
   10  0.007  0.001  0.006  0.014
   11  0.001  0.002  0.013  0.016
   12  0.002  0.003  0.013  0.019
   13  0.002  0.002  0.012  0.016
   14  0.005  0.002  0.008  0.015
   15  0.004  0.001  0.019  0.023
   16  0.001  0.004  0.016  0.021
   17  0.009  0.002  0.015  0.026
   18  0.024  0.005  0.005  0.033
   19  0.002  0.001  0.013  0.016
   20  0.000  0.001  0.011  0.012
   21  0.000  0.002  0.016  0.018
   22  0.005  0.002  0.018  0.025
   23  0.000  0.003  0.018  0.021
   24  0.012  0.004  0.003  0.019
   25  0.012  0.005  0.008  0.025
   26  0.005  0.002  0.012  0.018
   27  0.002  0.002  0.023  0.027
   28  0.000  0.004  0.008  0.011
   29  0.006  0.002  0.009  0.016
   30  0.024  0.003  0.008  0.034
   31  0.002  0.002  0.009  0.012
   32  0.007  0.003  0.009  0.018
   33  0.026  0.003  0.008  0.036
   34  0.013  0.003  0.008  0.024
   35  0.000  0.006  0.009  0.014
   36  0.000  0.000  0.038  0.039
   37  0.000  0.000  0.000  0.000
tot    0.227  0.091  0.389  0.707
 
band    13 # energy   -5.07353342 # occ.  2.00000000
 
ion      s      p      d    tot
    1  0.002  0.001  0.010  0.013
    2  0.005  0.001  0.009  0.015
    3  0.005  0.001  0.009  0.015
    4  0.005  0.001  0.009  0.015
    5  0.005  0.000  0.009  0.015
    6  0.005  0.001  0.009  0.015
    7  0.005  0.001  0.009  0.015
    8  0.005  0.001  0.009  0.015
    9  0.011  0.000  0.009  0.020
   10  0.010  0.000  0.024  0.035
   11  0.006  0.000  0.023  0.028
   12  0.010  0.000  0.024  0.035
   13  0.006  0.000  0.023  0.028
   14  0.006  0.000  0.023  0.028
   15  0.005  0.000  0.023  0.028
   16  0.010  0.000  0.024  0.035
   17  0.005  0.000  0.023  0.028
   18  0.005  0.000  0.023  0.028
   19  0.008  0.000  0.020  0.028
   20  0.006  0.000  0.029  0.035
   21  0.006  0.000  0.028  0.035
   22  0.004  0.000  0.018  0.021
   23  0.006  0.000  0.028  0.035
   24  0.004  0.000  0.018  0.021
   25  0.008  0.000  0.020  0.028
   26  0.008  0.000  0.020  0.028
   27  0.004  0.000  0.018  0.021
   28  0.000  0.001  0.007  0.008
   29  0.004  0.000  0.008  0.012
   30  0.004  0.000  0.008  0.012
   31  0.004  0.000  0.008  0.012
   32  0.004  0.000  0.008  0.012
   33  0.004  0.000  0.008  0.012
   34  0.004  0.000  0.008  0.012
   35  0.005  0.000  0.006  0.011
   36  0.006  0.001  0.021  0.029
   37  0.000  0.000  0.000  0.000
tot    0.200  0.011  0.574  0.786
 
band    14 # energy   -5.02908159 # occ.  2.00000000
 
ion      s      p      d    tot
    1  0.000  0.003  0.009  0.013
    2  0.018  0.003  0.006  0.027
    3  0.005  0.002  0.005  0.012
    4  0.022  0.004  0.006  0.032
    5  0.000  0.006  0.010  0.016
    6  0.015  0.003  0.006  0.025
    7  0.000  0.002  0.005  0.007
    8  0.006  0.002  0.006  0.015
    9  0.000  0.000  0.013  0.014
   10  0.017  0.005  0.009  0.031
   11  0.002  0.002  0.026  0.031
   12  0.008  0.002  0.015  0.025
   13  0.008  0.003  0.018  0.029
   14  0.016  0.003  0.006  0.026
   15  0.000  0.003  0.017  0.020
   16  0.002  0.001  0.019  0.021
   17  0.000  0.002  0.014  0.016
   18  0.000  0.000  0.009  0.010
   19  0.000  0.003  0.020  0.023
   20  0.021  0.005  0.005  0.031
   21  0.010  0.003  0.019  0.031
   22  0.003  0.002  0.011  0.016
   23  0.002  0.001  0.028  0.031
   24  0.006  0.003  0.009  0.018
   25  0.003  0.001  0.007  0.011
   26  0.002  0.002  0.015  0.018
   27  0.001  0.001  0.013  0.015
   28  0.000  0.002  0.010  0.012
   29  0.013  0.003  0.006  0.022
   30  0.003  0.002  0.005  0.009
   31  0.017  0.004  0.006  0.027
   32  0.013  0.003  0.006  0.023
   33  0.000  0.001  0.005  0.006
   34  0.006  0.002  0.006  0.014
   35  0.000  0.001  0.009  0.009
   36  0.000  0.009  0.017  0.026
   37  0.000  0.000  0.000  0.000
tot    0.220  0.096  0.397  0.712
 
band    15 # energy   -5.02901890 # occ.  2.00000000
 
ion      s      p      d    tot
    1  0.000  0.003  0.009  0.013
    2  0.004  0.002  0.006  0.012
    3  0.018  0.004  0.006  0.027
    4  0.000  0.002  0.005  0.007
    5  0.000  0.006  0.010  0.016
    6  0.007  0.002  0.005  0.015
    7  0.022  0.004  0.006  0.032
    8  0.016  0.003  0.006  0.025
    9  0.000  0.000  0.013  0.014
   10  0.001  0.000  0.019  0.020
   11  0.015  0.003  0.007  0.026
   12  0.010  0.003  0.014  0.027
   13  0.010  0.003  0.015  0.028
   14  0.001  0.002  0.028  0.031
   15  0.000  0.001  0.010  0.011
   16  0.016  0.005  0.010  0.031
   17  0.000  0.002  0.013  0.015
   18  0.000  0.003  0.017  0.021
   19  0.003  0.001  0.008  0.012
   20  0.001  0.001  0.030  0.031
   21  0.012  0.003  0.016  0.031
   22  0.004  0.002  0.011  0.017
   23  0.020  0.005  0.007  0.031
   24  0.000  0.001  0.013  0.014
   25  0.000  0.003  0.021  0.024
   26  0.002  0.002  0.013  0.017
   27  0.006  0.002  0.010  0.018
   28  0.000  0.002  0.010  0.012
   29  0.004  0.002  0.005  0.012
   30  0.015  0.003  0.006  0.025
   31  0.000  0.001  0.005  0.006
   32  0.004  0.002  0.005  0.011
   33  0.017  0.004  0.006  0.028
   34  0.011  0.003  0.005  0.019
   35  0.000  0.001  0.009  0.009
   36  0.000  0.009  0.017  0.026
   37  0.000  0.000  0.000  0.000
tot    0.220  0.096  0.397  0.712
 
band    16 # energy   -5.02398901 # occ.  2.00000000
 
ion      s      p      d    tot
    1  0.034  0.003  0.000  0.037
    2  0.000  0.003  0.010  0.013
    3  0.000  0.003  0.010  0.013
    4  0.000  0.003  0.010  0.013
    5  0.000  0.000  0.001  0.001
    6  0.000  0.003  0.010  0.013
    7  0.000  0.003  0.010  0.013
    8  0.000  0.003  0.010  0.013
    9  0.029  0.004  0.001  0.034
   10  0.007  0.003  0.011  0.021
   11  0.001  0.000  0.016  0.017
   12  0.007  0.003  0.011  0.021
   13  0.001  0.000  0.016  0.017
   14  0.001  0.000  0.016  0.017
   15  0.008  0.004  0.018  0.029
   16  0.007  0.003  0.011  0.021
   17  0.008  0.004  0.018  0.029
   18  0.008  0.004  0.018  0.029
   19  0.004  0.003  0.017  0.025
   20  0.000  0.000  0.015  0.015
   21  0.000  0.000  0.015  0.015
   22  0.013  0.004  0.011  0.028
   23  0.000  0.000  0.015  0.015
   24  0.013  0.004  0.011  0.028
   25  0.004  0.003  0.017  0.025
   26  0.004  0.003  0.017  0.025
   27  0.013  0.004  0.011  0.028
   28  0.036  0.003  0.000  0.039
   29  0.000  0.003  0.010  0.013
   30  0.000  0.003  0.010  0.013
   31  0.000  0.003  0.010  0.013
   32  0.000  0.003  0.010  0.013
   33  0.000  0.003  0.010  0.013
   34  0.000  0.003  0.010  0.013
   35  0.027  0.004  0.002  0.033
   36  0.000  0.000  0.000  0.000
   37  0.000  0.000  0.000  0.000
tot    0.228  0.091  0.387  0.706
 
band    17 # energy   -4.44880114 # occ.  2.00000000
 
ion      s      p      d    tot
    1  0.000  0.001  0.028  0.029
    2  0.015  0.001  0.008  0.024
    3  0.008  0.001  0.008  0.017
    4  0.014  0.001  0.008  0.023
    5  0.000  0.001  0.012  0.013
    6  0.002  0.001  0.008  0.010
    7  0.006  0.001  0.007  0.015
    8  0.001  0.001  0.008  0.009
    9  0.000  0.003  0.005  0.008
   10  0.000  0.000  0.059  0.059
   11  0.000  0.004  0.016  0.020
   12  0.000  0.000  0.022  0.022
   13  0.000  0.003  0.015  0.018
   14  0.000  0.000  0.005  0.005
   15  0.000  0.005  0.014  0.019
   16  0.000  0.000  0.017  0.017
   17  0.000  0.004  0.016  0.021
   18  0.000  0.000  0.029  0.029
   19  0.004  0.003  0.012  0.019
   20  0.000  0.000  0.064  0.064
   21  0.000  0.000  0.029  0.029
   22  0.002  0.002  0.016  0.020
   23  0.000  0.000  0.024  0.024
   24  0.000  0.000  0.016  0.016
   25  0.000  0.000  0.016  0.016
   26  0.003  0.003  0.012  0.018
   27  0.002  0.002  0.016  0.020
   28  0.000  0.001  0.005  0.006
   29  0.008  0.000  0.018  0.027
   30  0.000  0.001  0.016  0.017
   31  0.010  0.000  0.018  0.028
   32  0.011  0.000  0.017  0.028
   33  0.000  0.001  0.016  0.017
   34  0.010  0.000  0.016  0.026
   35  0.000  0.001  0.006  0.007
   36  0.000  0.000  0.068  0.068
   37  0.000  0.000  0.000  0.000
tot    0.097  0.044  0.670  0.811
 
band    18 # energy   -4.44871696 # occ.  2.00000000
 
ion      s      p      d    tot
    1  0.000  0.001  0.028  0.029
    2  0.000  0.001  0.008  0.009
    3  0.007  0.001  0.008  0.016
    4  0.001  0.001  0.007  0.010
    5  0.000  0.001  0.012  0.013
    6  0.013  0.001  0.008  0.022
    7  0.009  0.001  0.008  0.018
    8  0.014  0.001  0.008  0.023
    9  0.000  0.003  0.005  0.008
   10  0.000  0.000  0.006  0.006
   11  0.000  0.001  0.008  0.009
   12  0.000  0.000  0.043  0.043
   13  0.000  0.001  0.009  0.011
   14  0.000  0.005  0.019  0.024
   15  0.000  0.001  0.025  0.027
   16  0.000  0.000  0.048  0.048
   17  0.000  0.002  0.024  0.025
   18  0.000  0.006  0.011  0.017
   19  0.001  0.001  0.015  0.017
   20  0.000  0.000  0.014  0.014
   21  0.000  0.000  0.049  0.049
   22  0.001  0.001  0.016  0.018
   23  0.000  0.000  0.054  0.054
   24  0.003  0.003  0.016  0.022
   25  0.005  0.004  0.010  0.019
   26  0.001  0.001  0.014  0.017
   27  0.001  0.001  0.016  0.017
   28  0.000  0.001  0.005  0.006
   29  0.004  0.001  0.016  0.021
   30  0.013  0.000  0.018  0.031
   31  0.003  0.001  0.016  0.020
   32  0.002  0.001  0.017  0.020
   33  0.013  0.000  0.018  0.031
   34  0.003  0.001  0.017  0.022
   35  0.000  0.001  0.006  0.007
   36  0.000  0.000  0.068  0.068
   37  0.000  0.000  0.000  0.000
tot    0.097  0.044  0.670  0.811
 
band    19 # energy   -4.43806916 # occ.  2.00000000
 
ion      s      p      d    tot
    1  0.029  0.001  0.000  0.030
    2  0.000  0.002  0.015  0.017
    3  0.000  0.002  0.015  0.017
    4  0.000  0.002  0.015  0.017
    5  0.020  0.001  0.000  0.021
    6  0.000  0.002  0.015  0.017
    7  0.000  0.002  0.015  0.017
    8  0.000  0.002  0.015  0.017
    9  0.001  0.000  0.000  0.001
   10  0.000  0.003  0.042  0.045
   11  0.000  0.004  0.027  0.031
   12  0.000  0.003  0.042  0.045
   13  0.000  0.004  0.027  0.031
   14  0.000  0.004  0.027  0.031
   15  0.000  0.000  0.003  0.003
   16  0.000  0.003  0.042  0.045
   17  0.000  0.000  0.003  0.003
   18  0.000  0.000  0.003  0.003
   19  0.002  0.002  0.025  0.029
   20  0.003  0.002  0.043  0.048
   21  0.003  0.002  0.043  0.048
   22  0.000  0.000  0.006  0.006
   23  0.003  0.002  0.043  0.048
   24  0.000  0.000  0.006  0.006
   25  0.002  0.002  0.025  0.029
   26  0.002  0.002  0.025  0.029
   27  0.000  0.000  0.006  0.006
   28  0.006  0.000  0.004  0.010
   29  0.000  0.001  0.007  0.008
   30  0.000  0.001  0.007  0.008
   31  0.000  0.001  0.007  0.008
   32  0.000  0.001  0.007  0.008
   33  0.000  0.001  0.007  0.008
   34  0.000  0.001  0.007  0.008
   35  0.000  0.000  0.000  0.000
   36  0.028  0.002  0.038  0.069
   37  0.028  0.001  0.000  0.029
tot    0.130  0.051  0.620  0.801
 
band    20 # energy   -4.33330655 # occ.  2.00000000
 
ion      s      p      d    tot
    1  0.000  0.000  0.001  0.001
    2  0.000  0.001  0.016  0.017
    3  0.000  0.001  0.016  0.017
    4  0.000  0.001  0.016  0.017
    5  0.018  0.001  0.001  0.020
    6  0.000  0.001  0.016  0.017
    7  0.000  0.001  0.016  0.017
    8  0.000  0.001  0.016  0.017
    9  0.020  0.001  0.002  0.023
   10  0.000  0.001  0.005  0.006
   11  0.000  0.001  0.024  0.025
   12  0.000  0.001  0.005  0.006
   13  0.000  0.001  0.024  0.025
   14  0.000  0.001  0.024  0.025
   15  0.001  0.003  0.031  0.035
   16  0.000  0.001  0.005  0.006
   17  0.001  0.003  0.031  0.035
   18  0.001  0.003  0.031  0.035
   19  0.000  0.001  0.020  0.021
   20  0.000  0.001  0.014  0.015
   21  0.000  0.001  0.014  0.015
   22  0.001  0.004  0.042  0.047
   23  0.000  0.001  0.014  0.015
   24  0.001  0.004  0.042  0.047
   25  0.000  0.001  0.020  0.021
   26  0.000  0.001  0.020  0.021
   27  0.001  0.004  0.042  0.047
   28  0.012  0.001  0.000  0.013
   29  0.000  0.002  0.022  0.023
   30  0.000  0.002  0.022  0.023
   31  0.000  0.002  0.022  0.023
   32  0.000  0.002  0.022  0.023
   33  0.000  0.002  0.022  0.023
   34  0.000  0.002  0.022  0.023
   35  0.038  0.001  0.003  0.042
   36  0.003  0.000  0.010  0.013
   37  0.001  0.000  0.000  0.001
tot    0.098  0.053  0.652  0.802
 
band    21 # energy   -4.31945944 # occ.  2.00000000
 
ion      s      p      d    tot
    1  0.000  0.002  0.001  0.003
    2  0.015  0.001  0.011  0.026
    3  0.010  0.001  0.010  0.021
    4  0.012  0.001  0.011  0.024
    5  0.000  0.002  0.023  0.025
    6  0.002  0.001  0.010  0.012
    7  0.007  0.001  0.009  0.017
    8  0.000  0.001  0.010  0.011
    9  0.000  0.000  0.032  0.032
   10  0.001  0.007  0.021  0.029
   11  0.000  0.000  0.045  0.045
   12  0.001  0.003  0.014  0.017
   13  0.000  0.001  0.035  0.036
   14  0.001  0.002  0.006  0.008
   15  0.000  0.000  0.033  0.033
   16  0.000  0.001  0.012  0.013
   17  0.000  0.001  0.028  0.029
   18  0.000  0.002  0.013  0.014
   19  0.000  0.000  0.054  0.054
   20  0.001  0.007  0.021  0.029
   21  0.000  0.003  0.015  0.019
   22  0.000  0.001  0.022  0.023
   23  0.000  0.001  0.013  0.015
   24  0.000  0.002  0.015  0.017
   25  0.001  0.001  0.004  0.006
   26  0.000  0.001  0.041  0.042
   27  0.000  0.000  0.025  0.025
   28  0.000  0.002  0.029  0.030
   29  0.011  0.001  0.011  0.023
   30  0.001  0.001  0.009  0.011
   31  0.014  0.001  0.011  0.026
   32  0.012  0.001  0.010  0.023
   33  0.000  0.001  0.009  0.010
   34  0.008  0.001  0.010  0.019
   35  0.000  0.000  0.027  0.027
   36  0.000  0.004  0.000  0.004