PROCAR new format
# of k-points:   10         # of bands:  240         # of ions:   38

 k-point     1 :    0.00000000 0.00000000 0.00000000     weight = 0.01562500

band     1 # energy  -20.92096878 # occ.  2.00000000
 
ion      s      p      d    tot
    1  0.000  0.000  0.000  0.000
    2  0.000  0.000  0.000  0.000
    3  0.000  0.000  0.000  0.000
    4  0.000  0.000  0.000  0.000
    5  0.000  0.000  0.000  0.000
    6  0.000  0.000  0.000  0.000
    7  0.000  0.000  0.000  0.000
    8  0.000  0.000  0.000  0.000
    9  0.000  0.000  0.000  0.000
   10  0.000  0.000  0.000  0.000
   11  0.000  0.000  0.000  0.000
   12  0.000  0.000  0.000  0.000
   13  0.000  0.000  0.000  0.000
   14  0.000  0.000  0.000  0.000
   15  0.000  0.000  0.000  0.000
   16  0.000  0.000  0.000  0.000
   17  0.000  0.000  0.000  0.000
   18  0.000  0.000  0.000  0.000
   19  0.000  0.000  0.000  0.000
   20  0.000  0.000  0.000  0.000
   21  0.000  0.000  0.000  0.000
   22  0.000  0.000  0.000  0.000
   23  0.000  0.000  0.000  0.000
   24  0.000  0.000  0.000  0.000
   25  0.000  0.000  0.000  0.000
   26  0.000  0.000  0.000  0.000
   27  0.000  0.000  0.000  0.000
   28  0.000  0.000  0.000  0.000
   29  0.000  0.000  0.000  0.000
   30  0.000  0.000  0.000  0.000
   31  0.000  0.000  0.000  0.000
   32  0.000  0.000  0.000  0.000
   33  0.000  0.000  0.000  0.000
   34  0.000  0.000  0.000  0.000
   35  0.000  0.000  0.000  0.000
   36  0.015  0.019  0.038  0.072
   37  0.748  0.013  0.000  0.760
   38  0.112  0.023  0.000  0.135
tot    0.876  0.055  0.038  0.968
 
band     2 # energy   -9.62906952 # occ.  2.00000000
 
ion      s      p      d    tot
    1  0.000  0.000  0.000  0.000
    2  0.000  0.000  0.000  0.000
    3  0.000  0.000  0.000  0.000
    4  0.000  0.000  0.000  0.000
    5  0.000  0.000  0.000  0.000
    6  0.000  0.000  0.000  0.000
    7  0.000  0.000  0.000  0.000
    8  0.000  0.000  0.000  0.000
    9  0.000  0.000  0.000  0.000
   10  0.000  0.000  0.000  0.000
   11  0.000  0.000  0.000  0.000
   12  0.000  0.000  0.000  0.000
   13  0.000  0.000  0.000  0.000
   14  0.000  0.000  0.000  0.000
   15  0.000  0.000  0.000  0.000
   16  0.000  0.000  0.000  0.000
   17  0.000  0.000  0.000  0.000
   18  0.000  0.000  0.000  0.000
   19  0.000  0.000  0.000  0.000
   20  0.001  0.000  0.002  0.003
   21  0.001  0.000  0.002  0.003
   22  0.000  0.000  0.000  0.000
   23  0.001  0.000  0.002  0.003
   24  0.000  0.000  0.000  0.000
   25  0.000  0.000  0.000  0.000
   26  0.000  0.000  0.000  0.000
   27  0.000  0.000  0.000  0.000
   28  0.000  0.000  0.000  0.000
   29  0.000  0.000  0.000  0.000
   30  0.000  0.000  0.000  0.000
   31  0.000  0.000  0.000  0.000
   32  0.000  0.000  0.000  0.000
   33  0.000  0.000  0.000  0.000
   34  0.000  0.000  0.000  0.000
   35  0.000  0.000  0.000  0.000
   36  0.074  0.040  0.164  0.278
   37  0.020  0.539  0.000  0.560
   38  0.178  0.020  0.000  0.198
tot    0.276  0.601  0.170  1.047
 
band     3 # energy   -6.65873930 # occ.  2.00000000
 
ion      s      p      d    tot
    1  0.006  0.001  0.000  0.006
    2  0.006  0.001  0.000  0.006
    3  0.006  0.001  0.000  0.006
    4  0.006  0.001  0.000  0.006
    5  0.006  0.001  0.000  0.006
    6  0.006  0.001  0.000  0.006
    7  0.006  0.001  0.000  0.006
    8  0.006  0.001  0.000  0.006
    9  0.005  0.001  0.000  0.006
   10  0.023  0.000  0.000  0.023
   11  0.023  0.000  0.000  0.023
   12  0.023  0.000  0.000  0.023
   13  0.023  0.000  0.000  0.023
   14  0.023  0.000  0.000  0.023
   15  0.021  0.000  0.000  0.022
   16  0.023  0.000  0.000  0.023
   17  0.021  0.000  0.000  0.022
   18  0.021  0.000  0.000  0.022
   19  0.021  0.000  0.000  0.022
   20  0.027  0.000  0.000  0.027
   21  0.027  0.000  0.000  0.027
   22  0.022  0.000  0.000  0.022
   23  0.027  0.000  0.000  0.027
   24  0.022  0.000  0.000  0.022
   25  0.021  0.000  0.000  0.022
   26  0.021  0.000  0.000  0.022
   27  0.022  0.000  0.000  0.022
   28  0.005  0.000  0.000  0.006
   29  0.006  0.001  0.000  0.007
   30  0.006  0.001  0.000  0.007
   31  0.006  0.001  0.000  0.007
   32  0.006  0.001  0.000  0.007
   33  0.006  0.001  0.000  0.007
   34  0.006  0.001  0.000  0.007
   35  0.005  0.000  0.000  0.006
   36  0.012  0.004  0.003  0.019
   37  0.001  0.003  0.000  0.004
   38  0.001  0.000  0.000  0.001
tot    0.522  0.019  0.010  0.551
 
band     4 # energy   -5.80992781 # occ.  2.00000000
 
ion      s      p      d    tot
    1  0.009  0.000  0.001  0.010
    2  0.009  0.000  0.001  0.011
    3  0.009  0.000  0.001  0.011
    4  0.009  0.000  0.001  0.011
    5  0.009  0.000  0.001  0.010
    6  0.009  0.000  0.001  0.011
    7  0.009  0.000  0.001  0.011
    8  0.009  0.000  0.001  0.011
    9  0.010  0.001  0.001  0.011
   10  0.012  0.001  0.013  0.025
   11  0.012  0.001  0.011  0.024
   12  0.012  0.001  0.013  0.025
   13  0.012  0.001  0.011  0.024
   14  0.012  0.001  0.011  0.024
   15  0.013  0.001  0.010  0.024
   16  0.012  0.001  0.013  0.025
   17  0.013  0.001  0.010  0.024
   18  0.013  0.001  0.010  0.024
   19  0.007  0.001  0.010  0.018
   20  0.013  0.002  0.009  0.024
   21  0.013  0.002  0.009  0.024
   22  0.007  0.001  0.010  0.018
   23  0.013  0.002  0.009  0.024
   24  0.007  0.001  0.010  0.018
   25  0.007  0.001  0.010  0.018
   26  0.007  0.001  0.010  0.018
   27  0.007  0.001  0.010  0.018
   28  0.007  0.000  0.001  0.009
   29  0.010  0.001  0.003  0.014
   30  0.010  0.001  0.003  0.014
   31  0.010  0.001  0.003  0.014
   32  0.010  0.001  0.003  0.014
   33  0.010  0.001  0.003  0.014
   34  0.010  0.001  0.003  0.014
   35  0.007  0.000  0.001  0.008
   36  0.026  0.004  0.007  0.038
   37  0.001  0.003  0.000  0.004
   38  0.001  0.000  0.000  0.001
tot    0.381  0.035  0.222  0.639
 
band     5 # energy   -5.58738084 # occ.  2.00000000
 
ion      s      p      d    tot
    1  0.001  0.000  0.010  0.011
    2  0.003  0.000  0.004  0.007
    3  0.003  0.000  0.004  0.007
    4  0.003  0.000  0.004  0.007
    5  0.002  0.000  0.003  0.005
    6  0.003  0.000  0.004  0.007
    7  0.003  0.000  0.004  0.007
    8  0.003  0.000  0.004  0.007
    9  0.004  0.000  0.003  0.007
   10  0.001  0.000  0.020  0.022
   11  0.001  0.000  0.016  0.016
   12  0.001  0.000  0.020  0.022
   13  0.001  0.000  0.016  0.016
   14  0.001  0.000  0.016  0.016
   15  0.000  0.000  0.010  0.010
   16  0.001  0.000  0.020  0.022
   17  0.000  0.000  0.010  0.010
   18  0.000  0.000  0.010  0.010
   19  0.006  0.000  0.018  0.023
   20  0.000  0.001  0.067  0.068
   21  0.000  0.001  0.067  0.068
   22  0.003  0.000  0.015  0.018
   23  0.000  0.001  0.067  0.068
   24  0.003  0.000  0.015  0.018
   25  0.006  0.000  0.018  0.023
   26  0.006  0.000  0.018  0.023
   27  0.003  0.000  0.015  0.018
   28  0.002  0.000  0.012  0.014
   29  0.008  0.000  0.024  0.032
   30  0.008  0.000  0.024  0.032
   31  0.008  0.000  0.024  0.032
   32  0.008  0.000  0.024  0.032
   33  0.008  0.000  0.024  0.032
   34  0.008  0.000  0.024  0.032
   35  0.003  0.000  0.011  0.014
   36  0.039  0.001  0.023  0.062
   37  0.000  0.001  0.000  0.001
   38  0.000  0.000  0.000  0.000
tot    0.147  0.007  0.667  0.822
 
band     6 # energy   -5.45451240 # occ.  2.00000000
 
ion      s      p      d    tot
    1  0.000  0.000  0.006  0.006
    2  0.000  0.000  0.001  0.002
    3  0.000  0.000  0.001  0.002
    4  0.000  0.000  0.002  0.002
    5  0.000  0.000  0.001  0.001
    6  0.000  0.000  0.001  0.002
    7  0.000  0.000  0.002  0.002
    8  0.000  0.000  0.002  0.002
    9  0.000  0.000  0.001  0.001
   10  0.006  0.001  0.014  0.021
   11  0.001  0.000  0.010  0.011
   12  0.000  0.000  0.013  0.013
   13  0.000  0.001  0.021  0.022
   14  0.001  0.000  0.013  0.014
   15  0.002  0.000  0.006  0.008
   16  0.008  0.001  0.014  0.023
   17  0.000  0.000  0.008  0.008
   18  0.001  0.000  0.006  0.008
   19  0.011  0.000  0.021  0.033
   20  0.018  0.000  0.053  0.071
   21  0.000  0.000  0.112  0.112
   22  0.000  0.001  0.028  0.029
   23  0.023  0.000  0.034  0.057
   24  0.000  0.000  0.021  0.022
   25  0.008  0.001  0.020  0.029
   26  0.000  0.001  0.015  0.016
   27  0.000  0.000  0.019  0.019
   28  0.000  0.000  0.003  0.003
   29  0.000  0.001  0.017  0.017
   30  0.000  0.000  0.010  0.011
   31  0.000  0.000  0.006  0.007
   32  0.000  0.000  0.008  0.008
   33  0.000  0.001  0.008  0.009
   34  0.000  0.001  0.016  0.017
   35  0.000  0.000  0.001  0.001
   36  0.000  0.000  0.078  0.078
   37  0.000  0.111  0.000  0.111
   38  0.000  0.002  0.000  0.002
tot    0.082  0.125  0.590  0.797
 
band     7 # energy   -5.45450591 # occ.  2.00000000
 
ion      s      p      d    tot
    1  0.000  0.000  0.006  0.006
    2  0.000  0.000  0.001  0.001
    3  0.000  0.000  0.002  0.002
    4  0.000  0.000  0.001  0.002
    5  0.000  0.000  0.001  0.001
    6  0.000  0.000  0.002  0.002
    7  0.000  0.000  0.001  0.002
    8  0.000  0.000  0.001  0.001
    9  0.000  0.000  0.001  0.001
   10  0.003  0.001  0.013  0.017
   11  0.000  0.001  0.019  0.020
   12  0.009  0.001  0.014  0.024
   13  0.001  0.000  0.008  0.009
   14  0.000  0.001  0.017  0.018
   15  0.000  0.000  0.008  0.008
   16  0.001  0.001  0.013  0.015
   17  0.002  0.000  0.005  0.008
   18  0.001  0.000  0.007  0.008
   19  0.002  0.001  0.016  0.019
   20  0.010  0.000  0.079  0.090
   21  0.027  0.000  0.020  0.048
   22  0.001  0.000  0.017  0.018
   23  0.004  0.000  0.098  0.103
   24  0.000  0.001  0.024  0.025
   25  0.005  0.001  0.018  0.023
   26  0.013  0.000  0.023  0.035
   27  0.000  0.001  0.027  0.027
   28  0.000  0.000  0.003  0.003
   29  0.000  0.000  0.005  0.006
   30  0.000  0.001  0.011  0.012
   31  0.000  0.000  0.016  0.016
   32  0.000  0.001  0.014  0.015
   33  0.000  0.000  0.014  0.014
   34  0.000  0.000  0.006  0.006
   35  0.000  0.000  0.001  0.001
   36  0.000  0.000  0.078  0.078
   37  0.000  0.111  0.000  0.111
   38  0.000  0.002  0.000  0.002
tot    0.082  0.125  0.590  0.797
 
band     8 # energy   -5.43449839 # occ.  2.00000000
 
ion      s      p      d    tot
    1  0.016  0.001  0.000  0.017
    2  0.003  0.000  0.009  0.011
    3  0.003  0.000  0.009  0.011
    4  0.003  0.000  0.009  0.011
    5  0.000  0.000  0.008  0.008
    6  0.003  0.000  0.009  0.011
    7  0.003  0.000  0.009  0.011
    8  0.003  0.000  0.009  0.011
    9  0.000  0.000  0.007  0.008
   10  0.004  0.000  0.040  0.044
   11  0.000  0.000  0.015  0.016
   12  0.004  0.000  0.040  0.044
   13  0.000  0.000  0.015  0.016
   14  0.000  0.000  0.015  0.016
   15  0.006  0.001  0.001  0.008
   16  0.004  0.000  0.040  0.044
   17  0.006  0.001  0.001  0.008
   18  0.006  0.001  0.001  0.008
   19  0.000  0.001  0.030  0.031
   20  0.005  0.000  0.091  0.096
   21  0.005  0.000  0.091  0.096
   22  0.014  0.001  0.002  0.017
   23  0.005  0.000  0.091  0.096
   24  0.014  0.001  0.002  0.017
   25  0.000  0.001  0.030  0.031
   26  0.000  0.001  0.030  0.031
   27  0.014  0.001  0.002  0.017
   28  0.002  0.000  0.001  0.002
   29  0.001  0.000  0.005  0.006
   30  0.001  0.000  0.005  0.006
   31  0.001  0.000  0.005  0.006
   32  0.001  0.000  0.005  0.006
   33  0.001  0.000  0.005  0.006
   34  0.001  0.000  0.005  0.006
   35  0.007  0.001  0.001  0.009
   36  0.008  0.009  0.001  0.018
   37  0.001  0.003  0.000  0.004
   38  0.001  0.000  0.000  0.001
tot    0.144  0.025  0.639  0.808
 
band     9 # energy   -5.40084200 # occ.  2.00000000
 
ion      s      p      d    tot
    1  0.009  0.000  0.014  0.023
    2  0.010  0.000  0.023  0.033
    3  0.010  0.000  0.023  0.033
    4  0.010  0.000  0.023  0.033
    5  0.015  0.000  0.028  0.044
    6  0.010  0.000  0.023  0.033
    7  0.010  0.000  0.023  0.033
    8  0.010  0.000  0.023  0.033
    9  0.007  0.000  0.023  0.030
   10  0.001  0.001  0.004  0.006
   11  0.001  0.000  0.033  0.035
   12  0.001  0.001  0.004  0.006
   13  0.001  0.000  0.033  0.035
   14  0.001  0.000  0.033  0.035
   15  0.001  0.000  0.025  0.026
   16  0.001  0.001  0.004  0.006
   17  0.001  0.000  0.025  0.026
   18  0.001  0.000  0.025  0.026
   19  0.004  0.000  0.007  0.012
   20  0.002  0.000  0.053  0.055
   21  0.002  0.000  0.053  0.055
   22  0.001  0.000  0.011  0.012
   23  0.002  0.000  0.053  0.055
   24  0.001  0.000  0.011  0.012
   25  0.004  0.000  0.007  0.012
   26  0.004  0.000  0.007  0.012
   27  0.001  0.000  0.011  0.012
   28  0.000  0.000  0.001  0.001
   29  0.001  0.000  0.008  0.009
   30  0.001  0.000  0.008  0.009
   31  0.001  0.000  0.008  0.009
   32  0.001  0.000  0.008  0.009
   33  0.001  0.000  0.008  0.009
   34  0.001  0.000  0.008  0.009
   35  0.001  0.000  0.000  0.001
   36  0.006  0.000  0.009  0.015
   37  0.000  0.000  0.000  0.000
   38  0.000  0.000  0.000  0.000
tot    0.136  0.008  0.657  0.802
 
band    10 # energy   -5.37230914 # occ.  2.00000000
 
ion      s      p      d    tot
    1  0.000  0.000  0.005  0.005
    2  0.001  0.001  0.007  0.008
    3  0.001  0.000  0.003  0.003
    4  0.001  0.001  0.007  0.009
    5  0.000  0.000  0.008  0.008
    6  0.000  0.000  0.004  0.005
    7  0.000  0.000  0.002  0.003
    8  0.000  0.000  0.004  0.004
    9  0.000  0.000  0.001  0.001
   10  0.000  0.000  0.100  0.100
   11  0.023  0.001  0.034  0.057
   12  0.004  0.001  0.042  0.047
   13  0.021  0.001  0.039  0.061
   14  0.000  0.001  0.096  0.096
   15  0.006  0.000  0.031  0.038
   16  0.005  0.001  0.036  0.042
   17  0.006  0.001  0.029  0.035
   18  0.000  0.002  0.004  0.006
   19  0.001  0.000  0.016  0.018
   20  0.000  0.001  0.039  0.040
   21  0.004  0.001  0.044  0.049
   22  0.006  0.001  0.012  0.019
   23  0.004  0.001  0.045  0.049
   24  0.000  0.000  0.013  0.013
   25  0.000  0.000  0.026  0.026
   26  0.001  0.000  0.017  0.018
   27  0.007  0.001  0.012  0.019
   28  0.000  0.000  0.002  0.002
   29  0.000  0.000  0.003  0.003
   30  0.000  0.000  0.004  0.005
   31  0.000  0.000  0.003  0.003
   32  0.001  0.000  0.004  0.005
   33  0.000  0.000  0.004  0.005
   34  0.001  0.000  0.004  0.005
   35  0.000  0.000  0.005  0.005
   36  0.000  0.000  0.006  0.006
   37  0.000  0.000  0.000  0.000
   38  0.000  0.000  0.000  0.000
tot    0.094  0.014  0.714  0.821
 
band    11 # energy   -5.37229254 # occ.  2.00000000
 
ion      s      p      d    tot
    1  0.000  0.000  0.005  0.005
    2  0.000  0.000  0.002  0.002
    3  0.000  0.000  0.007  0.007
    4  0.000  0.000  0.002  0.002
    5  0.000  0.000  0.008  0.008
    6  0.001  0.001  0.005  0.006
    7  0.000  0.000  0.007  0.008
    8  0.001  0.001  0.005  0.007
    9  0.000  0.000  0.001  0.001
   10  0.006  0.001  0.019  0.026
   11  0.006  0.001  0.079  0.086
   12  0.002  0.000  0.077  0.079
   13  0.008  0.001  0.074  0.082
   14  0.029  0.001  0.017  0.046
   15  0.002  0.001  0.012  0.015
   16  0.001  0.000  0.082  0.084
   17  0.002  0.001  0.014  0.017
   18  0.008  0.000  0.039  0.047
   19  0.000  0.000  0.023  0.024
   20  0.005  0.001  0.046  0.052
   21  0.001  0.001  0.041  0.043
   22  0.002  0.000  0.013  0.016
   23  0.001  0.001  0.041  0.043
   24  0.008  0.001  0.012  0.021
   25  0.002  0.000  0.013  0.015
   26  0.000  0.000  0.022  0.023
   27  0.002  0.000  0.013  0.015
   28  0.000  0.000  0.002  0.002
   29  0.001  0.000  0.005  0.006
   30  0.001  0.000  0.004  0.004
   31  0.001  0.000  0.005  0.006
   32  0.000  0.000  0.004  0.004
   33  0.001  0.000  0.003  0.004
   34  0.000  0.000  0.003  0.004
   35  0.000  0.000  0.005  0.005
   36  0.000  0.000  0.006  0.006
   37  0.000  0.000  0.000  0.000
   38  0.000  0.000  0.000  0.000
tot    0.094  0.014  0.714  0.821
 
band    12 # energy   -5.34928536 # occ.  2.00000000
 
ion      s      p      d    tot
    1  0.000  0.000  0.001  0.002
    2  0.000  0.000  0.007  0.007
    3  0.000  0.000  0.006  0.007
    4  0.000  0.000  0.007  0.007
    5  0.005  0.001  0.003  0.009
    6  0.000  0.000  0.006  0.007
    7  0.000  0.000  0.006  0.007
    8  0.000  0.000  0.006  0.007
    9  0.000  0.000  0.008  0.009
   10  0.009  0.001  0.005  0.015
   11  0.015  0.001  0.045  0.061
   12  0.008  0.001  0.005  0.015
   13  0.015  0.001  0.045  0.061
   14  0.015  0.001  0.045  0.060
   15  0.002  0.000  0.062  0.064
   16  0.008  0.001  0.005  0.015
   17  0.002  0.000  0.062  0.064
   18  0.002  0.000  0.062  0.064
   19  0.009  0.001  0.023  0.033
   20  0.005  0.001  0.023  0.029
   21  0.005  0.001  0.023  0.029
   22  0.000  0.000  0.033  0.033
   23  0.005  0.001  0.023  0.029
   24  0.000  0.000  0.033  0.033
   25  0.009  0.001  0.023  0.033
   26  0.009  0.001  0.023  0.033
   27  0.000  0.000  0.033  0.033
   28  0.002  0.001  0.003  0.006
   29  0.000  0.000  0.004  0.004
   30  0.000  0.000  0.004  0.004
   31  0.000  0.000  0.004  0.004
   32  0.000  0.000  0.004  0.004
   33  0.000  0.000  0.004  0.004
   34  0.000  0.000  0.004  0.004
   35  0.002  0.000  0.001  0.003
   36  0.000  0.000  0.000  0.000
   37  0.000  0.000  0.000  0.000
   38  0.000  0.000  0.000  0.000
tot    0.127  0.017  0.655  0.799
 
band    13 # energy   -5.32984452 # occ.  2.00000000
 
ion      s      p      d    tot
    1  0.001  0.000  0.028  0.030
    2  0.002  0.000  0.010  0.013
    3  0.002  0.000  0.010  0.013
    4  0.002  0.000  0.010  0.013
    5  0.000  0.000  0.001  0.001
    6  0.002  0.000  0.010  0.013
    7  0.002  0.000  0.010  0.013
    8  0.002  0.000  0.010  0.013
    9  0.010  0.001  0.000  0.011
   10  0.004  0.000  0.062  0.066
   11  0.003  0.000  0.028  0.032
   12  0.004  0.000  0.063  0.066
   13  0.003  0.000  0.028  0.032
   14  0.003  0.000  0.028  0.032
   15  0.004  0.000  0.005  0.010
   16  0.004  0.000  0.063  0.066
   17  0.004  0.000  0.005  0.010
   18  0.004  0.000  0.005  0.010
   19  0.000  0.000  0.018  0.018
   20  0.002  0.001  0.017  0.019
   21  0.002  0.001  0.017  0.019
   22  0.002  0.000  0.028  0.030
   23  0.002  0.001  0.017  0.019
   24  0.002  0.000  0.028  0.030
   25  0.000  0.000  0.018  0.018
   26  0.000  0.000  0.018  0.018
   27  0.002  0.000  0.029  0.030
   28  0.014  0.000  0.010  0.024
   29  0.004  0.000  0.016  0.020
   30  0.004  0.000  0.016  0.020
   31  0.004  0.000  0.016  0.020
   32  0.004  0.000  0.016  0.020
   33  0.004  0.000  0.016  0.020
   34  0.004  0.000  0.016  0.020
   35  0.002  0.000  0.020  0.023
   36  0.001  0.000  0.001  0.002
   37  0.000  0.000  0.000  0.000
   38  0.000  0.000  0.000  0.000
tot    0.112  0.008  0.695  0.815
 
band    14 # energy   -5.32154725 # occ.  2.00000000
 
ion      s      p      d    tot
    1  0.000  0.001  0.011  0.012
    2  0.002  0.001  0.010  0.013
    3  0.004  0.001  0.005  0.009
    4  0.003  0.001  0.009  0.013
    5  0.000  0.000  0.008  0.008
    6  0.000  0.000  0.007  0.008
    7  0.004  0.001  0.005  0.010
    8  0.000  0.000  0.008  0.009
    9  0.000  0.001  0.010  0.011
   10  0.019  0.000  0.027  0.046
   11  0.000  0.000  0.032  0.032
   12  0.004  0.001  0.038  0.042
   13  0.000  0.000  0.031  0.032
   14  0.000  0.000  0.034  0.035
   15  0.007  0.000  0.077  0.084
   16  0.006  0.001  0.036  0.043
   17  0.004  0.000  0.093  0.097
   18  0.021  0.000  0.004  0.026
   19  0.001  0.000  0.028  0.029
   20  0.003  0.000  0.020  0.023
   21  0.000  0.000  0.018  0.019
   22  0.002  0.000  0.029  0.031
   23  0.001  0.000  0.018  0.019
   24  0.010  0.000  0.014  0.024
   25  0.002  0.001  0.015  0.018
   26  0.000  0.000  0.031  0.032
   27  0.003  0.000  0.027  0.030
   28  0.000  0.000  0.011  0.011
   29  0.002  0.000  0.005  0.008
   30  0.001  0.000  0.004  0.005
   31  0.001  0.000  0.005  0.007
   32  0.004  0.001  0.004  0.008
   33  0.000  0.000  0.004  0.004
   34  0.004  0.001  0.004  0.009
   35  0.000  0.000  0.005  0.005
   36  0.000  0.000  0.002  0.003
   37  0.000  0.000  0.000  0.000
   38  0.000  0.000  0.000  0.000
tot    0.108  0.013  0.693  0.814
 
band    15 # energy   -5.32151745 # occ.  2.00000000
 
ion      s      p      d    tot
    1  0.000  0.001  0.011  0.012
    2  0.002  0.000  0.005  0.008
    3  0.001  0.001  0.010  0.011
    4  0.002  0.000  0.006  0.008
    5  0.000  0.000  0.008  0.008
    6  0.004  0.001  0.007  0.013
    7  0.000  0.000  0.010  0.011
    8  0.004  0.001  0.007  0.012
    9  0.000  0.001  0.010  0.011
   10  0.000  0.001  0.040  0.041
   11  0.000  0.000  0.033  0.033
   12  0.015  0.000  0.030  0.045
   13  0.000  0.000  0.034  0.034
   14  0.000  0.000  0.031  0.031
   15  0.014  0.000  0.039  0.053
   16  0.013  0.000  0.031  0.045
   17  0.017  0.000  0.023  0.041
   18  0.000  0.000  0.112  0.112
   19  0.002  0.000  0.021  0.023
   20  0.000  0.000  0.018  0.018
   21  0.002  0.000  0.019  0.022
   22  0.008  0.000  0.018  0.026
   23  0.002  0.000  0.019  0.021
   24  0.000  0.000  0.033  0.033
   25  0.000  0.000  0.035  0.035
   26  0.002  0.000  0.018  0.021
   27  0.007  0.000  0.020  0.027
   28  0.000  0.000  0.011  0.011
   29  0.002  0.000  0.004  0.006
   30  0.003  0.001  0.005  0.009
   31  0.002  0.000  0.004  0.007
   32  0.000  0.000  0.005  0.005
   33  0.004  0.001  0.005  0.009
   34  0.000  0.000  0.005  0.005
   35  0.000  0.000  0.005  0.005
   36  0.000  0.000  0.002  0.003
   37  0.000  0.000  0.000  0.000
   38  0.000  0.000  0.000  0.000
tot    0.108  0.013  0.693  0.814
 
band    16 # energy   -5.31679926 # occ.  2.00000000
 
ion      s      p      d    tot
    1  0.001  0.000  0.000  0.001
    2  0.000  0.000  0.008  0.008
    3  0.000  0.000  0.008  0.008
    4  0.000  0.000  0.008  0.008
    5  0.000  0.000  0.000  0.000
    6  0.000  0.000  0.008  0.008
    7  0.000  0.000  0.008  0.008
    8  0.000  0.000  0.008  0.008
    9  0.002  0.000  0.010  0.013
   10  0.000  0.000  0.037  0.038
   11  0.001  0.000  0.004  0.005
   12  0.000  0.000  0.037  0.037
   13  0.001  0.000  0.004  0.005
   14  0.001  0.000  0.004  0.005
   15  0.003  0.000  0.052  0.054
   16  0.000  0.000  0.037  0.037
   17  0.003  0.000  0.052  0.054
   18  0.003  0.000  0.051  0.054
   19  0.006  0.000  0.039  0.045
   20  0.003  0.001  0.020  0.023
   21  0.003  0.001  0.020  0.023
   22  0.001  0.000  0.066  0.067
   23  0.003  0.001  0.020  0.023
   24  0.001  0.000  0.066  0.067
   25  0.005  0.000  0.039  0.045
   26  0.006  0.000  0.039  0.045
   27  0.001  0.000  0.066  0.067
   28  0.003  0.001  0.003  0.006
   29  0.001  0.000  0.009  0.010
   30  0.001  0.000  0.009  0.010
   31  0.001  0.000  0.009  0.010
   32  0.001  0.000  0.009  0.010
   33  0.001  0.000  0.009  0.010
   34  0.001  0.000  0.009  0.010
   35  0.003  0.000  0.014  0.017
   36  0.001  0.002  0.000  0.003
   37  0.000  0.000  0.000  0.000
   38  0.000  0.000  0.000  0.000
tot    0.053  0.010  0.780  0.842
 
band    17 # energy   -5.30524344 # occ.  2.00000000
 
ion      s      p      d    tot
    1  0.000  0.000  0.007  0.007
    2  0.002  0.000  0.007  0.009
    3  0.000  0.000  0.007  0.007
    4  0.002  0.000  0.007  0.009
    5  0.000  0.000  0.004  0.004
    6  0.001  0.000  0.005  0.007
    7  0.000  0.000  0.007  0.007
    8  0.002  0.000  0.005  0.007
    9  0.000  0.000  0.019  0.019
   10  0.000  0.000  0.036  0.036
   11  0.000  0.000  0.034  0.035
   12  0.000  0.000  0.013  0.013
   13  0.000  0.000  0.035  0.036
   14  0.002  0.000  0.009  0.011
   15  0.000  0.000  0.043  0.043
   16  0.000  0.000  0.014  0.014
   17  0.000  0.000  0.043  0.044
   18  0.001  0.000  0.030  0.032
   19  0.002  0.000  0.078  0.081
   20  0.000  0.000  0.058  0.058
   21  0.000  0.000  0.020  0.021
   22  0.003  0.000  0.060  0.064
   23  0.000  0.000  0.021  0.022
   24  0.013  0.000  0.029  0.043
   25  0.008  0.000  0.007  0.015
   26  0.002  0.000  0.081  0.082
   27  0.003  0.000  0.059  0.063
   28  0.000  0.000  0.005  0.005
   29  0.000  0.000  0.008  0.009
   30  0.001  0.000  0.003  0.004
   31  0.000  0.000  0.008  0.009
   32  0.000  0.000  0.008  0.009
   33  0.001  0.000  0.003  0.004
   34  0.000  0.000  0.008  0.009
   35  0.000  0.000  0.011  0.011
   36  0.000  0.000  0.002  0.002
   37  0.000  0.000  0.000  0.000
   38  0.000  0.000  0.000  0.000
tot    0.047  0.006  0.797  0.850
 
band    18 # energy   -5.30515685 # occ.  2.00000000
 
ion      s      p      d    tot
    1  0.000  0.000  0.007  0.007
    2  0.000  0.000  0.006  0.006
    3  0.002  0.000  0.006  0.008
    4  0.000  0.000  0.006  0.006
    5  0.000  0.000  0.004  0.004
    6  0.001  0.000  0.008  0.009
    7  0.002  0.000  0.006  0.008
    8  0.001  0.000  0.008  0.009
    9  0.000  0.000  0.019  0.019
   10  0.000  0.000  0.005  0.006
   11  0.001  0.000  0.018  0.020
   12  0.000  0.000  0.029  0.029
   13  0.001  0.000  0.017  0.019
   14  0.000  0.000  0.043  0.043
   15  0.001  0.000  0.035  0.036
   16  0.000  0.000  0.028  0.028
   17  0.001  0.000  0.034  0.036
   18  0.000  0.000  0.048  0.048
   19  0.006  0.000  0.032  0.038
   20  0.000  0.001  0.008  0.009
   21  0.000  0.000  0.046  0.047
   22  0.010  0.000  0.039  0.049
   23  0.000  0.000  0.045  0.045
   24  0.000  0.000  0.070  0.070
   25  0.000  0.000  0.104  0.104
   26  0.006  0.000  0.030  0.036
   27  0.010  0.000  0.040  0.050
   28  0.000  0.000  0.005  0.005
   29  0.001  0.000  0.004  0.006
   30  0.000  0.000  0.010  0.010
   31  0.001  0.000  0.004  0.006
   32  0.001  0.000  0.005  0.006
   33  0.000  0.000  0.010  0.010
   34  0.001  0.000  0.005  0.006
   35  0.000  0.000  0.011  0.011
   36  0.000  0.000  0.002  0.002
   37  0.000  0.000  0.000  0.000
   38  0.000  0.000  0.000  0.000
tot    0.047  0.006  0.797  0.850
 
band    19 # energy   -5.26901028 # occ.  2.00000000
 
ion      s      p      d    tot
    1  0.000  0.000  0.004  0.004
    2  0.002  0.000  0.003  0.005
    3  0.002  0.001  0.004  0.006
    4  0.001  0.000  0.003  0.004
    5  0.000  0.000  0.009  0.010
    6  0.000  0.000  0.003  0.003
    7  0.002  0.001  0.004  0.006
    8  0.000  0.000  0.003  0.003
    9  0.000  0.000  0.001  0.001
   10  0.000  0.000  0.008  0.008
   11  0.004  0.000  0.033  0.037
   12  0.001  0.000  0.010  0.011
   13  0.004  0.000  0.031  0.034
   14  0.000  0.000  0.009  0.009
   15  0.000  0.000  0.011  0.011
   16  0.001  0.000  0.010  0.011
   17  0.000  0.000  0.012  0.012
   18  0.000  0.000  0.018  0.018
   19  0.004  0.000  0.020  0.024
   20  0.000  0.000  0.114  0.114
   21  0.002  0.000  0.072  0.074
   22  0.000  0.000  0.028  0.029
   23  0.002  0.000  0.068  0.070
   24  0.000  0.000  0.041  0.042
   25  0.000  0.000  0.004  0.004
   26  0.004  0.000  0.018  0.022
   27  0.000  0.000  0.027  0.027
   28  0.000  0.000  0.002  0.002
   29  0.000  0.001  0.011  0.012
   30  0.001  0.000  0.009  0.010
   31  0.000  0.001  0.011  0.012
   32  0.002  0.000  0.007  0.009
   33  0.001  0.000  0.009  0.010
   34  0.002  0.000  0.007  0.009
   35  0.000  0.000  0.001  0.001
   36  0.000  0.002  0.048  0.050
   37  0.000  0.120  0.000  0.120
   38  0.000  0.002  0.000  0.002
tot    0.034  0.131  0.670  0.835
 
band    20 # energy   -5.26897682 # occ.  2.00000000
 
ion      s      p      d    tot
    1  0.000  0.000  0.004  0.004
    2  0.001  0.000  0.003  0.004
    3  0.000  0.000  0.003  0.003
    4  0.001  0.000  0.003  0.005
    5  0.000  0.000  0.009  0.010
    6  0.002  0.001  0.003  0.006
    7  0.000  0.000  0.003  0.003
    8  0.002  0.000  0.003  0.006
    9  0.000  0.000  0.001  0.001
   10  0.002  0.000  0.010  0.012
   11  0.001  0.000  0.015  0.016
   12  0.000  0.000  0.009  0.009
   13  0.001  0.000  0.017  0.019
   14  0.005  0.000  0.040  0.045
   15  0.000  0.000  0.016  0.016
   16  0.000  0.000  0.008  0.009
   17  0.000  0.000  0.015  0.015
   18  0.000  0.000  0.009  0.009
   19  0.001  0.000  0.008  0.010
   20  0.002  0.000  0.055  0.058
   21  0.001  0.000  0.097  0.098
   22  0.000  0.000  0.036  0.036
   23  0.001  0.000  0.101  0.102
   24  0.000  0.000  0.023  0.023
   25  0.005  0.000  0.024  0.029
   26  0.001  0.000  0.010  0.012
   27  0.000  0.000  0.038  0.038
   28  0.000  0.000  0.002  0.002
   29  0.002  0.000  0.007  0.009
   30  0.001  0.001  0.009  0.010
   31  0.002  0.000  0.007  0.009
   32  0.000  0.001  0.011  0.012
   33  0.001  0.001  0.009  0.011
   34  0.000  0.001  0.011  0.012
   35  0.000  0.000  0.001  0.001
   36  0.000  0.002  0.048  0.050
   37  0.000  0.120  0.000  0.120
   38  0.000  0.002  0.000  0.002
tot    0.034  0.131  0.670  0.835
 
band    21 # energy   -5.17748603 # occ.  2.00000000
 
ion      s      p      d    tot
    1  0.000  0.000  0.000  0.000
    2  0.000  0.000  0.005  0.005
    3  0.000  0.000  0.005  0.005
    4  0.000  0.000  0.005  0.005
    5  0.000  0.000  0.016  0.017
    6  0.000  0.000  0.005  0.005
    7  0.000  0.000  0.005  0.005
    8  0.000  0.000  0.005  0.005
    9  0.001  0.000  0.008  0.009
   10  0.000  0.000  0.010  0.010
   11  0.000  0.001  0.079  0.079
   12  0.000  0.000  0.010  0.010
   13  0.000  0.001  0.079  0.079
   14  0.000  0.001  0.079  0.079
   15  0.001  0.001  0.041  0.042
   16  0.000  0.000  0.010  0.010