PROCAR new format
# of k-points:   10         # of bands:  252         # of ions:   38

 k-point     1 :    0.00000000 0.00000000 0.00000000     weight = 0.01562500

band     1 # energy  -18.15682655 # occ.  2.00000000
 
ion      s      p      d    tot
    1  0.000  0.000  0.000  0.000
    2  0.000  0.000  0.000  0.000
    3  0.000  0.000  0.000  0.000
    4  0.000  0.000  0.000  0.000
    5  0.000  0.000  0.000  0.000
    6  0.000  0.000  0.000  0.000
    7  0.000  0.000  0.000  0.000
    8  0.000  0.000  0.000  0.000
    9  0.000  0.000  0.000  0.000
   10  0.000  0.000  0.000  0.000
   11  0.000  0.000  0.000  0.000
   12  0.000  0.000  0.000  0.000
   13  0.000  0.000  0.000  0.000
   14  0.000  0.000  0.000  0.000
   15  0.000  0.000  0.000  0.000
   16  0.000  0.000  0.000  0.000
   17  0.000  0.000  0.000  0.000
   18  0.000  0.000  0.000  0.000
   19  0.000  0.000  0.000  0.000
   20  0.000  0.000  0.000  0.000
   21  0.000  0.000  0.000  0.000
   22  0.000  0.000  0.000  0.000
   23  0.000  0.000  0.000  0.000
   24  0.000  0.000  0.000  0.000
   25  0.000  0.000  0.000  0.000
   26  0.000  0.000  0.000  0.000
   27  0.000  0.000  0.000  0.000
   28  0.000  0.000  0.000  0.000
   29  0.000  0.000  0.000  0.000
   30  0.000  0.000  0.000  0.000
   31  0.000  0.000  0.000  0.000
   32  0.000  0.000  0.000  0.000
   33  0.000  0.000  0.000  0.000
   34  0.000  0.000  0.000  0.000
   35  0.000  0.000  0.000  0.000
   36  0.007  0.007  0.012  0.026
   37  0.732  0.017  0.000  0.749
   38  0.120  0.024  0.000  0.144
tot    0.859  0.048  0.012  0.919
 
band     2 # energy   -8.62007691 # occ.  2.00000000
 
ion      s      p      d    tot
    1  0.006  0.001  0.000  0.007
    2  0.006  0.001  0.000  0.006
    3  0.006  0.001  0.000  0.006
    4  0.006  0.001  0.000  0.006
    5  0.006  0.001  0.000  0.006
    6  0.006  0.001  0.000  0.006
    7  0.006  0.001  0.000  0.006
    8  0.006  0.001  0.000  0.006
    9  0.006  0.001  0.000  0.006
   10  0.023  0.000  0.000  0.023
   11  0.023  0.000  0.000  0.023
   12  0.023  0.000  0.000  0.023
   13  0.023  0.000  0.000  0.023
   14  0.023  0.000  0.000  0.023
   15  0.023  0.000  0.000  0.023
   16  0.023  0.000  0.000  0.023
   17  0.023  0.000  0.000  0.023
   18  0.023  0.000  0.000  0.023
   19  0.024  0.000  0.000  0.025
   20  0.026  0.000  0.000  0.026
   21  0.026  0.000  0.000  0.026
   22  0.025  0.000  0.000  0.025
   23  0.026  0.000  0.000  0.026
   24  0.025  0.000  0.000  0.025
   25  0.024  0.000  0.000  0.025
   26  0.024  0.000  0.000  0.025
   27  0.025  0.000  0.000  0.025
   28  0.008  0.001  0.000  0.008
   29  0.008  0.001  0.000  0.009
   30  0.008  0.001  0.000  0.009
   31  0.008  0.001  0.000  0.009
   32  0.008  0.001  0.000  0.009
   33  0.008  0.001  0.000  0.009
   34  0.008  0.001  0.000  0.009
   35  0.008  0.001  0.000  0.008
   36  0.022  0.001  0.000  0.023
   37  0.000  0.006  0.000  0.006
   38  0.002  0.000  0.000  0.003
tot    0.569  0.021  0.001  0.592
 
band     3 # energy   -7.48305582 # occ.  2.00000000
 
ion      s      p      d    tot
    1  0.012  0.001  0.000  0.013
    2  0.012  0.001  0.000  0.013
    3  0.012  0.001  0.000  0.013
    4  0.012  0.001  0.000  0.013
    5  0.012  0.001  0.000  0.013
    6  0.012  0.001  0.000  0.013
    7  0.012  0.001  0.000  0.013
    8  0.012  0.001  0.000  0.013
    9  0.013  0.001  0.000  0.014
   10  0.011  0.001  0.000  0.012
   11  0.010  0.001  0.000  0.011
   12  0.011  0.001  0.000  0.012
   13  0.010  0.001  0.000  0.011
   14  0.010  0.001  0.000  0.011
   15  0.011  0.001  0.000  0.012
   16  0.011  0.001  0.000  0.012
   17  0.011  0.001  0.000  0.012
   18  0.011  0.001  0.000  0.012
   19  0.002  0.002  0.000  0.004
   20  0.006  0.003  0.001  0.010
   21  0.006  0.003  0.001  0.010
   22  0.003  0.002  0.000  0.005
   23  0.006  0.003  0.001  0.010
   24  0.003  0.002  0.000  0.005
   25  0.002  0.002  0.000  0.004
   26  0.002  0.002  0.000  0.004
   27  0.003  0.002  0.000  0.005
   28  0.009  0.000  0.000  0.009
   29  0.012  0.000  0.001  0.013
   30  0.012  0.000  0.001  0.013
   31  0.012  0.000  0.001  0.013
   32  0.012  0.000  0.001  0.013
   33  0.012  0.000  0.001  0.013
   34  0.012  0.000  0.001  0.013
   35  0.009  0.000  0.000  0.009
   36  0.088  0.002  0.021  0.111
   37  0.003  0.138  0.000  0.141
   38  0.048  0.005  0.000  0.053
tot    0.468  0.183  0.035  0.686
 
band     4 # energy   -7.03769164 # occ.  2.00000000
 
ion      s      p      d    tot
    1  0.006  0.000  0.000  0.006
    2  0.006  0.000  0.000  0.006
    3  0.006  0.000  0.000  0.006
    4  0.006  0.000  0.000  0.006
    5  0.006  0.000  0.000  0.007
    6  0.006  0.000  0.000  0.006
    7  0.006  0.000  0.000  0.006
    8  0.006  0.000  0.000  0.006
    9  0.005  0.000  0.000  0.006
   10  0.002  0.001  0.000  0.003
   11  0.003  0.001  0.000  0.003
   12  0.002  0.001  0.000  0.003
   13  0.003  0.001  0.000  0.003
   14  0.003  0.001  0.000  0.003
   15  0.001  0.001  0.000  0.002
   16  0.002  0.001  0.000  0.003
   17  0.001  0.001  0.000  0.002
   18  0.001  0.001  0.000  0.002
   19  0.008  0.001  0.000  0.009
   20  0.001  0.001  0.002  0.004
   21  0.001  0.001  0.002  0.004
   22  0.008  0.001  0.000  0.009
   23  0.001  0.001  0.002  0.004
   24  0.008  0.001  0.000  0.009
   25  0.008  0.001  0.000  0.009
   26  0.008  0.001  0.000  0.009
   27  0.008  0.001  0.000  0.009
   28  0.010  0.001  0.000  0.011
   29  0.006  0.001  0.000  0.007
   30  0.006  0.001  0.000  0.007
   31  0.006  0.001  0.000  0.007
   32  0.006  0.001  0.000  0.007
   33  0.006  0.001  0.000  0.007
   34  0.006  0.001  0.000  0.007
   35  0.010  0.001  0.000  0.011
   36  0.015  0.018  0.135  0.168
   37  0.014  0.301  0.000  0.314
   38  0.102  0.010  0.000  0.112
tot    0.305  0.353  0.149  0.807
 
band     5 # energy   -5.76481736 # occ.  2.00000000
 
ion      s      p      d    tot
    1  0.015  0.000  0.005  0.021
    2  0.016  0.000  0.005  0.021
    3  0.016  0.000  0.005  0.021
    4  0.016  0.000  0.005  0.021
    5  0.016  0.000  0.005  0.021
    6  0.016  0.000  0.005  0.021
    7  0.016  0.000  0.005  0.021
    8  0.016  0.000  0.005  0.021
    9  0.017  0.000  0.005  0.022
   10  0.003  0.004  0.001  0.008
   11  0.002  0.004  0.001  0.007
   12  0.003  0.004  0.001  0.008
   13  0.002  0.004  0.001  0.007
   14  0.003  0.004  0.001  0.007
   15  0.002  0.004  0.001  0.007
   16  0.003  0.004  0.001  0.008
   17  0.002  0.004  0.001  0.007
   18  0.002  0.004  0.001  0.007
   19  0.007  0.003  0.003  0.013
   20  0.007  0.003  0.005  0.015
   21  0.007  0.003  0.005  0.015
   22  0.005  0.003  0.003  0.011
   23  0.007  0.003  0.005  0.015
   24  0.005  0.003  0.003  0.011
   25  0.007  0.003  0.003  0.013
   26  0.007  0.003  0.003  0.013
   27  0.005  0.003  0.003  0.011
   28  0.012  0.000  0.007  0.018
   29  0.017  0.000  0.009  0.026
   30  0.017  0.000  0.009  0.026
   31  0.017  0.000  0.009  0.026
   32  0.017  0.000  0.009  0.026
   33  0.017  0.000  0.009  0.026
   34  0.017  0.000  0.009  0.026
   35  0.013  0.000  0.006  0.019
   36  0.033  0.000  0.054  0.087
   37  0.000  0.001  0.000  0.001
   38  0.000  0.000  0.000  0.000
tot    0.384  0.061  0.212  0.656
 
band     6 # energy   -5.63364756 # occ.  2.00000000
 
ion      s      p      d    tot
    1  0.000  0.003  0.005  0.007
    2  0.008  0.002  0.002  0.012
    3  0.003  0.001  0.002  0.006
    4  0.008  0.002  0.002  0.012
    5  0.000  0.001  0.002  0.004
    6  0.001  0.001  0.002  0.004
    7  0.003  0.001  0.002  0.006
    8  0.001  0.001  0.002  0.004
    9  0.000  0.000  0.003  0.003
   10  0.055  0.004  0.004  0.063
   11  0.003  0.009  0.003  0.016
   12  0.014  0.003  0.010  0.028
   13  0.004  0.009  0.003  0.016
   14  0.014  0.000  0.006  0.020
   15  0.003  0.003  0.008  0.014
   16  0.013  0.003  0.010  0.027
   17  0.004  0.003  0.008  0.015
   18  0.014  0.003  0.002  0.019
   19  0.010  0.009  0.005  0.024
   20  0.060  0.004  0.005  0.069
   21  0.016  0.001  0.014  0.031
   22  0.000  0.007  0.005  0.012
   23  0.014  0.001  0.014  0.030
   24  0.001  0.002  0.004  0.007
   25  0.041  0.001  0.007  0.049
   26  0.011  0.009  0.005  0.024
   27  0.000  0.007  0.005  0.012
   28  0.000  0.004  0.005  0.008
   29  0.012  0.003  0.004  0.018
   30  0.009  0.002  0.003  0.014
   31  0.011  0.003  0.004  0.018
   32  0.000  0.001  0.004  0.005
   33  0.008  0.002  0.003  0.013
   34  0.000  0.001  0.004  0.005
   35  0.000  0.000  0.003  0.003
   36  0.000  0.004  0.034  0.038
   37  0.000  0.000  0.000  0.000
   38  0.000  0.000  0.000  0.000
tot    0.341  0.111  0.202  0.654
 
band     7 # energy   -5.63361693 # occ.  2.00000000
 
ion      s      p      d    tot
    1  0.000  0.003  0.005  0.007
    2  0.000  0.001  0.002  0.002
    3  0.005  0.002  0.002  0.009
    4  0.000  0.001  0.002  0.002
    5  0.000  0.001  0.002  0.004
    6  0.007  0.002  0.002  0.010
    7  0.005  0.002  0.002  0.009
    8  0.007  0.002  0.002  0.011
    9  0.000  0.000  0.003  0.003
   10  0.000  0.003  0.012  0.015
   11  0.010  0.003  0.005  0.018
   12  0.041  0.004  0.006  0.051
   13  0.010  0.003  0.005  0.018
   14  0.000  0.012  0.002  0.014
   15  0.010  0.003  0.004  0.018
   16  0.042  0.004  0.006  0.052
   17  0.010  0.003  0.004  0.018
   18  0.000  0.003  0.010  0.013
   19  0.031  0.003  0.006  0.041
   20  0.000  0.000  0.017  0.017
   21  0.044  0.003  0.008  0.055
   22  0.001  0.004  0.004  0.009
   23  0.045  0.003  0.008  0.056
   24  0.000  0.009  0.006  0.014
   25  0.000  0.012  0.004  0.016
   26  0.031  0.004  0.006  0.040
   27  0.001  0.003  0.004  0.008
   28  0.000  0.004  0.005  0.008
   29  0.002  0.001  0.003  0.006
   30  0.005  0.002  0.004  0.011
   31  0.002  0.001  0.003  0.006
   32  0.013  0.003  0.003  0.019
   33  0.005  0.002  0.004  0.011
   34  0.013  0.003  0.003  0.020
   35  0.000  0.000  0.003  0.003
   36  0.000  0.004  0.034  0.038
   37  0.000  0.000  0.000  0.000
   38  0.000  0.000  0.000  0.000
tot    0.341  0.111  0.202  0.654
 
band     8 # energy   -5.60522155 # occ.  2.00000000
 
ion      s      p      d    tot
    1  0.000  0.000  0.002  0.002
    2  0.009  0.002  0.002  0.013
    3  0.004  0.001  0.002  0.007
    4  0.008  0.002  0.002  0.013
    5  0.000  0.001  0.004  0.006
    6  0.002  0.001  0.002  0.005
    7  0.003  0.001  0.002  0.006
    8  0.001  0.001  0.002  0.004
    9  0.000  0.003  0.004  0.007
   10  0.000  0.009  0.005  0.013
   11  0.035  0.004  0.005  0.044
   12  0.000  0.004  0.004  0.008
   13  0.030  0.003  0.006  0.040
   14  0.000  0.000  0.015  0.015
   15  0.033  0.003  0.006  0.042
   16  0.000  0.003  0.004  0.007
   17  0.029  0.004  0.006  0.039
   18  0.000  0.010  0.006  0.016
   19  0.019  0.004  0.005  0.027
   20  0.000  0.015  0.000  0.015
   21  0.008  0.005  0.004  0.017
   22  0.045  0.004  0.007  0.056
   23  0.009  0.003  0.005  0.017
   24  0.000  0.005  0.012  0.018
   25  0.000  0.002  0.014  0.016
   26  0.016  0.003  0.006  0.025
   27  0.052  0.004  0.006  0.062
   28  0.000  0.001  0.004  0.005
   29  0.013  0.003  0.003  0.019
   30  0.006  0.002  0.004  0.012
   31  0.012  0.003  0.003  0.018
   32  0.002  0.001  0.003  0.006
   33  0.005  0.002  0.004  0.010
   34  0.001  0.001  0.003  0.005
   35  0.000  0.004  0.006  0.010
   36  0.000  0.003  0.019  0.022
   37  0.000  0.000  0.000  0.000
   38  0.000  0.000  0.000  0.000
tot    0.341  0.116  0.186  0.644
 
band     9 # energy   -5.60520332 # occ.  2.00000000
 
ion      s      p      d    tot
    1  0.000  0.000  0.002  0.002
    2  0.000  0.001  0.002  0.003
    3  0.005  0.002  0.002  0.009
    4  0.000  0.001  0.002  0.003
    5  0.000  0.001  0.004  0.006
    6  0.007  0.002  0.002  0.011
    7  0.006  0.002  0.002  0.010
    8  0.008  0.002  0.002  0.012
    9  0.000  0.003  0.004  0.007
   10  0.000  0.001  0.004  0.006
   11  0.009  0.001  0.012  0.022
   12  0.000  0.006  0.004  0.011
   13  0.013  0.001  0.011  0.026
   14  0.043  0.005  0.002  0.050
   15  0.008  0.008  0.006  0.022
   16  0.000  0.007  0.004  0.012
   17  0.013  0.007  0.006  0.026
   18  0.041  0.001  0.006  0.049
   19  0.005  0.002  0.012  0.019
   20  0.011  0.000  0.006  0.017
   21  0.003  0.010  0.002  0.016
   22  0.020  0.005  0.010  0.034
   23  0.002  0.012  0.002  0.016
   24  0.064  0.003  0.005  0.072
   25  0.023  0.004  0.002  0.030
   26  0.007  0.003  0.011  0.020
   27  0.013  0.005  0.011  0.029
   28  0.000  0.001  0.004  0.005
   29  0.000  0.001  0.003  0.005
   30  0.007  0.002  0.003  0.011
   31  0.001  0.001  0.003  0.005
   32  0.011  0.003  0.003  0.018
   33  0.008  0.002  0.003  0.013
   34  0.012  0.003  0.003  0.018
   35  0.000  0.004  0.006  0.010
   36  0.000  0.003  0.019  0.022
   37  0.000  0.000  0.000  0.000
   38  0.000  0.000  0.000  0.000
tot    0.341  0.116  0.186  0.644
 
band    10 # energy   -5.58058395 # occ.  2.00000000
 
ion      s      p      d    tot
    1  0.018  0.003  0.001  0.022
    2  0.000  0.002  0.004  0.006
    3  0.000  0.002  0.004  0.006
    4  0.000  0.002  0.004  0.006
    5  0.000  0.000  0.000  0.001
    6  0.000  0.002  0.004  0.006
    7  0.000  0.002  0.004  0.006
    8  0.000  0.002  0.004  0.006
    9  0.012  0.002  0.000  0.014
   10  0.028  0.004  0.007  0.039
   11  0.002  0.001  0.011  0.014
   12  0.028  0.004  0.007  0.039
   13  0.002  0.001  0.011  0.014
   14  0.002  0.001  0.011  0.014
   15  0.017  0.009  0.002  0.028
   16  0.028  0.004  0.007  0.039
   17  0.017  0.009  0.002  0.028
   18  0.017  0.009  0.002  0.028
   19  0.019  0.009  0.002  0.030
   20  0.001  0.002  0.010  0.013
   21  0.001  0.002  0.010  0.013
   22  0.029  0.004  0.008  0.040
   23  0.001  0.002  0.010  0.013
   24  0.029  0.004  0.008  0.040
   25  0.019  0.009  0.002  0.030
   26  0.019  0.009  0.002  0.030
   27  0.029  0.004  0.008  0.040
   28  0.018  0.002  0.000  0.021
   29  0.000  0.002  0.004  0.006
   30  0.000  0.002  0.004  0.006
   31  0.000  0.002  0.004  0.006
   32  0.000  0.002  0.004  0.006
   33  0.000  0.002  0.004  0.006
   34  0.000  0.002  0.004  0.006
   35  0.016  0.003  0.001  0.021
   36  0.000  0.000  0.000  0.000
   37  0.000  0.000  0.000  0.000
   38  0.000  0.000  0.000  0.000
tot    0.348  0.117  0.174  0.639
 
band    11 # energy   -5.53742539 # occ.  2.00000000
 
ion      s      p      d    tot
    1  0.004  0.000  0.000  0.005
    2  0.000  0.002  0.004  0.006
    3  0.000  0.002  0.004  0.006
    4  0.000  0.002  0.004  0.006
    5  0.019  0.004  0.001  0.024
    6  0.000  0.002  0.004  0.006
    7  0.000  0.002  0.004  0.006
    8  0.000  0.002  0.004  0.006
    9  0.010  0.001  0.001  0.011
   10  0.002  0.005  0.007  0.014
   11  0.032  0.009  0.002  0.043
   12  0.002  0.005  0.007  0.014
   13  0.032  0.009  0.002  0.043
   14  0.032  0.009  0.002  0.043
   15  0.015  0.000  0.012  0.027
   16  0.002  0.005  0.007  0.014
   17  0.015  0.000  0.012  0.027
   18  0.015  0.000  0.012  0.027
   19  0.011  0.000  0.011  0.022
   20  0.028  0.007  0.004  0.038
   21  0.028  0.007  0.004  0.039
   22  0.003  0.006  0.006  0.015
   23  0.028  0.007  0.004  0.039
   24  0.003  0.006  0.006  0.015
   25  0.011  0.000  0.011  0.022
   26  0.011  0.000  0.011  0.022
   27  0.003  0.006  0.006  0.015
   28  0.006  0.001  0.001  0.007
   29  0.000  0.002  0.004  0.006
   30  0.000  0.002  0.004  0.006
   31  0.000  0.002  0.004  0.006
   32  0.000  0.002  0.004  0.006
   33  0.000  0.002  0.004  0.006
   34  0.000  0.002  0.004  0.006
   35  0.004  0.001  0.000  0.005
   36  0.018  0.011  0.004  0.033
   37  0.002  0.014  0.000  0.015
   38  0.005  0.000  0.000  0.005
tot    0.340  0.134  0.186  0.660
 
band    12 # energy   -4.93778752 # occ.  2.00000000
 
ion      s      p      d    tot
    1  0.000  0.003  0.008  0.011
    2  0.015  0.003  0.004  0.022
    3  0.000  0.001  0.004  0.006
    4  0.015  0.003  0.004  0.022
    5  0.000  0.000  0.008  0.008
    6  0.011  0.003  0.004  0.018
    7  0.000  0.001  0.004  0.006
    8  0.011  0.003  0.004  0.018
    9  0.000  0.005  0.008  0.012
   10  0.000  0.005  0.010  0.016
   11  0.004  0.002  0.007  0.013
   12  0.007  0.002  0.007  0.016
   13  0.004  0.002  0.007  0.013
   14  0.000  0.002  0.014  0.016
   15  0.022  0.003  0.007  0.032
   16  0.007  0.002  0.007  0.016
   17  0.022  0.003  0.007  0.032
   18  0.000  0.000  0.018  0.019
   19  0.004  0.004  0.008  0.017
   20  0.000  0.002  0.018  0.020
   21  0.000  0.001  0.012  0.013
   22  0.005  0.003  0.008  0.016
   23  0.000  0.001  0.012  0.013
   24  0.000  0.001  0.027  0.028
   25  0.000  0.000  0.008  0.008
   26  0.004  0.004  0.008  0.017
   27  0.005  0.003  0.008  0.016
   28  0.000  0.003  0.005  0.009
   29  0.023  0.002  0.010  0.035
   30  0.000  0.002  0.011  0.013
   31  0.022  0.002  0.010  0.035
   32  0.018  0.002  0.011  0.030
   33  0.000  0.002  0.011  0.013
   34  0.018  0.002  0.011  0.030
   35  0.000  0.005  0.007  0.012
   36  0.000  0.000  0.099  0.100
   37  0.000  0.000  0.000  0.000
   38  0.000  0.000  0.000  0.000
tot    0.219  0.084  0.420  0.723
 
band    13 # energy   -4.93776404 # occ.  2.00000000
 
ion      s      p      d    tot
    1  0.000  0.003  0.008  0.011
    2  0.002  0.002  0.004  0.008
    3  0.017  0.003  0.004  0.025
    4  0.002  0.002  0.004  0.008
    5  0.000  0.000  0.008  0.008
    6  0.007  0.002  0.004  0.013
    7  0.017  0.003  0.004  0.025
    8  0.007  0.002  0.004  0.013
    9  0.000  0.005  0.008  0.012
   10  0.009  0.000  0.006  0.016
   11  0.001  0.002  0.012  0.015
   12  0.002  0.004  0.009  0.016
   13  0.001  0.002  0.012  0.015
   14  0.005  0.002  0.005  0.012
   15  0.007  0.001  0.015  0.023
   16  0.002  0.004  0.009  0.016
   17  0.007  0.001  0.015  0.023
   18  0.029  0.004  0.003  0.036
   19  0.001  0.002  0.008  0.011
   20  0.000  0.001  0.010  0.011
   21  0.000  0.002  0.016  0.018
   22  0.002  0.001  0.021  0.024
   23  0.000  0.002  0.016  0.018
   24  0.007  0.004  0.002  0.012
   25  0.006  0.006  0.008  0.020
   26  0.001  0.001  0.008  0.011
   27  0.002  0.001  0.021  0.024
   28  0.000  0.003  0.005  0.009
   29  0.005  0.002  0.011  0.017
   30  0.027  0.002  0.010  0.039
   31  0.005  0.002  0.011  0.017
   32  0.009  0.003  0.010  0.022
   33  0.027  0.002  0.010  0.039
   34  0.009  0.003  0.010  0.022
   35  0.000  0.005  0.007  0.012
   36  0.000  0.000  0.099  0.100
   37  0.000  0.000  0.000  0.000
   38  0.000  0.000  0.000  0.000
tot    0.219  0.084  0.420  0.723
 
band    14 # energy   -4.89772293 # occ.  2.00000000
 
ion      s      p      d    tot
    1  0.001  0.001  0.010  0.012
    2  0.006  0.001  0.010  0.017
    3  0.006  0.001  0.010  0.017
    4  0.006  0.001  0.010  0.017
    5  0.024  0.000  0.007  0.030
    6  0.006  0.001  0.010  0.017
    7  0.006  0.001  0.010  0.017
    8  0.006  0.001  0.010  0.017
    9  0.002  0.001  0.010  0.014
   10  0.011  0.000  0.021  0.032
   11  0.001  0.001  0.022  0.024
   12  0.011  0.000  0.021  0.032
   13  0.001  0.001  0.022  0.024
   14  0.001  0.001  0.022  0.024
   15  0.012  0.000  0.022  0.034
   16  0.011  0.000  0.021  0.032
   17  0.012  0.000  0.022  0.034
   18  0.012  0.000  0.022  0.034
   19  0.008  0.001  0.016  0.025
   20  0.002  0.000  0.021  0.022
   21  0.002  0.000  0.021  0.022
   22  0.005  0.001  0.015  0.020
   23  0.002  0.000  0.021  0.022
   24  0.005  0.001  0.015  0.020
   25  0.008  0.001  0.016  0.025
   26  0.008  0.001  0.016  0.025
   27  0.005  0.001  0.015  0.020
   28  0.001  0.001  0.004  0.006
   29  0.002  0.001  0.009  0.012
   30  0.002  0.001  0.009  0.012
   31  0.002  0.001  0.009  0.012
   32  0.002  0.001  0.009  0.012
   33  0.002  0.001  0.009  0.012
   34  0.002  0.001  0.009  0.012
   35  0.000  0.001  0.004  0.005
   36  0.030  0.000  0.036  0.065
   37  0.000  0.000  0.000  0.000
   38  0.000  0.000  0.000  0.000
tot    0.216  0.027  0.534  0.778
 
band    15 # energy   -4.84518795 # occ.  2.00000000
 
ion      s      p      d    tot
    1  0.000  0.003  0.010  0.013
    2  0.021  0.004  0.006  0.030
    3  0.001  0.002  0.005  0.008
    4  0.020  0.004  0.006  0.030
    5  0.000  0.006  0.010  0.016
    6  0.012  0.003  0.006  0.021
    7  0.001  0.002  0.005  0.008
    8  0.012  0.003  0.006  0.021
    9  0.000  0.001  0.012  0.013
   10  0.020  0.005  0.008  0.033
   11  0.006  0.003  0.020  0.028
   12  0.005  0.001  0.018  0.024
   13  0.005  0.003  0.020  0.028
   14  0.022  0.003  0.005  0.030
   15  0.000  0.003  0.014  0.017
   16  0.005  0.001  0.018  0.024
   17  0.000  0.003  0.014  0.018
   18  0.000  0.000  0.009  0.009
   19  0.001  0.002  0.018  0.020
   20  0.017  0.006  0.003  0.027
   21  0.004  0.002  0.022  0.028
   22  0.001  0.001  0.010  0.013
   23  0.004  0.002  0.022  0.028
   24  0.005  0.003  0.010  0.018
   25  0.002  0.000  0.005  0.008
   26  0.000  0.002  0.018  0.020
   27  0.001  0.001  0.010  0.013
   28  0.000  0.002  0.009  0.011
   29  0.014  0.003  0.006  0.024
   30  0.000  0.001  0.004  0.006
   31  0.014  0.003  0.006  0.023
   32  0.010  0.003  0.006  0.018
   33  0.001  0.001  0.004  0.006
   34  0.010  0.003  0.006  0.019
   35  0.000  0.001  0.008  0.009
   36  0.000  0.009  0.044  0.053
   37  0.000  0.001  0.000  0.001
   38  0.000  0.000  0.000  0.000
tot    0.216  0.097  0.403  0.716
 
band    16 # energy   -4.84513462 # occ.  2.00000000
 
ion      s      p      d    tot
    1  0.000  0.003  0.010  0.013
    2  0.002  0.002  0.005  0.009
    3  0.021  0.004  0.006  0.031
    4  0.002  0.002  0.005  0.010
    5  0.000  0.006  0.010  0.016
    6  0.011  0.003  0.005  0.019
    7  0.021  0.004  0.006  0.031
    8  0.010  0.003  0.005  0.018
    9  0.000  0.001  0.012  0.013
   10  0.000  0.000  0.021  0.021
   11  0.016  0.003  0.010  0.029
   12  0.016  0.004  0.011  0.030
   13  0.017  0.003  0.010  0.029
   14  0.000  0.003  0.025  0.027
   15  0.000  0.001  0.011  0.012
   16  0.015  0.003  0.011  0.030
   17  0.000  0.001  0.010  0.012
   18  0.000  0.004  0.016  0.020
   19  0.001  0.001  0.010  0.012
   20  0.000  0.001  0.028  0.029
   21  0.013  0.005  0.009  0.027
   22  0.004  0.002  0.010  0.017
   23  0.013  0.005  0.010  0.027
   24  0.000  0.001  0.010  0.011
   25  0.000  0.002  0.022  0.024
   26  0.002  0.001  0.009  0.012
   27  0.004  0.002  0.010  0.016
   28  0.000  0.002  0.009  0.011
   29  0.002  0.001  0.005  0.008
   30  0.016  0.004  0.006  0.026
   31  0.002  0.001  0.005  0.009
   32  0.007  0.002  0.005  0.014
   33  0.016  0.004  0.006  0.026
   34  0.006  0.002  0.005  0.013
   35  0.000  0.001  0.008  0.009
   36  0.000  0.009  0.044  0.053
   37  0.000  0.001  0.000  0.001
   38  0.000  0.000  0.000  0.000
tot    0.216  0.097  0.403  0.716
 
band    17 # energy   -4.81479596 # occ.  2.00000000
 
ion      s      p      d    tot
    1  0.035  0.003  0.000  0.039
    2  0.000  0.003  0.010  0.013
    3  0.000  0.003  0.010  0.013
    4  0.000  0.003  0.010  0.013
    5  0.000  0.000  0.000  0.000
    6  0.000  0.003  0.010  0.013
    7  0.000  0.003  0.010  0.013
    8  0.000  0.003  0.010  0.013
    9  0.029  0.003  0.001  0.033
   10  0.009  0.004  0.011  0.024
   11  0.001  0.000  0.015  0.016
   12  0.009  0.004  0.011  0.024
   13  0.001  0.000  0.015  0.016
   14  0.001  0.000  0.015  0.016
   15  0.007  0.003  0.017  0.027
   16  0.009  0.004  0.011  0.024
   17  0.007  0.003  0.017  0.027
   18  0.007  0.003  0.017  0.027
   19  0.005  0.004  0.019  0.027
   20  0.000  0.000  0.014  0.014
   21  0.000  0.000  0.014  0.014
   22  0.010  0.004  0.010  0.024
   23  0.000  0.000  0.014  0.014
   24  0.010  0.004  0.010  0.024
   25  0.005  0.004  0.019  0.027
   26  0.005  0.004  0.019  0.027
   27  0.010  0.004  0.010  0.024
   28  0.038  0.003  0.000  0.042
   29  0.000  0.003  0.010  0.014
   30  0.000  0.003  0.010  0.014
   31  0.000  0.003  0.010  0.014
   32  0.000  0.003  0.010  0.014
   33  0.000  0.003  0.010  0.014
   34  0.000  0.003  0.010  0.014
   35  0.028  0.004  0.001  0.033
   36  0.000  0.000  0.000  0.000
   37  0.000  0.000  0.000  0.000
   38  0.000  0.000  0.000  0.000
tot    0.231  0.095  0.378  0.704
 
band    18 # energy   -4.77179466 # occ.  2.00000000
 
ion      s      p      d    tot
    1  0.013  0.000  0.001  0.014
    2  0.001  0.002  0.010  0.013
    3  0.001  0.002  0.010  0.013
    4  0.001  0.002  0.010  0.013
    5  0.024  0.005  0.003  0.032
    6  0.001  0.002  0.010  0.013
    7  0.001  0.002  0.010  0.013
    8  0.001  0.002  0.010  0.013
    9  0.015  0.001  0.000  0.016
   10  0.000  0.001  0.021  0.022
   11  0.014  0.004  0.015  0.033
   12  0.000  0.001  0.021  0.022
   13  0.014  0.004  0.015  0.033
   14  0.014  0.004  0.015  0.033
   15  0.001  0.001  0.011  0.013
   16  0.000  0.001  0.021  0.022
   17  0.001  0.001  0.011  0.013
   18  0.001  0.001  0.011  0.013
   19  0.001  0.001  0.013  0.014
   20  0.016  0.003  0.010  0.030
   21  0.016  0.003  0.010  0.030
   22  0.000  0.001  0.023  0.024
   23  0.016  0.003  0.010  0.030
   24  0.000  0.001  0.023  0.024
   25  0.001  0.001  0.013  0.014
   26  0.001  0.001  0.013  0.014
   27  0.000  0.001  0.023  0.024
   28  0.011  0.000  0.000  0.012
   29  0.001  0.003  0.012  0.015
   30  0.001  0.003  0.012  0.015
   31  0.001  0.003  0.012  0.015
   32  0.001  0.003  0.012  0.015
   33  0.001  0.003  0.012  0.015
   34  0.001  0.003  0.012  0.015
   35  0.022  0.001  0.001  0.024
   36  0.029  0.015  0.001  0.045
   37  0.002  0.010  0.000  0.012
   38  0.004  0.000  0.000  0.004
tot    0.224  0.098  0.417  0.739
 
band    19 # energy   -4.33940187 # occ.  2.00000000
 
ion      s      p      d    tot
    1  0.000  0.001  0.021  0.022
    2  0.015  0.002  0.006  0.023
    3  0.005  0.001  0.006  0.012
    4  0.015  0.002  0.006  0.023
    5  0.000  0.001  0.012  0.013
    6  0.003  0.001  0.006  0.010
    7  0.005  0.001  0.006  0.012
    8  0.003  0.001  0.006  0.010
    9  0.000  0.003  0.003  0.007
   10  0.000  0.000  0.056  0.056
   11  0.000  0.003  0.014  0.017
   12  0.000  0.000  0.018  0.018
   13  0.000  0.003  0.014  0.017
   14  0.000  0.000  0.003  0.003
   15  0.000  0.005  0.014  0.020
   16  0.000  0.000  0.017  0.017
   17  0.000  0.005  0.015  0.020
   18  0.000  0.000  0.026  0.026
   19  0.010  0.002  0.009  0.020
   20  0.000  0.000  0.046  0.047
   21  0.000  0.000  0.020  0.021
   22  0.005  0.001  0.015  0.021
   23  0.000  0.000  0.020  0.020
   24  0.000  0.001  0.004  0.005
   25  0.000  0.000  0.025  0.025
   26  0.009  0.001  0.010  0.020
   27  0.005  0.001  0.015  0.021
   28  0.000  0.000  0.005  0.005
   29  0.004  0.001  0.021  0.026
   30  0.000  0.001  0.015  0.016
   31  0.004  0.001  0.021  0.026
   32  0.006  0.001  0.019  0.026
   33  0.000  0.001  0.015  0.016
   34  0.006  0.001  0.019  0.025
   35  0.000  0.000  0.004  0.005
   36  0.000  0.000  0.148  0.148
   37  0.000  0.000  0.000  0.000
   38  0.000  0.000  0.000  0.000
tot    0.095  0.042  0.683  0.819
 
band    20 # energy   -4.33936557 # occ.  2.00000000
 
ion      s      p      d    tot
    1  0.000  0.001  0.021  0.022
    2  0.000  0.001  0.006  0.007
    3  0.010  0.002  0.006  0.018
    4  0.000  0.001  0.006  0.007
    5  0.000  0.001  0.012  0.013
    6  0.012  0.002  0.006  0.020
    7  0.011  0.002  0.006  0.018
    8  0.013  0.002  0.006  0.020
    9  0.000  0.003  0.003  0.007
   10  0.000  0.000  0.004  0.005
   11  0.000  0.001  0.006  0.007
   12  0.000  0.000  0.043  0.043
   13  0.000  0.001  0.007  0.008
   14  0.000  0.004  0.018  0.022
   15  0.000  0.002  0.023  0.024
   16  0.000  0.000  0.044  0.044
   17  0.000  0.002  0.022  0.024
   18  0.000  0.007  0.011  0.017
   19  0.003  0.001  0.020  0.023
   20  0.000  0.000  0.011  0.012
   21  0.000  0.000  0.037  0.038
   22  0.002  0.001  0.008  0.011
   23  0.000  0.000  0.038  0.038
   24  0.007  0.001  0.018  0.026
   25  0.013  0.002  0.004  0.019
   26  0.003  0.001  0.019  0.023
   27  0.002  0.001  0.008  0.010
   28  0.000  0.000  0.005  0.005
   29  0.003  0.001  0.016  0.019
   30  0.007  0.001  0.022  0.029
   31  0.002  0.001  0.016  0.019
   32  0.001  0.001  0.018  0.020
   33  0.007  0.001  0.022  0.029
   34  0.001  0.001  0.018  0.020
   35  0.000  0.000  0.004  0.005
   36  0.000  0.000  0.148  0.148
   37  0.000  0.000  0.000  0.000
   38  0.000  0.000  0.000  0.000
tot    0.095  0.042  0.683  0.819
 
band    21 # energy   -4.17221170 # occ.  2.00000000
 
ion      s      p      d    tot
    1  0.019  0.001  0.000  0.020
    2  0.000  0.001  0.014  0.015
    3  0.000  0.001  0.014  0.015
    4  0.000  0.001  0.014  0.015
    5  0.021  0.001  0.002  0.023
    6  0.000  0.001  0.014  0.015
    7  0.000  0.001  0.014  0.015
    8  0.000  0.001  0.014  0.015
    9  0.000  0.000  0.000  0.000
   10  0.000  0.001  0.028  0.029
   11  0.000  0.003  0.028  0.031
   12  0.000  0.001  0.028  0.029
   13  0.000  0.003  0.028  0.031
   14  0.000  0.003  0.028  0.031
   15  0.000  0.001  0.004  0.005
   16  0.000  0.001  0.028  0.029