PROCAR new format
# of k-points:   10         # of bands:  252         # of ions:   38

 k-point     1 :    0.00000000 0.00000000 0.00000000     weight = 0.01562500

band     1 # energy  -19.74596767 # occ.  2.00000000
 
ion      s      p      d    tot
    1  0.000  0.000  0.000  0.000
    2  0.000  0.000  0.000  0.000
    3  0.000  0.000  0.000  0.000
    4  0.000  0.000  0.000  0.000
    5  0.000  0.000  0.000  0.000
    6  0.000  0.000  0.000  0.000
    7  0.000  0.000  0.000  0.000
    8  0.000  0.000  0.000  0.000
    9  0.000  0.000  0.000  0.000
   10  0.000  0.000  0.000  0.000
   11  0.000  0.000  0.000  0.000
   12  0.000  0.000  0.000  0.000
   13  0.000  0.000  0.000  0.000
   14  0.000  0.000  0.000  0.000
   15  0.000  0.000  0.000  0.000
   16  0.000  0.000  0.000  0.000
   17  0.000  0.000  0.000  0.000
   18  0.000  0.000  0.000  0.000
   19  0.000  0.000  0.000  0.000
   20  0.000  0.000  0.000  0.000
   21  0.000  0.000  0.000  0.000
   22  0.000  0.000  0.000  0.000
   23  0.000  0.000  0.000  0.000
   24  0.000  0.000  0.000  0.000
   25  0.000  0.000  0.000  0.000
   26  0.000  0.000  0.000  0.000
   27  0.000  0.000  0.000  0.000
   28  0.000  0.000  0.000  0.000
   29  0.000  0.000  0.000  0.000
   30  0.000  0.000  0.000  0.000
   31  0.000  0.000  0.000  0.000
   32  0.000  0.000  0.000  0.000
   33  0.000  0.000  0.000  0.000
   34  0.000  0.000  0.000  0.000
   35  0.000  0.000  0.000  0.000
   36  0.014  0.021  0.022  0.057
   37  0.744  0.016  0.000  0.760
   38  0.116  0.024  0.000  0.140
tot    0.874  0.061  0.022  0.958
 
band     2 # energy   -8.12697306 # occ.  2.00000000
 
ion      s      p      d    tot
    1  0.000  0.000  0.000  0.000
    2  0.000  0.000  0.000  0.000
    3  0.000  0.000  0.000  0.000
    4  0.000  0.000  0.000  0.000
    5  0.000  0.000  0.000  0.000
    6  0.000  0.000  0.000  0.000
    7  0.000  0.000  0.000  0.000
    8  0.000  0.000  0.000  0.000
    9  0.000  0.000  0.000  0.000
   10  0.000  0.000  0.000  0.000
   11  0.000  0.000  0.000  0.000
   12  0.000  0.000  0.000  0.000
   13  0.000  0.000  0.000  0.000
   14  0.000  0.000  0.000  0.000
   15  0.000  0.000  0.000  0.000
   16  0.000  0.000  0.000  0.000
   17  0.000  0.000  0.000  0.000
   18  0.000  0.000  0.000  0.000
   19  0.000  0.000  0.000  0.000
   20  0.001  0.000  0.001  0.001
   21  0.001  0.000  0.001  0.001
   22  0.000  0.000  0.000  0.000
   23  0.001  0.000  0.001  0.001
   24  0.000  0.000  0.000  0.000
   25  0.000  0.000  0.000  0.000
   26  0.000  0.000  0.000  0.000
   27  0.000  0.000  0.000  0.000
   28  0.000  0.000  0.000  0.000
   29  0.000  0.000  0.000  0.001
   30  0.000  0.000  0.000  0.001
   31  0.000  0.000  0.000  0.001
   32  0.000  0.000  0.000  0.001
   33  0.000  0.000  0.000  0.001
   34  0.000  0.000  0.000  0.001
   35  0.000  0.000  0.000  0.000
   36  0.066  0.058  0.129  0.253
   37  0.028  0.539  0.000  0.568
   38  0.179  0.018  0.000  0.197
tot    0.277  0.617  0.133  1.027
 
band     3 # energy   -6.05968100 # occ.  2.00000000
 
ion      s      p      d    tot
    1  0.006  0.001  0.000  0.007
    2  0.006  0.001  0.000  0.007
    3  0.006  0.001  0.000  0.007
    4  0.006  0.001  0.000  0.007
    5  0.006  0.001  0.000  0.007
    6  0.006  0.001  0.000  0.007
    7  0.006  0.001  0.000  0.007
    8  0.006  0.001  0.000  0.007
    9  0.006  0.001  0.000  0.007
   10  0.024  0.000  0.000  0.025
   11  0.024  0.000  0.000  0.025
   12  0.024  0.000  0.000  0.025
   13  0.024  0.000  0.000  0.025
   14  0.024  0.000  0.000  0.025
   15  0.024  0.000  0.000  0.024
   16  0.024  0.000  0.000  0.025
   17  0.024  0.000  0.000  0.024
   18  0.024  0.000  0.000  0.024
   19  0.022  0.000  0.000  0.023
   20  0.023  0.000  0.000  0.024
   21  0.023  0.000  0.000  0.024
   22  0.023  0.000  0.000  0.023
   23  0.023  0.000  0.000  0.024
   24  0.023  0.000  0.000  0.023
   25  0.022  0.000  0.000  0.023
   26  0.022  0.000  0.000  0.023
   27  0.023  0.000  0.000  0.023
   28  0.005  0.001  0.000  0.006
   29  0.005  0.001  0.000  0.005
   30  0.005  0.001  0.000  0.005
   31  0.005  0.001  0.000  0.005
   32  0.005  0.001  0.000  0.005
   33  0.005  0.001  0.000  0.005
   34  0.005  0.001  0.000  0.005
   35  0.005  0.001  0.000  0.006
   36  0.003  0.003  0.001  0.007
   37  0.000  0.002  0.000  0.002
   38  0.001  0.000  0.000  0.001
tot    0.521  0.017  0.008  0.546
 
band     4 # energy   -5.18964079 # occ.  2.00000000
 
ion      s      p      d    tot
    1  0.008  0.000  0.000  0.008
    2  0.007  0.000  0.000  0.008
    3  0.007  0.000  0.000  0.008
    4  0.007  0.000  0.000  0.008
    5  0.007  0.000  0.000  0.008
    6  0.007  0.000  0.000  0.008
    7  0.007  0.000  0.000  0.008
    8  0.007  0.000  0.000  0.008
    9  0.008  0.000  0.000  0.008
   10  0.011  0.001  0.016  0.027
   11  0.010  0.001  0.015  0.026
   12  0.011  0.001  0.016  0.027
   13  0.010  0.001  0.015  0.026
   14  0.010  0.001  0.015  0.026
   15  0.010  0.001  0.015  0.026
   16  0.011  0.001  0.016  0.027
   17  0.010  0.001  0.015  0.026
   18  0.010  0.001  0.015  0.026
   19  0.013  0.001  0.018  0.031
   20  0.013  0.001  0.021  0.035
   21  0.013  0.001  0.021  0.035
   22  0.013  0.001  0.017  0.031
   23  0.013  0.001  0.021  0.035
   24  0.013  0.001  0.017  0.031
   25  0.013  0.001  0.018  0.031
   26  0.013  0.001  0.018  0.031
   27  0.013  0.001  0.017  0.031
   28  0.007  0.000  0.000  0.007
   29  0.006  0.000  0.000  0.006
   30  0.006  0.000  0.000  0.006
   31  0.006  0.000  0.000  0.006
   32  0.006  0.000  0.000  0.006
   33  0.006  0.000  0.000  0.006
   34  0.006  0.000  0.000  0.006
   35  0.006  0.000  0.000  0.007
   36  0.003  0.002  0.001  0.006
   37  0.000  0.001  0.000  0.001
   38  0.000  0.000  0.000  0.000
tot    0.328  0.026  0.309  0.663
 
band     5 # energy   -4.90938266 # occ.  2.00000000
 
ion      s      p      d    tot
    1  0.017  0.000  0.028  0.045
    2  0.016  0.000  0.026  0.042
    3  0.016  0.000  0.026  0.042
    4  0.016  0.000  0.026  0.042
    5  0.015  0.000  0.026  0.041
    6  0.016  0.000  0.026  0.042
    7  0.016  0.000  0.026  0.042
    8  0.016  0.000  0.026  0.042
    9  0.017  0.000  0.026  0.043
   10  0.000  0.001  0.023  0.023
   11  0.001  0.001  0.021  0.022
   12  0.000  0.001  0.022  0.023
   13  0.001  0.001  0.021  0.022
   14  0.001  0.001  0.021  0.022
   15  0.000  0.001  0.021  0.022
   16  0.000  0.001  0.022  0.023
   17  0.000  0.001  0.021  0.022
   18  0.000  0.001  0.021  0.022
   19  0.000  0.000  0.006  0.007
   20  0.000  0.000  0.010  0.010
   21  0.000  0.000  0.010  0.010
   22  0.000  0.000  0.009  0.009
   23  0.000  0.000  0.010  0.010
   24  0.000  0.000  0.009  0.009
   25  0.000  0.000  0.006  0.007
   26  0.000  0.000  0.006  0.007
   27  0.000  0.000  0.009  0.009
   28  0.005  0.000  0.006  0.011
   29  0.005  0.000  0.006  0.011
   30  0.005  0.000  0.006  0.011
   31  0.005  0.000  0.006  0.011
   32  0.005  0.000  0.006  0.011
   33  0.005  0.000  0.006  0.011
   34  0.005  0.000  0.006  0.011
   35  0.006  0.000  0.006  0.012
   36  0.003  0.000  0.003  0.006
   37  0.000  0.000  0.000  0.000
   38  0.000  0.000  0.000  0.000
tot    0.198  0.007  0.555  0.760
 
band     6 # energy   -4.80670259 # occ.  2.00000000
 
ion      s      p      d    tot
    1  0.004  0.001  0.004  0.009
    2  0.000  0.000  0.004  0.004
    3  0.000  0.000  0.004  0.004
    4  0.000  0.000  0.004  0.004
    5  0.001  0.000  0.000  0.001
    6  0.000  0.000  0.004  0.004
    7  0.000  0.000  0.004  0.004
    8  0.000  0.000  0.004  0.004
    9  0.001  0.001  0.002  0.004
   10  0.005  0.000  0.048  0.053
   11  0.001  0.001  0.022  0.024
   12  0.005  0.000  0.048  0.053
   13  0.001  0.001  0.022  0.024
   14  0.001  0.001  0.022  0.024
   15  0.010  0.001  0.012  0.024
   16  0.005  0.000  0.048  0.053
   17  0.010  0.001  0.012  0.024
   18  0.010  0.001  0.013  0.024
   19  0.001  0.001  0.029  0.031
   20  0.007  0.000  0.076  0.084
   21  0.007  0.000  0.076  0.084
   22  0.013  0.001  0.013  0.027
   23  0.007  0.000  0.076  0.084
   24  0.013  0.001  0.013  0.027
   25  0.001  0.001  0.029  0.031
   26  0.001  0.001  0.029  0.031
   27  0.013  0.001  0.013  0.027
   28  0.000  0.000  0.001  0.001
   29  0.000  0.000  0.005  0.005
   30  0.000  0.000  0.005  0.005
   31  0.000  0.000  0.005  0.005
   32  0.000  0.000  0.005  0.005
   33  0.000  0.000  0.005  0.005
   34  0.000  0.000  0.005  0.005
   35  0.002  0.001  0.003  0.006
   36  0.003  0.004  0.000  0.007
   37  0.000  0.001  0.000  0.001
   38  0.000  0.000  0.000  0.000
tot    0.124  0.020  0.665  0.809
 
band     7 # energy   -4.78857982 # occ.  2.00000000
 
ion      s      p      d    tot
    1  0.000  0.000  0.006  0.006
    2  0.000  0.000  0.002  0.002
    3  0.001  0.000  0.004  0.005
    4  0.000  0.000  0.002  0.002
    5  0.000  0.000  0.001  0.001
    6  0.001  0.000  0.004  0.006
    7  0.001  0.000  0.004  0.005
    8  0.001  0.000  0.004  0.006
    9  0.000  0.000  0.007  0.007
   10  0.000  0.001  0.014  0.016
   11  0.000  0.000  0.030  0.030
   12  0.011  0.001  0.027  0.038
   13  0.000  0.000  0.029  0.030
   14  0.000  0.001  0.049  0.050
   15  0.014  0.001  0.022  0.037
   16  0.011  0.001  0.027  0.038
   17  0.014  0.001  0.022  0.037
   18  0.000  0.000  0.066  0.066
   19  0.017  0.001  0.024  0.043
   20  0.000  0.000  0.093  0.093
   21  0.007  0.000  0.033  0.040
   22  0.002  0.001  0.031  0.034
   23  0.007  0.000  0.033  0.041
   24  0.000  0.001  0.021  0.022
   25  0.000  0.001  0.042  0.042
   26  0.017  0.001  0.024  0.043
   27  0.002  0.001  0.031  0.033
   28  0.000  0.000  0.006  0.006
   29  0.001  0.000  0.005  0.006
   30  0.000  0.000  0.002  0.003
   31  0.001  0.000  0.005  0.006
   32  0.000  0.000  0.003  0.003
   33  0.000  0.000  0.002  0.003
   34  0.000  0.000  0.003  0.003
   35  0.000  0.000  0.002  0.002
   36  0.000  0.000  0.002  0.002
   37  0.000  0.001  0.000  0.001
   38  0.000  0.000  0.000  0.000
tot    0.110  0.016  0.683  0.809
 
band     8 # energy   -4.78857516 # occ.  2.00000000
 
ion      s      p      d    tot
    1  0.000  0.000  0.006  0.006
    2  0.001  0.000  0.005  0.006
    3  0.000  0.000  0.003  0.004
    4  0.001  0.000  0.005  0.006
    5  0.000  0.000  0.001  0.001
    6  0.000  0.000  0.002  0.003
    7  0.000  0.000  0.003  0.004
    8  0.000  0.000  0.003  0.003
    9  0.000  0.000  0.007  0.007
   10  0.015  0.000  0.031  0.046
   11  0.000  0.001  0.043  0.044
   12  0.003  0.001  0.018  0.023
   13  0.000  0.001  0.043  0.044
   14  0.000  0.000  0.023  0.023
   15  0.005  0.000  0.051  0.056
   16  0.003  0.001  0.018  0.023
   17  0.005  0.000  0.051  0.056
   18  0.019  0.001  0.008  0.027
   19  0.006  0.001  0.036  0.043
   20  0.009  0.001  0.014  0.023
   21  0.002  0.000  0.073  0.076
   22  0.001  0.001  0.024  0.026
   23  0.002  0.000  0.073  0.075
   24  0.003  0.000  0.035  0.038
   25  0.023  0.001  0.019  0.043
   26  0.006  0.001  0.036  0.043
   27  0.001  0.001  0.024  0.026
   28  0.000  0.000  0.006  0.006
   29  0.000  0.000  0.002  0.002
   30  0.001  0.000  0.004  0.005
   31  0.000  0.000  0.002  0.002
   32  0.001  0.000  0.004  0.005
   33  0.001  0.000  0.004  0.005
   34  0.001  0.000  0.004  0.005
   35  0.000  0.000  0.002  0.002
   36  0.000  0.000  0.002  0.002
   37  0.000  0.001  0.000  0.001
   38  0.000  0.000  0.000  0.000
tot    0.110  0.016  0.683  0.809
 
band     9 # energy   -4.78731441 # occ.  2.00000000
 
ion      s      p      d    tot
    1  0.001  0.000  0.000  0.001
    2  0.000  0.000  0.006  0.006
    3  0.000  0.000  0.006  0.006
    4  0.000  0.000  0.006  0.006
    5  0.005  0.001  0.004  0.010
    6  0.000  0.000  0.006  0.006
    7  0.000  0.000  0.006  0.006
    8  0.000  0.000  0.006  0.006
    9  0.001  0.000  0.006  0.007
   10  0.008  0.001  0.005  0.014
   11  0.014  0.001  0.039  0.054
   12  0.008  0.001  0.005  0.014
   13  0.014  0.001  0.039  0.054
   14  0.014  0.001  0.040  0.054
   15  0.001  0.000  0.057  0.058
   16  0.008  0.001  0.005  0.014
   17  0.001  0.000  0.057  0.058
   18  0.001  0.000  0.057  0.058
   19  0.012  0.001  0.025  0.037
   20  0.005  0.001  0.015  0.021
   21  0.005  0.001  0.015  0.021
   22  0.001  0.000  0.049  0.050
   23  0.005  0.001  0.015  0.021
   24  0.001  0.000  0.048  0.049
   25  0.012  0.001  0.024  0.037
   26  0.012  0.001  0.025  0.037
   27  0.001  0.000  0.049  0.050
   28  0.004  0.001  0.004  0.008
   29  0.000  0.000  0.004  0.004
   30  0.000  0.000  0.004  0.004
   31  0.000  0.000  0.004  0.004
   32  0.000  0.000  0.004  0.004
   33  0.000  0.000  0.004  0.004
   34  0.000  0.000  0.004  0.004
   35  0.002  0.000  0.004  0.006
   36  0.000  0.000  0.000  0.000
   37  0.000  0.000  0.000  0.000
   38  0.000  0.000  0.000  0.000
tot    0.135  0.017  0.645  0.798
 
band    10 # energy   -4.78437005 # occ.  2.00000000
 
ion      s      p      d    tot
    1  0.000  0.000  0.005  0.005
    2  0.000  0.000  0.003  0.003
    3  0.001  0.000  0.006  0.007
    4  0.000  0.000  0.003  0.003
    5  0.000  0.000  0.010  0.010
    6  0.002  0.001  0.005  0.008
    7  0.001  0.000  0.005  0.006
    8  0.002  0.001  0.005  0.007
    9  0.000  0.000  0.001  0.001
   10  0.009  0.001  0.010  0.020
   11  0.010  0.001  0.047  0.057
   12  0.002  0.000  0.071  0.073
   13  0.005  0.001  0.054  0.060
   14  0.030  0.001  0.016  0.046
   15  0.002  0.001  0.019  0.022
   16  0.003  0.000  0.059  0.063
   17  0.001  0.001  0.015  0.017
   18  0.006  0.000  0.036  0.042
   19  0.000  0.001  0.026  0.026
   20  0.018  0.001  0.027  0.046
   21  0.003  0.001  0.027  0.031
   22  0.003  0.000  0.054  0.058
   23  0.006  0.001  0.027  0.034
   24  0.017  0.001  0.005  0.023
   25  0.000  0.000  0.022  0.022
   26  0.000  0.001  0.026  0.027
   27  0.006  0.000  0.045  0.051
   28  0.000  0.000  0.000  0.000
   29  0.002  0.000  0.004  0.006
   30  0.000  0.000  0.003  0.003
   31  0.002  0.000  0.004  0.006
   32  0.000  0.000  0.002  0.002
   33  0.001  0.000  0.003  0.004
   34  0.000  0.000  0.002  0.003
   35  0.000  0.000  0.006  0.007
   36  0.000  0.000  0.001  0.001
   37  0.000  0.000  0.000  0.000
   38  0.000  0.000  0.000  0.000
tot    0.130  0.017  0.653  0.800
 
band    11 # energy   -4.78436918 # occ.  2.00000000
 
ion      s      p      d    tot
    1  0.000  0.000  0.005  0.005
    2  0.002  0.001  0.006  0.008
    3  0.001  0.000  0.003  0.004
    4  0.002  0.001  0.006  0.008
    5  0.000  0.000  0.010  0.010
    6  0.000  0.000  0.003  0.004
    7  0.001  0.000  0.003  0.005
    8  0.000  0.000  0.004  0.004
    9  0.000  0.000  0.001  0.001
   10  0.000  0.000  0.083  0.084
   11  0.020  0.001  0.031  0.052
   12  0.007  0.001  0.023  0.031
   13  0.025  0.001  0.024  0.049
   14  0.000  0.001  0.062  0.063
   15  0.004  0.001  0.028  0.032
   16  0.006  0.000  0.034  0.041
   17  0.005  0.000  0.032  0.037
   18  0.000  0.002  0.010  0.012
   19  0.000  0.000  0.024  0.024
   20  0.000  0.001  0.027  0.028
   21  0.015  0.001  0.027  0.043
   22  0.014  0.001  0.015  0.030
   23  0.012  0.001  0.027  0.040
   24  0.000  0.000  0.065  0.065
   25  0.000  0.001  0.027  0.028
   26  0.000  0.000  0.023  0.023
   27  0.011  0.001  0.025  0.037
   28  0.000  0.000  0.000  0.000
   29  0.000  0.000  0.002  0.002
   30  0.001  0.000  0.003  0.005
   31  0.000  0.000  0.002  0.002
   32  0.001  0.000  0.004  0.006
   33  0.001  0.000  0.003  0.004
   34  0.001  0.000  0.004  0.006
   35  0.000  0.000  0.006  0.007
   36  0.000  0.000  0.001  0.001
   37  0.000  0.000  0.000  0.000
   38  0.000  0.000  0.000  0.000
tot    0.130  0.017  0.653  0.800
 
band    12 # energy   -4.76642297 # occ.  2.00000000
 
ion      s      p      d    tot
    1  0.000  0.001  0.015  0.016
    2  0.000  0.000  0.009  0.009
    3  0.000  0.000  0.009  0.009
    4  0.000  0.000  0.009  0.009
    5  0.001  0.000  0.003  0.004
    6  0.000  0.000  0.009  0.009
    7  0.000  0.000  0.009  0.009
    8  0.000  0.000  0.009  0.009
    9  0.007  0.001  0.000  0.008
   10  0.004  0.000  0.050  0.055
   11  0.000  0.000  0.058  0.058
   12  0.004  0.000  0.050  0.055
   13  0.000  0.000  0.058  0.058
   14  0.000  0.000  0.058  0.058
   15  0.005  0.000  0.008  0.012
   16  0.004  0.000  0.050  0.055
   17  0.005  0.000  0.008  0.012
   18  0.005  0.000  0.008  0.012
   19  0.002  0.000  0.009  0.011
   20  0.001  0.000  0.049  0.050
   21  0.001  0.000  0.049  0.050
   22  0.002  0.000  0.036  0.038
   23  0.001  0.000  0.049  0.050
   24  0.002  0.000  0.036  0.038
   25  0.002  0.000  0.009  0.011
   26  0.002  0.000  0.009  0.011
   27  0.002  0.000  0.036  0.038
   28  0.007  0.001  0.000  0.008
   29  0.001  0.000  0.010  0.011
   30  0.000  0.000  0.010  0.011
   31  0.001  0.000  0.010  0.011
   32  0.000  0.000  0.010  0.011
   33  0.000  0.000  0.010  0.011
   34  0.000  0.000  0.010  0.011
   35  0.000  0.000  0.012  0.012
   36  0.001  0.000  0.001  0.002
   37  0.000  0.000  0.000  0.000
   38  0.000  0.000  0.000  0.000
tot    0.062  0.007  0.772  0.842
 
band    13 # energy   -4.74857511 # occ.  2.00000000
 
ion      s      p      d    tot
    1  0.000  0.000  0.018  0.018
    2  0.001  0.000  0.010  0.011
    3  0.003  0.001  0.005  0.009
    4  0.000  0.000  0.010  0.011
    5  0.000  0.000  0.009  0.009
    6  0.001  0.000  0.009  0.010
    7  0.003  0.001  0.005  0.009
    8  0.001  0.000  0.009  0.010
    9  0.000  0.000  0.006  0.007
   10  0.009  0.000  0.030  0.039
   11  0.000  0.000  0.022  0.023
   12  0.002  0.000  0.050  0.052
   13  0.000  0.000  0.023  0.023
   14  0.000  0.000  0.042  0.042
   15  0.002  0.000  0.068  0.071
   16  0.002  0.000  0.050  0.052
   17  0.003  0.000  0.068  0.070
   18  0.010  0.000  0.006  0.017
   19  0.001  0.000  0.032  0.033
   20  0.007  0.000  0.007  0.014
   21  0.002  0.000  0.054  0.056
   22  0.000  0.000  0.023  0.023
   23  0.002  0.000  0.054  0.056
   24  0.001  0.000  0.029  0.030
   25  0.003  0.000  0.030  0.033
   26  0.001  0.000  0.032  0.033
   27  0.000  0.000  0.023  0.023
   28  0.000  0.000  0.012  0.012
   29  0.002  0.000  0.004  0.007
   30  0.000  0.000  0.006  0.007
   31  0.002  0.000  0.004  0.007
   32  0.002  0.000  0.005  0.007
   33  0.000  0.000  0.006  0.007
   34  0.002  0.000  0.005  0.007
   35  0.000  0.000  0.005  0.005
   36  0.000  0.001  0.001  0.001
   37  0.000  0.000  0.000  0.000
   38  0.000  0.000  0.000  0.000
tot    0.061  0.008  0.772  0.841
 
band    14 # energy   -4.74857223 # occ.  2.00000000
 
ion      s      p      d    tot
    1  0.000  0.000  0.018  0.018
    2  0.003  0.000  0.006  0.009
    3  0.000  0.000  0.010  0.011
    4  0.003  0.000  0.006  0.009
    5  0.000  0.000  0.009  0.009
    6  0.002  0.001  0.007  0.010
    7  0.000  0.000  0.010  0.011
    8  0.002  0.001  0.007  0.010
    9  0.000  0.000  0.006  0.007
   10  0.000  0.000  0.057  0.057
   11  0.000  0.000  0.036  0.036
   12  0.006  0.000  0.036  0.043
   13  0.000  0.000  0.036  0.036
   14  0.000  0.000  0.016  0.016
   15  0.008  0.000  0.027  0.034
   16  0.007  0.000  0.036  0.043
   17  0.008  0.000  0.027  0.035
   18  0.000  0.000  0.089  0.089
   19  0.002  0.000  0.031  0.033
   20  0.000  0.000  0.070  0.070
   21  0.005  0.000  0.023  0.028
   22  0.001  0.000  0.027  0.028
   23  0.005  0.000  0.023  0.028
   24  0.000  0.000  0.021  0.021
   25  0.000  0.000  0.033  0.033
   26  0.002  0.000  0.031  0.033
   27  0.001  0.000  0.027  0.028
   28  0.000  0.000  0.012  0.012
   29  0.000  0.000  0.006  0.007
   30  0.003  0.000  0.004  0.007
   31  0.000  0.000  0.006  0.007
   32  0.001  0.000  0.005  0.007
   33  0.003  0.000  0.004  0.007
   34  0.001  0.000  0.005  0.007
   35  0.000  0.000  0.005  0.005
   36  0.000  0.001  0.001  0.001
   37  0.000  0.000  0.000  0.000
   38  0.000  0.000  0.000  0.000
tot    0.061  0.008  0.772  0.841
 
band    15 # energy   -4.74715092 # occ.  2.00000000
 
ion      s      p      d    tot
    1  0.004  0.000  0.001  0.005
    2  0.000  0.000  0.010  0.010
    3  0.000  0.000  0.010  0.010
    4  0.000  0.000  0.010  0.010
    5  0.002  0.000  0.001  0.003
    6  0.000  0.000  0.010  0.010
    7  0.000  0.000  0.010  0.010
    8  0.000  0.000  0.010  0.010
    9  0.001  0.000  0.010  0.011
   10  0.001  0.000  0.039  0.040
   11  0.002  0.000  0.006  0.009
   12  0.001  0.000  0.039  0.040
   13  0.002  0.000  0.006  0.009
   14  0.002  0.000  0.006  0.009
   15  0.001  0.000  0.057  0.059
   16  0.001  0.000  0.039  0.040
   17  0.001  0.000  0.057  0.059
   18  0.001  0.000  0.058  0.059
   19  0.002  0.000  0.061  0.063
   20  0.005  0.000  0.017  0.022
   21  0.005  0.000  0.017  0.022
   22  0.001  0.000  0.040  0.041
   23  0.004  0.000  0.017  0.022
   24  0.001  0.000  0.039  0.040
   25  0.002  0.000  0.061  0.063
   26  0.002  0.000  0.061  0.063
   27  0.001  0.000  0.040  0.041
   28  0.000  0.000  0.007  0.008
   29  0.000  0.000  0.008  0.008
   30  0.000  0.000  0.008  0.008
   31  0.000  0.000  0.008  0.008
   32  0.000  0.000  0.008  0.008
   33  0.000  0.000  0.008  0.008
   34  0.000  0.000  0.008  0.008
   35  0.004  0.000  0.003  0.008
   36  0.001  0.002  0.000  0.004
   37  0.000  0.000  0.000  0.000
   38  0.000  0.000  0.000  0.000
tot    0.048  0.009  0.794  0.850
 
band    16 # energy   -4.73158881 # occ.  2.00000000
 
ion      s      p      d    tot
    1  0.000  0.000  0.006  0.006
    2  0.003  0.000  0.007  0.011
    3  0.000  0.000  0.010  0.011
    4  0.004  0.000  0.007  0.011
    5  0.000  0.000  0.011  0.012
    6  0.002  0.000  0.007  0.010
    7  0.000  0.000  0.010  0.010
    8  0.002  0.000  0.008  0.010
    9  0.000  0.000  0.020  0.020
   10  0.004  0.000  0.021  0.026
   11  0.001  0.000  0.048  0.050
   12  0.001  0.000  0.031  0.032
   13  0.002  0.000  0.046  0.048
   14  0.006  0.000  0.011  0.018
   15  0.000  0.000  0.027  0.027
   16  0.001  0.000  0.031  0.032
   17  0.000  0.000  0.028  0.028
   18  0.000  0.000  0.043  0.044
   19  0.002  0.000  0.062  0.063
   20  0.000  0.000  0.048  0.048
   21  0.000  0.000  0.021  0.022
   22  0.003  0.000  0.058  0.062
   23  0.000  0.000  0.020  0.020
   24  0.012  0.000  0.019  0.032
   25  0.007  0.000  0.009  0.016
   26  0.002  0.000  0.058  0.060
   27  0.003  0.000  0.061  0.064
   28  0.000  0.000  0.004  0.004
   29  0.000  0.000  0.007  0.007
   30  0.001  0.000  0.002  0.004
   31  0.000  0.000  0.007  0.007
   32  0.001  0.001  0.007  0.009
   33  0.001  0.000  0.002  0.004
   34  0.001  0.001  0.007  0.008
   35  0.000  0.000  0.009  0.009
   36  0.000  0.000  0.001  0.001
   37  0.000  0.000  0.000  0.000
   38  0.000  0.000  0.000  0.000
tot    0.062  0.008  0.773  0.843
 
band    17 # energy   -4.73157524 # occ.  2.00000000
 
ion      s      p      d    tot
    1  0.000  0.000  0.006  0.006
    2  0.000  0.000  0.009  0.010
    3  0.003  0.001  0.006  0.010
    4  0.000  0.000  0.009  0.010
    5  0.000  0.000  0.011  0.012
    6  0.002  0.000  0.009  0.011
    7  0.003  0.001  0.006  0.010
    8  0.002  0.000  0.009  0.011
    9  0.000  0.000  0.020  0.020
   10  0.000  0.000  0.034  0.034
   11  0.005  0.000  0.022  0.027
   12  0.003  0.000  0.025  0.028
   13  0.005  0.000  0.024  0.029
   14  0.000  0.000  0.059  0.059
   15  0.000  0.000  0.039  0.039
   16  0.003  0.000  0.024  0.028
   17  0.000  0.000  0.037  0.038
   18  0.000  0.000  0.022  0.022
   19  0.005  0.000  0.024  0.030
   20  0.000  0.000  0.011  0.012
   21  0.000  0.000  0.038  0.038
   22  0.009  0.000  0.034  0.043
   23  0.000  0.000  0.040  0.040
   24  0.000  0.000  0.073  0.073
   25  0.000  0.000  0.077  0.077
   26  0.005  0.000  0.028  0.033
   27  0.009  0.000  0.031  0.041
   28  0.000  0.000  0.004  0.004
   29  0.002  0.001  0.004  0.006
   30  0.000  0.000  0.009  0.009
   31  0.002  0.001  0.003  0.006
   32  0.001  0.000  0.004  0.004
   33  0.000  0.000  0.009  0.009
   34  0.001  0.000  0.004  0.005
   35  0.000  0.000  0.009  0.009
   36  0.000  0.000  0.001  0.001
   37  0.000  0.000  0.000  0.000
   38  0.000  0.000  0.000  0.000
tot    0.062  0.008  0.773  0.843
 
band    18 # energy   -4.71013620 # occ.  2.00000000
 
ion      s      p      d    tot
    1  0.005  0.000  0.006  0.011
    2  0.003  0.000  0.010  0.013
    3  0.003  0.000  0.010  0.013
    4  0.003  0.000  0.010  0.013
    5  0.003  0.000  0.014  0.017
    6  0.003  0.000  0.010  0.013
    7  0.003  0.000  0.010  0.013
    8  0.003  0.000  0.010  0.013
    9  0.001  0.000  0.010  0.011
   10  0.000  0.000  0.006  0.006
   11  0.002  0.000  0.010  0.013
   12  0.000  0.000  0.006  0.006
   13  0.002  0.000  0.010  0.013
   14  0.002  0.000  0.010  0.013
   15  0.002  0.000  0.009  0.011
   16  0.000  0.000  0.006  0.006
   17  0.002  0.000  0.009  0.011
   18  0.002  0.000  0.009  0.011
   19  0.002  0.001  0.014  0.017
   20  0.001  0.001  0.024  0.025
   21  0.001  0.001  0.024  0.025
   22  0.000  0.001  0.018  0.019
   23  0.001  0.001  0.024  0.025
   24  0.000  0.001  0.018  0.019
   25  0.002  0.001  0.014  0.017
   26  0.002  0.001  0.014  0.017
   27  0.000  0.001  0.018  0.019
   28  0.013  0.000  0.034  0.048
   29  0.015  0.000  0.030  0.045
   30  0.015  0.000  0.030  0.045
   31  0.015  0.000  0.030  0.045
   32  0.015  0.000  0.030  0.045
   33  0.015  0.000  0.030  0.045
   34  0.015  0.000  0.030  0.045
   35  0.018  0.000  0.030  0.047
   36  0.009  0.000  0.009  0.019
   37  0.000  0.001  0.000  0.001
   38  0.000  0.000  0.000  0.000
tot    0.177  0.009  0.591  0.777
 
band    19 # energy   -4.59145404 # occ.  2.00000000
 
ion      s      p      d    tot
    1  0.001  0.000  0.000  0.002
    2  0.000  0.000  0.008  0.008
    3  0.000  0.000  0.008  0.008
    4  0.000  0.000  0.008  0.008
    5  0.000  0.000  0.014  0.014
    6  0.000  0.000  0.008  0.008
    7  0.000  0.000  0.008  0.008
    8  0.000  0.000  0.008  0.008
    9  0.002  0.001  0.008  0.010
   10  0.000  0.000  0.015  0.015
   11  0.001  0.000  0.060  0.061
   12  0.000  0.000  0.015  0.015
   13  0.001  0.000  0.060  0.061
   14  0.001  0.000  0.060  0.061
   15  0.000  0.001  0.048  0.049
   16  0.000  0.000  0.015  0.015
   17  0.000  0.001  0.048  0.049
   18  0.000  0.001  0.048  0.049
   19  0.000  0.000  0.021  0.021
   20  0.001  0.001  0.064  0.066
   21  0.001  0.001  0.064  0.066
   22  0.002  0.000  0.025  0.027
   23  0.001  0.001  0.064  0.066
   24  0.002  0.000  0.025  0.027
   25  0.000  0.000  0.021  0.021
   26  0.000  0.000  0.021  0.021
   27  0.002  0.000  0.025  0.027
   28  0.005  0.001  0.000  0.006
   29  0.000  0.000  0.010  0.011
   30  0.000  0.000  0.010  0.011
   31  0.000  0.000  0.010  0.011
   32  0.000  0.000  0.010  0.011
   33  0.000  0.000  0.010  0.011
   34  0.000  0.000  0.010  0.011
   35  0.000  0.000  0.001  0.002
   36  0.000  0.002  0.001  0.003
   37  0.000  0.000  0.000  0.000
   38  0.000  0.000  0.000  0.000
tot    0.024  0.015  0.829  0.868
 
band    20 # energy   -4.58014976 # occ.  2.00000000
 
ion      s      p      d    tot
    1  0.000  0.000  0.001  0.001
    2  0.001  0.000  0.006  0.007
    3  0.002  0.001  0.006  0.008
    4  0.000  0.000  0.007  0.007
    5  0.000  0.001  0.012  0.012
    6  0.000  0.000  0.010  0.011
    7  0.002  0.001  0.006  0.008
    8  0.000  0.000  0.010  0.011
    9  0.000  0.001  0.016  0.016
   10  0.000  0.000  0.013  0.013
   11  0.001  0.000  0.047  0.048
   12  0.000  0.001  0.024  0.025
   13  0.001  0.000  0.048  0.049
   14  0.000  0.000  0.091  0.091
   15  0.002  0.000  0.042  0.044
   16  0.000  0.001  0.024  0.025
   17  0.002  0.000  0.041  0.044
   18  0.000  0.000  0.031  0.031
   19  0.001  0.001  0.022  0.024
   20  0.000  0.000  0.074  0.074
   21  0.002  0.000  0.055  0.058
   22  0.000  0.000  0.030  0.030
   23  0.003  0.000  0.054  0.057
   24  0.000  0.000  0.053  0.054
   25  0.000  0.000  0.000  0.000
   26  0.001  0.001  0.022  0.024
   27  0.000  0.000  0.029  0.030
   28  0.000  0.000  0.005  0.005
   29  0.001  0.001  0.007  0.009
   30  0.001  0.000  0.005  0.007
   31  0.001  0.001  0.007  0.009
   32  0.000  0.000  0.007  0.007
   33  0.001  0.000  0.005  0.007
   34  0.000  0.000  0.007  0.007
   35  0.000  0.000  0.003  0.003
   36  0.000  0.001  0.005  0.006
   37  0.000  0.002  0.000  0.002
   38  0.000  0.000  0.000  0.000
tot    0.024  0.017  0.824  0.865
 
band    21 # energy   -4.58014289 # occ.  2.00000000
 
ion      s      p      d    tot
    1  0.000  0.000  0.001  0.001
    2  0.001  0.001  0.009  0.011
    3  0.000  0.000  0.009  0.009
    4  0.001  0.001  0.009  0.010
    5  0.000  0.001  0.012  0.012
    6  0.001  0.001  0.005  0.007
    7  0.000  0.000  0.009  0.009
    8  0.001  0.001  0.005  0.007
    9  0.000  0.001  0.016  0.016
   10  0.000  0.001  0.028  0.030
   11  0.000  0.000  0.077  0.078
   12  0.000  0.000  0.016  0.017
   13  0.000  0.000  0.076  0.076
   14  0.001  0.000  0.033  0.034
   15  0.001  0.000  0.035  0.035
   16  0.000  0.000  0.016  0.017