 vasp.6.2.0 18Jan21 (build Jun 12 2021 23:27:24) complex                        
  
 executed on             LinuxIFC date 2022.05.26  19:43:37
 running on   28 total cores
 distrk:  each k-point on   28 cores,    1 groups
 distr:  one band on NCORE=   1 cores,   28 groups


--------------------------------------------------------------------------------------------------------


 INCAR:
   ISMEAR = -5
   SIGMA = 0.1
   ISPIN = 1
   EDIFF = 1.d-5
   EDIFFG = -0.01
   NSW = 0
   NELM = 150
   ENCUT = 500
   ISIF = 2
   IBRION = 2
   LREAL = Auto
   ALGO = Fast
   ICHARG = 11
   LORBIT = 10
   LCHARG = .F.
   LWAVE = .F.

 POTCAR:    PAW_PBE Ag 02Apr2005                  
 POTCAR:    PAW_PBE Ni 02Aug2007                  
 POTCAR:    PAW_PBE O 08Apr2002                   
 -----------------------------------------------------------------------------
|                                                                             |
|           W    W    AA    RRRRR   N    N  II  N    N   GGGG   !!!           |
|           W    W   A  A   R    R  NN   N  II  NN   N  G    G  !!!           |
|           W    W  A    A  R    R  N N  N  II  N N  N  G       !!!           |
|           W WW W  AAAAAA  RRRRR   N  N N  II  N  N N  G  GGG   !            |
|           WW  WW  A    A  R   R   N   NN  II  N   NN  G    G                |
|           W    W  A    A  R    R  N    N  II  N    N   GGGG   !!!           |
|                                                                             |
|     For optimal performance we recommend to set                             |
|       NCORE = 2 up to number-of-cores-per-socket                            |
|     NCORE specifies how many cores store one orbital (NPAR=cpu/NCORE).      |
|     This setting can greatly improve the performance of VASP for DFT.       |
|     The default, NCORE=1 might be grossly inefficient on modern             |
|     multi-core architectures or massively parallel machines. Do your        |
|     own testing! More info at https://www.vasp.at/wiki/index.php/NCORE      |
|     Unfortunately you need to use the default for GW and RPA                |
|     calculations (for HF NCORE is supported but not extensively tested      |
|     yet).                                                                   |
|                                                                             |
 -----------------------------------------------------------------------------

 POTCAR:    PAW_PBE Ag 02Apr2005                  
   VRHFIN =Ag : s1 d10                                                                              
   LEXCH  = PE                                                                                      
   EATOM  =  1037.2675 eV,   76.2370 Ry                                                             
                                                                                                    
   TITEL  = PAW_PBE Ag 02Apr2005                                                                    
   LULTRA =        F    use ultrasoft PP ?                                                          
   IUNSCR =        1    unscreen: 0-lin 1-nonlin 2-no                                               
   RPACOR =    2.000    partial core radius                                                         
   POMASS =  107.868; ZVAL   =   11.000    mass and valenz                                          
   RCORE  =    2.500    outmost cutoff radius                                                       
   RWIGS  =    2.840; RWIGS  =    1.503    wigner-seitz radius (au A)                               
   ENMAX  =  249.844; ENMIN  =  187.383 eV                                                          
   ICORE  =        3    local potential                                                             
   LCOR   =        T    correct aug charges                                                         
   LPAW   =        T    paw PP                                                                      
   EAUG   =  412.496                                                                                
   DEXC   =    0.000                                                                                
   RMAX   =    2.560    core radius for proj-oper                                                   
   RAUG   =    1.300    factor for augmentation sphere                                              
   RDEP   =    2.576    radius for radial grids                                                     
   RDEPT  =    2.072    core radius for aug-charge                                                  
                                                                                                    
   Atomic configuration                                                                             
   12 entries                                                                                       
     n  l   j            E        occ.                                                              
     1  0  0.50    -25324.9161   2.0000                                                             
     2  0  0.50     -3728.5341   2.0000                                                             
     2  1  1.50     -3344.0404   6.0000                                                             
     3  0  0.50      -683.5581   2.0000                                                             
     3  1  1.50      -557.3225   6.0000                                                             
     3  2  2.50      -358.3853  10.0000                                                             
     4  0  0.50       -95.0341   2.0000                                                             
     4  1  1.50       -58.5511   6.0000                                                             
     4  2  2.50        -7.4440  10.0000                                                             
     5  0  0.50        -4.4045   1.0000                                                             
     5  1  0.50        -1.3606   0.0000                                                             
     4  3  2.50        -1.3606   0.0000                                                             
   Description                                                                                      
     l       E           TYP  RCUT    TYP  RCUT                                                     
     2     -7.4439781     23  2.400                                                                 
     2     -8.8045607     23  2.400                                                                 
     0     -4.4044681     23  2.400                                                                 
     0      1.9520038     23  2.400                                                                 
     1     -1.3605826     23  2.500                                                                 
     1     27.2116520     23  2.500                                                                 
     3     -4.0817478     23  2.400                                                                 
  local pseudopotential read in
  partial core-charges read in
  partial kinetic energy density read in
  atomic valenz-charges read in
  non local Contribution for L=           2  read in
    real space projection operators read in
  non local Contribution for L=           2  read in
    real space projection operators read in
  non local Contribution for L=           0  read in
    real space projection operators read in
  non local Contribution for L=           0  read in
    real space projection operators read in
  non local Contribution for L=           1  read in
    real space projection operators read in
  non local Contribution for L=           1  read in
    real space projection operators read in
    PAW grid and wavefunctions read in
 
   number of l-projection  operators is LMAX  =           6
   number of lm-projection operators is LMMAX =          18
 
 POTCAR:    PAW_PBE Ni 02Aug2007                  
   VRHFIN =Ni:                                                                                      
   LEXCH  = PE                                                                                      
   EATOM  =  1077.6739 eV,   79.2068 Ry                                                             
                                                                                                    
   TITEL  = PAW_PBE Ni 02Aug2007                                                                    
   LULTRA =        F    use ultrasoft PP ?                                                          
   IUNSCR =        1    unscreen: 0-lin 1-nonlin 2-no                                               
   RPACOR =    2.000    partial core radius                                                         
   POMASS =   58.690; ZVAL   =   10.000    mass and valenz                                          
   RCORE  =    2.300    outmost cutoff radius                                                       
   RWIGS  =    2.430; RWIGS  =    1.286    wigner-seitz radius (au A)                               
   ENMAX  =  269.532; ENMIN  =  202.149 eV                                                          
   RCLOC  =    1.201    cutoff for local pot                                                        
   LCOR   =        T    correct aug charges                                                         
   LPAW   =        T    paw PP                                                                      
   EAUG   =  544.565                                                                                
   DEXC   =    0.000                                                                                
   RMAX   =    2.357    core radius for proj-oper                                                   
   RAUG   =    1.300    factor for augmentation sphere                                              
   RDEP   =    2.390    radius for radial grids                                                     
   RDEPT  =    1.838    core radius for aug-charge                                                  
                                                                                                    
   Atomic configuration                                                                             
    9 entries                                                                                       
     n  l   j            E        occ.                                                              
     1  0  0.50     -8206.4253   2.0000                                                             
     2  0  0.50      -976.1748   2.0000                                                             
     2  1  1.50      -839.0571   6.0000                                                             
     3  0  0.50      -105.9991   2.0000                                                             
     3  1  1.50       -66.4603   6.0000                                                             
     3  2  2.50        -4.6458   9.0000                                                             
     4  0  0.50        -4.4926   1.0000                                                             
     4  1  1.50        -4.0817   0.0000                                                             
     4  3  2.50        -1.3606   0.0000                                                             
   Description                                                                                      
     l       E           TYP  RCUT    TYP  RCUT                                                     
     2     -4.6457903     23  2.300                                                                 
     2     -6.0063729     23  2.300                                                                 
     0     -4.4925590     23  2.300                                                                 
     0      5.0102601     23  2.300                                                                 
     1     -2.7211652     23  2.300                                                                 
     1     16.5183231     23  2.300                                                                 
  local pseudopotential read in
  partial core-charges read in
  partial kinetic energy density read in
  atomic valenz-charges read in
  non local Contribution for L=           2  read in
    real space projection operators read in
  non local Contribution for L=           2  read in
    real space projection operators read in
  non local Contribution for L=           0  read in
    real space projection operators read in
  non local Contribution for L=           0  read in
    real space projection operators read in
  non local Contribution for L=           1  read in
    real space projection operators read in
  non local Contribution for L=           1  read in
    real space projection operators read in
    PAW grid and wavefunctions read in
 
   number of l-projection  operators is LMAX  =           6
   number of lm-projection operators is LMMAX =          18
 
 POTCAR:    PAW_PBE O 08Apr2002                   
   VRHFIN =O: s2p4                                                                                  
   LEXCH  = PE                                                                                      
   EATOM  =   432.3788 eV,   31.7789 Ry                                                             
                                                                                                    
   TITEL  = PAW_PBE O 08Apr2002                                                                     
   LULTRA =        F    use ultrasoft PP ?                                                          
   IUNSCR =        1    unscreen: 0-lin 1-nonlin 2-no                                               
   RPACOR =    1.200    partial core radius                                                         
   POMASS =   16.000; ZVAL   =    6.000    mass and valenz                                          
   RCORE  =    1.520    outmost cutoff radius                                                       
   RWIGS  =    1.550; RWIGS  =    0.820    wigner-seitz radius (au A)                               
   ENMAX  =  400.000; ENMIN  =  300.000 eV                                                          
   ICORE  =        2    local potential                                                             
   LCOR   =        T    correct aug charges                                                         
   LPAW   =        T    paw PP                                                                      
   EAUG   =  605.392                                                                                
   DEXC   =    0.000                                                                                
   RMAX   =    1.553    core radius for proj-oper                                                   
   RAUG   =    1.300    factor for augmentation sphere                                              
   RDEP   =    1.550    radius for radial grids                                                     
   RDEPT  =    1.329    core radius for aug-charge                                                  
                                                                                                    
   Atomic configuration                                                                             
    4 entries                                                                                       
     n  l   j            E        occ.                                                              
     1  0  0.50      -514.6923   2.0000                                                             
     2  0  0.50       -23.9615   2.0000                                                             
     2  1  0.50        -9.0305   4.0000                                                             
     3  2  1.50        -9.5241   0.0000                                                             
   Description                                                                                      
     l       E           TYP  RCUT    TYP  RCUT                                                     
     0    -23.9615318     23  1.200                                                                 
     0     -9.5240782     23  1.200                                                                 
     1     -9.0304911     23  1.520                                                                 
     1      8.1634956     23  1.520                                                                 
     2     -9.5240782      7  1.500                                                                 
  local pseudopotential read in
  partial core-charges read in
  partial kinetic energy density read in
  kinetic energy density of atom read in
  atomic valenz-charges read in
  non local Contribution for L=           0  read in
    real space projection operators read in
  non local Contribution for L=           0  read in
    real space projection operators read in
  non local Contribution for L=           1  read in
    real space projection operators read in
  non local Contribution for L=           1  read in
    real space projection operators read in
    PAW grid and wavefunctions read in
 
   number of l-projection  operators is LMAX  =           4
   number of lm-projection operators is LMMAX =           8
 
 Optimization of the real space projectors (new method)

 maximal supplied QI-value         = 15.12
 optimisation between [QCUT,QGAM] = [ 11.34, 22.83] = [ 36.00,145.93] Ry 
 Optimized for a Real-space Cutoff    1.43 Angstroem

   l    n(q)    QCUT    max X(q) W(low)/X(q) W(high)/X(q)  e(spline) 
   2      9    11.338    53.897    0.16E-03    0.20E-03    0.28E-06
   2      9    11.338    52.416    0.16E-03    0.20E-03    0.29E-06
   0     10    11.338   122.045    0.31E-04    0.76E-04    0.15E-06
   0     10    11.338    73.629    0.30E-04    0.72E-04    0.15E-06
   1      9    11.338    15.255    0.20E-03    0.19E-04    0.17E-06
   1      9    11.338     9.562    0.16E-03    0.15E-04    0.14E-06
 Optimization of the real space projectors (new method)

 maximal supplied QI-value         = 16.25
 optimisation between [QCUT,QGAM] = [ 11.38, 22.75] = [ 36.24,144.96] Ry 
 Optimized for a Real-space Cutoff    1.39 Angstroem

   l    n(q)    QCUT    max X(q) W(low)/X(q) W(high)/X(q)  e(spline) 
   2      8    11.376    60.317    0.19E-03    0.33E-04    0.13E-06
   2      8    11.376    55.921    0.20E-03    0.34E-04    0.14E-06
   0      9    11.376    51.690    0.82E-04    0.12E-03    0.20E-06
   0      9    11.376    30.015    0.74E-04    0.11E-03    0.18E-06
   1      9    11.376    18.849    0.39E-03    0.12E-03    0.13E-06
   1      9    11.376    14.624    0.33E-03    0.10E-03    0.11E-06
 Optimization of the real space projectors (new method)

 maximal supplied QI-value         = 24.76
 optimisation between [QCUT,QGAM] = [ 11.39, 22.77] = [ 36.31,145.25] Ry 
 Optimized for a Real-space Cutoff    1.00 Angstroem

   l    n(q)    QCUT    max X(q) W(low)/X(q) W(high)/X(q)  e(spline) 
   0      7    11.387    20.381    0.39E-03    0.13E-02    0.15E-06
   0      7    11.387    15.268    0.42E-03    0.14E-02    0.17E-06
   1      6    11.387     5.964    0.41E-03    0.11E-02    0.17E-06
   1      6    11.387     5.382    0.39E-03    0.87E-03    0.15E-06
  PAW_PBE Ag 02Apr2005                  :
 energy of atom  1       EATOM=-1037.2675
 kinetic energy error for atom=    0.0052 (will be added to EATOM!!)
  PAW_PBE Ni 02Aug2007                  :
 energy of atom  2       EATOM=-1077.6739
 kinetic energy error for atom=    0.0030 (will be added to EATOM!!)
  PAW_PBE O 08Apr2002                   :
 energy of atom  3       EATOM= -432.3788
 kinetic energy error for atom=    0.0224 (will be added to EATOM!!)
 
 
 POSCAR: Ag-Ni-O
  positions in direct lattice
  velocities in cartesian coordinates
 exchange correlation table for  LEXCH =        8
   RHO(1)=    0.500       N(1)  =     2000
   RHO(2)=  100.500       N(2)  =     4000

 VTST: version 3.2, (02/03/18)

 CHAIN: initializing optimizer
 
 OPT: Using VASP Conjugate-Gradient optimizer
 CHAIN: Read ICHAIN            0
 
 POSCAR: Ag-Ni-O
  positions in direct lattice
  velocities in cartesian coordinates
 


--------------------------------------------------------------------------------------------------------


 ion  position               nearest neighbor table
   1  0.000  0.000  0.238-   2 2.93   8 2.93   7 2.93   6 2.93   4 2.93  12 2.93  16 2.93  10 2.93
                             3 2.93
   2  0.333  0.000  0.238-   1 2.93   8 2.93   9 2.93   3 2.93   4 2.93   5 2.93  10 2.93  17 2.93
                            11 2.93
   3  0.667  0.000  0.238-   9 2.93   2 2.93   5 2.93  11 2.93   7 2.93  18 2.93   1 2.93   6 2.93
                            12 2.93
   4  0.000  0.333  0.238-   5 2.93   6 2.93   2 2.93   1 2.93   7 2.93  13 2.93  15 2.93   9 2.93
                            10 2.93
   5  0.333  0.333  0.238-   4 2.93   3 2.93   7 2.93   2 2.93   8 2.93  14 2.93  13 2.93  11 2.93
                             6 2.93
   6  0.667  0.333  0.238-   4 2.93   9 2.93   1 2.93  15 2.93   8 2.93  12 2.93   3 2.93   5 2.93
                            14 2.93
   7  0.000  0.667  0.238-   8 2.93   1 2.93   5 2.93   3 2.93   4 2.93  16 2.93  18 2.93  13 2.93
                             9 2.93
   8  0.333  0.667  0.238-   7 2.93   1 2.93   2 2.93   9 2.93   5 2.93  16 2.93   6 2.93  17 2.93
                            14 2.93
   9  0.667  0.667  0.238-   3 2.93   2 2.93   8 2.93   6 2.93  17 2.93   4 2.93  15 2.93   7 2.93
                            18 2.93
  10  0.111  0.111  0.346-  20 2.91  19 2.92  26 2.92  12 2.93  16 2.93  15 2.93  17 2.93  13 2.93
                            11 2.93   2 2.93   1 2.93   4 2.93
  11  0.444  0.111  0.346-  21 2.91  20 2.91  27 2.91  14 2.93  17 2.93  18 2.93   3 2.93  12 2.93
                            13 2.93  10 2.93   5 2.93   2 2.93
  12  0.778  0.111  0.346-  21 2.91  25 2.92  19 2.92  10 2.93  16 2.93  18 2.93  15 2.93  11 2.93
                             1 2.93  14 2.93   6 2.93   3 2.93
  13  0.111  0.444  0.346-  20 2.91  23 2.91  22 2.91  15 2.93  14 2.93  18 2.93  10 2.93  11 2.93
                            16 2.93   4 2.93   5 2.93   7 2.93
  14  0.444  0.444  0.346-  23 2.91  21 2.91  24 2.91  13 2.93  11 2.93  16 2.93   5 2.93  12 2.93
                            17 2.93   8 2.93  15 2.93   6 2.93
  15  0.778  0.444  0.346-  24 2.91  22 2.91  19 2.92  13 2.93  10 2.93  12 2.93  17 2.93  18 2.93
                             4 2.93   6 2.93   9 2.93  14 2.93
  16  0.111  0.778  0.346-  23 2.91  26 2.92  25 2.92  18 2.93  12 2.93  10 2.93  14 2.93  17 2.93
                            13 2.93   7 2.93   8 2.93   1 2.93
  17  0.444  0.778  0.346-  27 2.91  24 2.91  26 2.92  11 2.93  10 2.93   9 2.93  18 2.93  15 2.93
                            16 2.93   2 2.93  14 2.93   8 2.93
  18  0.778  0.778  0.346-  22 2.91  27 2.91  25 2.92  16 2.93  12 2.93  13 2.93  11 2.93  17 2.93
                            15 2.93   7 2.93   3 2.93   9 2.93
  19  0.889  0.223  0.454-  28 2.91  15 2.92  10 2.92  12 2.92  24 2.93  22 2.93  32 2.94  31 2.94
                            26 2.94  25 2.94  20 2.94  21 2.94
  20  0.223  0.223  0.453-  36 2.69  31 2.89  29 2.89  13 2.91  11 2.91  10 2.91  21 2.92  23 2.92
                            27 2.93  22 2.93  19 2.94  26 2.94
  21  0.554  0.223  0.453-  36 2.69  30 2.89  32 2.89  11 2.91  14 2.91  12 2.91  20 2.92  23 2.92
                            27 2.93  24 2.93  25 2.94  19 2.94
  22  0.889  0.556  0.453-  18 2.91  15 2.91  35 2.91  13 2.91  33 2.91  31 2.91  24 2.93  27 2.93
                            25 2.93  19 2.93  23 2.93  20 2.93
  23  0.223  0.554  0.453-  36 2.69  34 2.89  33 2.89  14 2.91  13 2.91  16 2.91  21 2.92  20 2.92
                            22 2.93  24 2.93  26 2.94  25 2.94
  24  0.556  0.556  0.453-  15 2.91  17 2.91  35 2.91  14 2.91  32 2.91  34 2.91  27 2.93  22 2.93
                            19 2.93  26 2.93  23 2.93  21 2.93
  25  0.889  0.889  0.454-  28 2.91  18 2.92  16 2.92  12 2.92  22 2.93  27 2.93  33 2.94  30 2.94
                            26 2.94  19 2.94  23 2.94  21 2.94
  26  0.223  0.889  0.454-  28 2.91  17 2.92  16 2.92  10 2.92  27 2.93  24 2.93  34 2.94  29 2.94
                            25 2.94  19 2.94  23 2.94  20 2.94
  27  0.556  0.889  0.453-  17 2.91  18 2.91  35 2.91  11 2.91  29 2.91  30 2.91  24 2.93  22 2.93
                            26 2.93  25 2.93  20 2.93  21 2.93
  28  0.000  0.000  0.560-  26 2.91  25 2.91  19 2.91  29 2.96  34 2.96  33 2.96  32 2.96  31 2.96
                            30 2.96
  29  0.333  0.007  0.560-  30 2.87  31 2.87  36 2.88  20 2.89  27 2.91  26 2.94  35 2.96  28 2.96
                            34 3.06
  30  0.659  0.007  0.560-  29 2.87  32 2.87  36 2.88  21 2.89  27 2.91  25 2.94  35 2.96  28 2.96
                            33 3.06
  31  0.007  0.333  0.560-  33 2.87  29 2.87  36 2.88  20 2.89  22 2.91  19 2.94  35 2.96  28 2.96
                            32 3.06
  32  0.659  0.333  0.560-  34 2.87  30 2.87  36 2.88  21 2.89  24 2.91  19 2.94  35 2.96  28 2.96
                            31 3.06
  33  0.007  0.659  0.560-  31 2.87  34 2.87  36 2.88  23 2.89  22 2.91  25 2.94  35 2.96  28 2.96
                            30 3.06
  34  0.333  0.659  0.560-  32 2.87  33 2.87  36 2.88  23 2.89  24 2.91  26 2.94  35 2.96  28 2.96
                            29 3.06
  35  0.667  0.667  0.560-  24 2.91  27 2.91  22 2.91  30 2.96  32 2.96  29 2.96  34 2.96  31 2.96
                            33 2.96
  36  0.333  0.333  0.547-  37 1.67  21 2.69  20 2.69  23 2.69  31 2.88  33 2.88  30 2.88  29 2.88
                            34 2.88  32 2.88
  37  0.333  0.333  0.623-  36 1.67
 
  LATTYP: Found a hexagonal cell.
 ALAT       =     8.7913665772
 C/A-ratio  =     2.5227160501
  
  Lattice vectors:
  
 A1 = (  -4.3956832886,  -7.6135467898,   0.0000000000)
 A2 = (   8.7913665771,   0.0000000000,   0.0000000000)
 A3 = (   0.0000000000,   0.0000000000,  22.1781215668)


Analysis of symmetry for initial positions (statically):
=====================================================================
 Subroutine PRICEL returns:
 Original cell was already a primitive cell.
 

 Routine SETGRP: Setting up the symmetry group for a 
 hexagonal supercell.


 Subroutine GETGRP returns: Found  6 space group operations
 (whereof  6 operations were pure point group operations)
 out of a pool of 24 trial point group operations.


The static configuration has the point symmetry C_3v.


Analysis of symmetry for dynamics (positions and initial velocities):
=====================================================================
 Subroutine PRICEL returns:
 Original cell was already a primitive cell.
 

 Routine SETGRP: Setting up the symmetry group for a 
 hexagonal supercell.


 Subroutine GETGRP returns: Found  6 space group operations
 (whereof  6 operations were pure point group operations)
 out of a pool of 24 trial point group operations.


The dynamic configuration has the point symmetry C_3v.


Analysis of constrained symmetry for selective dynamics:
=====================================================================
 Subroutine PRICEL returns:
 Original cell was already a primitive cell.
 

 Routine SETGRP: Setting up the symmetry group for a 
 hexagonal supercell.


 Subroutine GETGRP returns: Found  6 space group operations
 (whereof  6 operations were pure point group operations)
 out of a pool of 24 trial point group operations.


The constrained configuration has the point symmetry C_3v.


 Subroutine INISYM returns: Found  6 space group operations
 (whereof  6 operations are pure point group operations),
 and found     1 'primitive' translations


----------------------------------------------------------------------------------------

                                     Primitive cell                                     

  volume of cell :    1484.4589

  direct lattice vectors                    reciprocal lattice vectors
     8.791366577  0.000000000  0.000000000     0.113747958 -0.065672414  0.000000000
     4.395683289  7.613546790  0.000000000     0.000000000  0.131344829  0.000000000
     0.000000000  0.000000000 22.178121567     0.000000000  0.000000000  0.045089481

  length of vectors
     8.791366577  8.791366577 22.178121567     0.131344829  0.131344829  0.045089481

  position of ions in fractional coordinates (direct lattice)
     0.000000000  0.000000000  0.238171124
     0.333333313  0.000000000  0.238171124
     0.666666627  0.000000000  0.238171124
     0.000000000  0.333333343  0.238171124
     0.333333313  0.333333343  0.238171124
     0.666666687  0.333333343  0.238171124
     0.000000000  0.666666687  0.238171124
     0.333333313  0.666666687  0.238171124
     0.666666627  0.666666687  0.238171124
     0.111111104  0.111111112  0.346057051
     0.444444448  0.111111112  0.346057051
     0.777777791  0.111111112  0.346057051
     0.111111097  0.444444448  0.346057051
     0.444444418  0.444444448  0.346057051
     0.777777791  0.444444448  0.346057051
     0.111111104  0.777777791  0.346057051
     0.444444448  0.777777791  0.346057051
     0.777777791  0.777777791  0.346057051
     0.888663894  0.222672229  0.453518215
     0.222798372  0.222798387  0.452802886
     0.554403197  0.222798387  0.452802886
     0.888532437  0.555733812  0.452984190
     0.222798387  0.554403257  0.452802886
     0.555733812  0.555733812  0.452984190
     0.888663894  0.888663894  0.453518215
     0.222672199  0.888663894  0.453518215
     0.555733752  0.888532437  0.452984190
     0.000000000  0.000000000  0.560168321
     0.333353478  0.007230338  0.559929561
     0.659416125  0.007230338  0.559929561
     0.007230338  0.333353508  0.559929561
     0.659416185  0.333353508  0.559929561
     0.007230338  0.659416185  0.559929561
     0.333353478  0.659416185  0.559929561
     0.666666627  0.666666687  0.560024744
     0.333333313  0.333333343  0.547339070
     0.333333313  0.333333343  0.622671462

  ion indices of the primitive-cell ions
   primitive index   ion index
                 1           1
                 2           2
                 3           3
                 4           4
                 5           5
                 6           6
                 7           7
                 8           8
                 9           9
                10          10
                11          11
                12          12
                13          13
                14          14
                15          15
                16          16
                17          17
                18          18
                19          19
                20          20
                21          21
                22          22
                23          23
                24          24
                25          25
                26          26
                27          27
                28          28
                29          29
                30          30
                31          31
                32          32
                33          33
                34          34
                35          35
                36          36
                37          37

----------------------------------------------------------------------------------------

 
 
 KPOINTS: Automatic mesh                          

Automatic generation of k-mesh.
 Grid dimensions read from file:
 generate k-points for:    8    8    1

 Generating k-lattice:

  Cartesian coordinates                     Fractional coordinates (reciprocal lattice)
     0.014218495 -0.008209052  0.000000000     0.125000000  0.000000000  0.000000000
     0.000000000  0.016418104  0.000000000     0.000000000  0.125000000  0.000000000
     0.000000000  0.000000000  0.045089481     0.000000000  0.000000000  1.000000000

  Length of vectors
     0.016418104  0.016418104  0.045089481

  Shift w.r.t. Gamma in fractional coordinates (k-lattice)
     0.000000000  0.000000000  0.000000000

 TETIRR: Found     36 inequivalent tetrahedra from      384
 
 Subroutine IBZKPT returns following result:
 ===========================================
 
 Found     10 irreducible k-points:
 
 Following reciprocal coordinates:
            Coordinates               Weight
  0.000000  0.000000  0.000000      1.000000
  0.125000 -0.000000  0.000000      6.000000
  0.250000 -0.000000  0.000000      6.000000
  0.375000 -0.000000  0.000000      6.000000
  0.500000 -0.000000  0.000000      3.000000
  0.250000  0.125000  0.000000      6.000000
  0.375000  0.125000  0.000000     12.000000
  0.500000  0.125000  0.000000     12.000000
  0.500000  0.250000  0.000000      6.000000
 -0.375000  0.250000  0.000000      6.000000
 
 Following cartesian coordinates:
            Coordinates               Weight
  0.000000  0.000000  0.000000      1.000000
  0.014218 -0.008209  0.000000      6.000000
  0.028437 -0.016418  0.000000      6.000000
  0.042655 -0.024627  0.000000      6.000000
  0.056874 -0.032836  0.000000      3.000000
  0.028437 -0.000000  0.000000      6.000000
  0.042655 -0.008209  0.000000     12.000000
  0.056874 -0.016418  0.000000     12.000000
  0.056874 -0.000000  0.000000      6.000000
 -0.042655  0.057463  0.000000      6.000000
 


--------------------------------------------------------------------------------------------------------




 Dimension of arrays:
   k-points           NKPTS =     10   k-points in BZ     NKDIM =     10   number of bands    NBANDS=    252
   number of dos      NEDOS =    301   number of ions     NIONS =     37
   non local maximal  LDIM  =      6   non local SUM 2l+1 LMDIM =     18
   total plane-waves  NPLWV = 290304
   max r-space proj   IRMAX =   2452   max aug-charges    IRDMAX=   9814
   dimension x,y,z NGX =    48 NGY =   48 NGZ =  126
   dimension x,y,z NGXF=    96 NGYF=   96 NGZF=  252
   support grid    NGXF=    96 NGYF=   96 NGZF=  252
   ions per type =              35   1   1
   NGX,Y,Z   is equivalent  to a cutoff of   9.08,  9.08,  9.44 a.u.
   NGXF,Y,Z  is equivalent  to a cutoff of  18.15, 18.15, 18.89 a.u.

 SYSTEM =  unknown system                          
 POSCAR =  Ag-Ni-O                                 

 Startparameter for this run:
   NWRITE =      2    write-flag & timer
   PREC   = normal    normal or accurate (medium, high low for compatibility)
   ISTART =      0    job   : 0-new  1-cont  2-samecut
   ICHARG =     11    charge: 1-file 2-atom 10-const
   ISPIN  =      1    spin polarized calculation?
   LNONCOLLINEAR =      F non collinear calculations
   LSORBIT =      F    spin-orbit coupling
   INIWAV =      1    electr: 0-lowe 1-rand  2-diag
   LASPH  =      F    aspherical Exc in radial PAW
   METAGGA=      F    non-selfconsistent MetaGGA calc.

 Electronic Relaxation 1
   ENCUT  =  500.0 eV  36.75 Ry    6.06 a.u.  16.03 16.03 40.44*2*pi/ulx,y,z
   ENINI  =  500.0     initial cutoff
   ENAUG  =  605.4 eV  augmentation charge cutoff
   NELM   =    150;   NELMIN=  2; NELMDL= -5     # of ELM steps 
   EDIFF  = 0.1E-04   stopping-criterion for ELM
   LREAL  =      T    real-space projection
   NLSPLINE    = F    spline interpolate recip. space projectors
   LCOMPAT=      F    compatible to vasp.4.4
   GGA_COMPAT  = T    GGA compatible to vasp.4.4-vasp.4.6
   LMAXPAW     = -100 max onsite density
   LMAXMIX     =    2 max onsite mixed and CHGCAR
   VOSKOWN=      0    Vosko Wilk Nusair interpolation
   ROPT   =   -0.00050  -0.00050  -0.00050
 Ionic relaxation
   EDIFFG = -.1E-01   stopping-criterion for IOM
   NSW    =      0    number of steps for IOM
   NBLOCK =      1;   KBLOCK =      1    inner block; outer block 
   IBRION =     -1    ionic relax: 0-MD 1-quasi-New 2-CG
   NFREE  =      1    steps in history (QN), initial steepest desc. (CG)
   ISIF   =      2    stress and relaxation
   IWAVPR =     10    prediction:  0-non 1-charg 2-wave 3-comb
   ISYM   =      2    0-nonsym 1-usesym 2-fastsym
   LCORR  =      T    Harris-Foulkes like correction to forces

   POTIM  = 0.5000    time-step for ionic-motion
   TEIN   =    0.0    initial temperature
   TEBEG  =    0.0;   TEEND  =   0.0 temperature during run
   SMASS  =  -3.00    Nose mass-parameter (am)
   estimated Nose-frequenzy (Omega)   =  0.10E-29 period in steps = 0.13E+47 mass=  -0.177E-26a.u.
   SCALEE = 1.0000    scale energy and forces
   NPACO  =    256;   APACO  = 16.0  distance and # of slots for P.C.
   PSTRESS=    0.0 pullay stress

  Mass of Ions in am
   POMASS = 107.87 58.69 16.00
  Ionic Valenz
   ZVAL   =  11.00 10.00  6.00
  Atomic Wigner-Seitz radii
   RWIGS  =  -1.00 -1.00 -1.00
  virtual crystal weights 
   VCA    =   1.00  1.00  1.00
   NELECT =     401.0000    total number of electrons
   NUPDOWN=      -1.0000    fix difference up-down

 DOS related values:
   EMIN   =  10.00;   EMAX   =-10.00  energy-range for DOS
   EFERMI =   0.00
   ISMEAR =    -5;   SIGMA  =   0.10  broadening in eV -4-tet -1-fermi 0-gaus

 Electronic relaxation 2 (details)
   IALGO  =     68    algorithm
   LDIAG  =      T    sub-space diagonalisation (order eigenvalues)
   LSUBROT=      F    optimize rotation matrix (better conditioning)
   TURBO    =      0    0=normal 1=particle mesh
   IRESTART =      0    0=no restart 2=restart with 2 vectors
   NREBOOT  =      0    no. of reboots
   NMIN     =      0    reboot dimension
   EREF     =   0.00    reference energy to select bands
   IMIX   =      4    mixing-type and parameters
     AMIX     =   0.40;   BMIX     =  1.00
     AMIX_MAG =   1.60;   BMIX_MAG =  1.00
     AMIN     =   0.10
     WC   =   100.;   INIMIX=   1;  MIXPRE=   1;  MAXMIX= -45

 Intra band minimization:
   WEIMIN = 0.0000     energy-eigenvalue tresh-hold
   EBREAK =  0.99E-08  absolut break condition
   DEPER  =   0.30     relativ break condition  

   TIME   =   0.40     timestep for ELM

  volume/ion in A,a.u.               =      40.12       270.75
  Fermi-wavevector in a.u.,A,eV,Ry     =   1.058279  1.999858 15.237909  1.119955
  Thomas-Fermi vector in A             =   2.193583
 
 Write flags
   LWAVE        =      F    write WAVECAR
   LDOWNSAMPLE  =      F    k-point downsampling of WAVECAR
   LCHARG       =      F    write CHGCAR
   LVTOT        =      F    write LOCPOT, total local potential
   LVHAR        =      F    write LOCPOT, Hartree potential only
   LELF         =      F    write electronic localiz. function (ELF)
   LORBIT       =     10    0 simple, 1 ext, 2 COOP (PROOUT), +10 PAW based schemes


 Dipole corrections
   LMONO  =      F    monopole corrections only (constant potential shift)
   LDIPOL =      F    correct potential (dipole corrections)
   IDIPOL =      0    1-x, 2-y, 3-z, 4-all directions 
   EPSILON=  1.0000000 bulk dielectric constant

 Exchange correlation treatment:
   GGA     =    --    GGA type
   LEXCH   =     8    internal setting for exchange type
   VOSKOWN=      0    Vosko Wilk Nusair interpolation
   LHFCALC =     F    Hartree Fock is set to
   LHFONE  =     F    Hartree Fock one center treatment
   AEXX    =    0.0000 exact exchange contribution

 Linear response parameters
   LEPSILON=     F    determine dielectric tensor
   LRPA    =     F    only Hartree local field effects (RPA)
   LNABLA  =     F    use nabla operator in PAW spheres
   LVEL    =     F    velocity operator in full k-point grid
   LINTERFAST=   F  fast interpolation
   KINTER  =     0    interpolate to denser k-point grid
   CSHIFT  =0.1000    complex shift for real part using Kramers Kronig
   OMEGAMAX=  -1.0    maximum frequency
   DEG_THRESHOLD= 0.2000000E-02 threshold for treating states as degnerate
   RTIME   =   -0.100 relaxation time in fs
  (WPLASMAI=    0.000 imaginary part of plasma frequency in eV, 0.658/RTIME)
   DFIELD  = 0.0000000 0.0000000 0.0000000 field for delta impulse in time
 
 Orbital magnetization related:
   ORBITALMAG=     F  switch on orbital magnetization
   LCHIMAG   =     F  perturbation theory with respect to B field
   DQ        =  0.001000  dq finite difference perturbation B field
   LLRAUG    =     F  two centre corrections for induced B field



--------------------------------------------------------------------------------------------------------


 Static calculation
 charge density and potential remain constant during run
 non-spin polarized calculation
 RMM-DIIS sequential band-by-band and
  variant of blocked Davidson during initial phase
 perform sub-space diagonalisation
    before iterative eigenvector-optimisation
 no mixing
 using additional bands           51
 real space projection scheme for non local part
 use partial core corrections
 calculate Harris-corrections to forces 
   (improved forces if not selfconsistent)
 use gradient corrections 
 WARNING: stress and forces are not correct
  (second derivative of E(xc) not defined)
 use of overlap-Matrix (Vanderbilt PP)
 Fermi weights with tetrahedron method with Bloechl corrections


--------------------------------------------------------------------------------------------------------


  energy-cutoff  :      500.00
  volume of cell :     1484.46
      direct lattice vectors                 reciprocal lattice vectors
     8.791366577  0.000000000  0.000000000     0.113747958 -0.065672414  0.000000000
     4.395683289  7.613546790  0.000000000     0.000000000  0.131344829  0.000000000
     0.000000000  0.000000000 22.178121567     0.000000000  0.000000000  0.045089481

  length of vectors
     8.791366577  8.791366577 22.178121567     0.131344829  0.131344829  0.045089481


 
 k-points in units of 2pi/SCALE and weight: Automatic mesh                          
   0.00000000  0.00000000  0.00000000       0.016
   0.01421849 -0.00820905  0.00000000       0.094
   0.02843699 -0.01641810  0.00000000       0.094
   0.04265548 -0.02462716  0.00000000       0.094
   0.05687398 -0.03283621  0.00000000       0.047
   0.02843699 -0.00000000  0.00000000       0.094
   0.04265548 -0.00820905  0.00000000       0.188
   0.05687398 -0.01641810  0.00000000       0.188
   0.05687398 -0.00000000  0.00000000       0.094
  -0.04265548  0.05746336  0.00000000       0.094
 
 k-points in reciprocal lattice and weights: Automatic mesh                          
   0.00000000  0.00000000  0.00000000       0.016
   0.12500000 -0.00000000  0.00000000       0.094
   0.25000000 -0.00000000  0.00000000       0.094
   0.37500000 -0.00000000  0.00000000       0.094
   0.50000000 -0.00000000  0.00000000       0.047
   0.25000000  0.12500000  0.00000000       0.094
   0.37500000  0.12500000  0.00000000       0.188
   0.50000000  0.12500000  0.00000000       0.188
   0.50000000  0.25000000  0.00000000       0.094
  -0.37500000  0.25000000  0.00000000       0.094
 
 position of ions in fractional coordinates (direct lattice) 
   0.00000000  0.00000000  0.23817112
   0.33333331  0.00000000  0.23817112
   0.66666663  0.00000000  0.23817112
   0.00000000  0.33333334  0.23817112
   0.33333331  0.33333334  0.23817112
   0.66666669  0.33333334  0.23817112
   0.00000000  0.66666669  0.23817112
   0.33333331  0.66666669  0.23817112
   0.66666663  0.66666669  0.23817112
   0.11111110  0.11111111  0.34605705
   0.44444445  0.11111111  0.34605705
   0.77777779  0.11111111  0.34605705
   0.11111110  0.44444445  0.34605705
   0.44444442  0.44444445  0.34605705
   0.77777779  0.44444445  0.34605705
   0.11111110  0.77777779  0.34605705
   0.44444445  0.77777779  0.34605705
   0.77777779  0.77777779  0.34605705
   0.88866389  0.22267223  0.45351822
   0.22279837  0.22279839  0.45280289
   0.55440320  0.22279839  0.45280289
   0.88853244  0.55573381  0.45298419
   0.22279839  0.55440326  0.45280289
   0.55573381  0.55573381  0.45298419
   0.88866389  0.88866389  0.45351822
   0.22267220  0.88866389  0.45351822
   0.55573375  0.88853244  0.45298419
   0.00000000  0.00000000  0.56016832
   0.33335348  0.00723034  0.55992956
   0.65941612  0.00723034  0.55992956
   0.00723034  0.33335351  0.55992956
   0.65941618  0.33335351  0.55992956
   0.00723034  0.65941618  0.55992956
   0.33335348  0.65941618  0.55992956
   0.66666663  0.66666669  0.56002474
   0.33333331  0.33333334  0.54733907
   0.33333331  0.33333334  0.62267146
 
 position of ions in cartesian coordinates  (Angst):
   0.00000000  0.00000000  5.28218814
   2.93045535  0.00000000  5.28218814
   5.86091070  0.00000000  5.28218814
   1.46522781  2.53784900  5.28218814
   4.39568315  2.53784900  5.28218814
   7.32613904  2.53784900  5.28218814
   2.93045562  5.07569801  5.28218814
   5.86091096  5.07569801  5.28218814
   8.79136632  5.07569801  5.28218814
   1.46522770  0.84594965  7.67489535
   4.39568332  0.84594965  7.67489535
   7.32613893  0.84594965  7.67489535
   2.93045542  3.38379860  7.67489535
   5.86091083  3.38379860  7.67489535
   8.79136671  3.38379860  7.67489535
   4.39568328  5.92164760  7.67489535
   7.32613890  5.92164760  7.67489535
  10.25659451  5.92164760  7.67489535
   8.79136665  1.69532543 10.05818211
   2.93805330  1.69628594 10.04231745
   5.85331288  1.69628594 10.04231745
  10.25424420  4.23110538 10.04633842
   4.39568342  4.22097513 10.04231745
   7.32848949  4.23110538 10.04633842
  11.71885508  6.76588413 10.05818211
   5.86387795  6.76588413 10.05818211
   8.79136631  6.76488328 10.04633842
   0.00000000  0.00000000 12.42348112
   2.96241490  0.05504851 12.41818588
   5.82895115  0.05504851 12.41818588
   1.52888099  2.53800253 12.41818588
   7.26248585  2.53800253 12.41818588
   2.96214925  5.02049598 12.41818588
   5.82921732  5.02049598 12.41818588
   8.79136632  5.07569801 12.42029685
   4.39568315  2.53784900 12.13895243
   4.39568315  2.53784900 13.80968338
 


--------------------------------------------------------------------------------------------------------


 k-point   1 :   0.0000 0.0000 0.0000  plane waves:   37683
 k-point   2 :   0.1250-0.0000 0.0000  plane waves:   37658
 k-point   3 :   0.2500-0.0000 0.0000  plane waves:   37682
 k-point   4 :   0.3750-0.0000 0.0000  plane waves:   37686
 k-point   5 :   0.5000-0.0000 0.0000  plane waves:   37668
 k-point   6 :   0.2500 0.1250 0.0000  plane waves:   37666
 k-point   7 :   0.3750 0.1250 0.0000  plane waves:   37708
 k-point   8 :   0.5000 0.1250 0.0000  plane waves:   37726
 k-point   9 :   0.5000 0.2500 0.0000  plane waves:   37706
 k-point  10 :  -0.3750 0.2500 0.0000  plane waves:   37686

 maximum and minimum number of plane-waves per node :     37726    37658

 maximum number of plane-waves:     37726
 maximum index in each direction: 
   IXMAX=   16   IYMAX=   16   IZMAX=   40
   IXMIN=  -16   IYMIN=  -16   IZMIN=  -40


 serial   3D FFT for wavefunctions
 parallel 3D FFT for charge:
    minimum data exchange during FFTs selected (reduces bandwidth)


 total amount of memory used by VASP MPI-rank0   122918. kBytes
=======================================================================

   base      :      30000. kBytes
   nonlr-proj:      14815. kBytes
   fftplans  :       4330. kBytes
   grid      :      17879. kBytes
   one-center:        575. kBytes
   wavefun   :      55319. kBytes
 
     INWAV:  cpu time    0.0000: real time    0.0000
 initial charge density was supplied:
 number of electron     400.9999919 magnetization 
 keeping initial charge density in first step


--------------------------------------------------------------------------------------------------------


 Maximum index for non-local projection operator         2356
 Maximum index for augmentation-charges          702 (set IRDMAX)


--------------------------------------------------------------------------------------------------------


 First call to EWALD:  gamma=   0.155
 Maximum number of real-space cells 4x 4x 2
 Maximum number of reciprocal cells 2x 2x 5

    FEWALD:  cpu time    0.0013: real time    0.0014


--------------------------------------- Iteration      1(   1)  ---------------------------------------


    POTLOK:  cpu time    0.0571: real time    0.0573
    SETDIJ:  cpu time    0.0047: real time    0.0049
     EDDAV:  cpu time    7.1501: real time    7.1534
 BZINTS: Fermi energy:    9.553994;  401.000000 electrons
         Band energy: 0.123713E+04;  BLOECHL correction:   -0.023494
       DOS:  cpu time    0.0111: real time    0.0112
    --------------------------------------------
      LOOP:  cpu time    7.2230: real time    7.2268

 eigenvalue-minimisations  :  5040
 total energy-change (2. order) : 0.2486154E+04  (-0.1857372E+05)
 number of electron     400.9999919 magnetization 
 augmentation part      400.9999919 magnetization 

 Free energy of the ion-electron system (eV)
  ---------------------------------------------------
  alpha Z        PSCENC =       751.11399840
  Ewald energy   TEWEN  =     99767.57570804
  -Hartree energ DENC   =   -138220.07259738
  -exchange      EXHF   =         0.00000000
  -V(xc)+E(xc)   XCENC  =      -331.21508265
  PAW double counting   =     39854.04880549   -38386.63535028
  entropy T*S    EENTRO =         0.00000000
  eigenvalues    EBANDS =      1237.13059812
  atomic energy  EATOM  =     37814.20817036
  Solvation  Ediel_sol  =         0.00000000
  ---------------------------------------------------
  free energy    TOTEN  =      2486.15425009 eV

  energy without entropy =     2486.15425009  energy(sigma->0) =     2486.15425009


--------------------------------------------------------------------------------------------------------




--------------------------------------- Iteration      1(   2)  ---------------------------------------


     EDDAV:  cpu time    7.4491: real time    7.4547
 BZINTS: Fermi energy:    1.435548;  401.000000 electrons
         Band energy:-0.125405E+04;  BLOECHL correction:   -0.032810
       DOS:  cpu time    0.0102: real time    0.0102
    --------------------------------------------
      LOOP:  cpu time    7.4593: real time    7.4649

 eigenvalue-minimisations  :  5320
 total energy-change (2. order) :-0.2491178E+04  (-0.2374315E+04)
 number of electron     400.9999919 magnetization 
 augmentation part      400.9999919 magnetization 

 Free energy of the ion-electron system (eV)
  ---------------------------------------------------
  alpha Z        PSCENC =       751.11399840
  Ewald energy   TEWEN  =     99767.57570804
  -Hartree energ DENC   =   -138220.07259738
  -exchange      EXHF   =         0.00000000
  -V(xc)+E(xc)   XCENC  =      -331.21508265
  PAW double counting   =     39854.04880549   -38386.63535028
  entropy T*S    EENTRO =         0.00000000
  eigenvalues    EBANDS =     -1254.04703631
  atomic energy  EATOM  =     37814.20817036
  Solvation  Ediel_sol  =         0.00000000
  ---------------------------------------------------
  free energy    TOTEN  =        -5.02338434 eV

  energy without entropy =       -5.02338434  energy(sigma->0) =       -5.02338434


--------------------------------------------------------------------------------------------------------




--------------------------------------- Iteration      1(   3)  ---------------------------------------


     EDDAV:  cpu time    8.1826: real time    8.1850
 BZINTS: Fermi energy:    0.753184;  401.000000 electrons
         Band energy:-0.134678E+04;  BLOECHL correction:   -0.029702
       DOS:  cpu time    0.0103: real time    0.0103
    --------------------------------------------
      LOOP:  cpu time    8.1929: real time    8.1953

 eigenvalue-minimisations  :  5964
 total energy-change (2. order) :-0.9272940E+02  (-0.9063530E+02)
 number of electron     400.9999919 magnetization 
 augmentation part      400.9999919 magnetization 

 Free energy of the ion-electron system (eV)
  ---------------------------------------------------
  alpha Z        PSCENC =       751.11399840
  Ewald energy   TEWEN  =     99767.57570804
  -Hartree energ DENC   =   -138220.07259738
  -exchange      EXHF   =         0.00000000
  -V(xc)+E(xc)   XCENC  =      -331.21508265
  PAW double counting   =     39854.04880549   -38386.63535028
  entropy T*S    EENTRO =         0.00000000
  eigenvalues    EBANDS =     -1346.77643569
  atomic energy  EATOM  =     37814.20817036
  Solvation  Ediel_sol  =         0.00000000
  ---------------------------------------------------
  free energy    TOTEN  =       -97.75278372 eV

  energy without entropy =      -97.75278372  energy(sigma->0) =      -97.75278372


--------------------------------------------------------------------------------------------------------




--------------------------------------- Iteration      1(   4)  ---------------------------------------


     EDDAV:  cpu time    7.7068: real time    7.7088
 BZINTS: Fermi energy:    0.727231;  401.000000 electrons
         Band energy:-0.134827E+04;  BLOECHL correction:   -0.029847
       DOS:  cpu time    0.0099: real time    0.0099
    --------------------------------------------
      LOOP:  cpu time    7.7167: real time    7.7187

 eigenvalue-minimisations  :  5544
 total energy-change (2. order) :-0.1493256E+01  (-0.1489335E+01)
 number of electron     400.9999919 magnetization 
 augmentation part      400.9999919 magnetization 

 Free energy of the ion-electron system (eV)
  ---------------------------------------------------
  alpha Z        PSCENC =       751.11399840
  Ewald energy   TEWEN  =     99767.57570804
  -Hartree energ DENC   =   -138220.07259738
  -exchange      EXHF   =         0.00000000
  -V(xc)+E(xc)   XCENC  =      -331.21508265
  PAW double counting   =     39854.04880549   -38386.63535028
  entropy T*S    EENTRO =         0.00000000
  eigenvalues    EBANDS =     -1348.26969178
  atomic energy  EATOM  =     37814.20817036
  Solvation  Ediel_sol  =         0.00000000
  ---------------------------------------------------
  free energy    TOTEN  =       -99.24603981 eV

  energy without entropy =      -99.24603981  energy(sigma->0) =      -99.24603981


--------------------------------------------------------------------------------------------------------




--------------------------------------- Iteration      1(   5)  ---------------------------------------


     EDDAV:  cpu time    8.7172: real time    8.7198
 BZINTS: Fermi energy:    0.726879;  401.000000 electrons
         Band energy:-0.134831E+04;  BLOECHL correction:   -0.029845
       DOS:  cpu time    0.0103: real time    0.0103
    --------------------------------------------
      LOOP:  cpu time    8.7275: real time    8.7302

 eigenvalue-minimisations  :  6440
 total energy-change (2. order) :-0.3550280E-01  (-0.3550004E-01)
 number of electron     400.9999919 magnetization 
 augmentation part      400.9999919 magnetization 

 Free energy of the ion-electron system (eV)
  ---------------------------------------------------
  alpha Z        PSCENC =       751.11399840
  Ewald energy   TEWEN  =     99767.57570804
  -Hartree energ DENC   =   -138220.07259738
  -exchange      EXHF   =         0.00000000
  -V(xc)+E(xc)   XCENC  =      -331.21508265
  PAW double counting   =     39854.04880549   -38386.63535028
  entropy T*S    EENTRO =         0.00000000
  eigenvalues    EBANDS =     -1348.30519458
  atomic energy  EATOM  =     37814.20817036
  Solvation  Ediel_sol  =         0.00000000
  ---------------------------------------------------
  free energy    TOTEN  =       -99.28154261 eV

  energy without entropy =      -99.28154261  energy(sigma->0) =      -99.28154261


--------------------------------------------------------------------------------------------------------




--------------------------------------- Iteration      1(   6)  ---------------------------------------


    EDDIAG:  cpu time    1.3999: real time    1.4008
  RMM-DIIS:  cpu time    4.0384: real time    4.0396
    ORTHCH:  cpu time    0.2619: real time    0.2619
 BZINTS: Fermi energy:    0.726875;  401.000000 electrons
         Band energy:-0.134831E+04;  BLOECHL correction:   -0.029844
       DOS:  cpu time    0.0102: real time    0.0102
    --------------------------------------------
      LOOP:  cpu time    5.7104: real time    5.7125

 eigenvalue-minimisations  :  5116
 total energy-change (2. order) :-0.6834978E-03  (-0.6836160E-03)
 number of electron     400.9999919 magnetization 
 augmentation part      400.9999919 magnetization 

 Free energy of the ion-electron system (eV)
  ---------------------------------------------------
  alpha Z        PSCENC =       751.11399840
  Ewald energy   TEWEN  =     99767.57570804
  -Hartree energ DENC   =   -138220.07259738
  -exchange      EXHF   =         0.00000000
  -V(xc)+E(xc)   XCENC  =      -331.21508265
  PAW double counting   =     39854.04880549   -38386.63535028
  entropy T*S    EENTRO =         0.00000000
  eigenvalues    EBANDS =     -1348.30587808
  atomic energy  EATOM  =     37814.20817036
  Solvation  Ediel_sol  =         0.00000000
  ---------------------------------------------------
  free energy    TOTEN  =       -99.28222611 eV

  energy without entropy =      -99.28222611  energy(sigma->0) =      -99.28222611


--------------------------------------------------------------------------------------------------------




--------------------------------------- Iteration      1(   7)  ---------------------------------------


    EDDIAG:  cpu time    1.4010: real time    1.4014
  RMM-DIIS:  cpu time    5.4921: real time    5.4939
    ORTHCH:  cpu time    0.2615: real time    0.2615
 BZINTS: Fermi energy:    0.726874;  401.000000 electrons
         Band energy:-0.134831E+04;  BLOECHL correction:   -0.029844
       DOS:  cpu time    0.0103: real time    0.0103
    --------------------------------------------
      LOOP:  cpu time    7.1649: real time    7.1671

 eigenvalue-minimisations  :  7024
 total energy-change (2. order) :-0.2457369E-03  (-0.2431225E-03)
 number of electron     400.9999919 magnetization 
 augmentation part      400.9999919 magnetization 

 Free energy of the ion-electron system (eV)
  ---------------------------------------------------
  alpha Z        PSCENC =       751.11399840
  Ewald energy   TEWEN  =     99767.57570804
  -Hartree energ DENC   =   -138220.07259738
  -exchange      EXHF   =         0.00000000
  -V(xc)+E(xc)   XCENC  =      -331.21508265
  PAW double counting   =     39854.04880549   -38386.63535028
  entropy T*S    EENTRO =         0.00000000
  eigenvalues    EBANDS =     -1348.30612382
  atomic energy  EATOM  =     37814.20817036
  Solvation  Ediel_sol  =         0.00000000
  ---------------------------------------------------
  free energy    TOTEN  =       -99.28247185 eV

  energy without entropy =      -99.28247185  energy(sigma->0) =      -99.28247185


--------------------------------------------------------------------------------------------------------




--------------------------------------- Iteration      1(   8)  ---------------------------------------


    EDDIAG:  cpu time    1.4032: real time    1.4036
  RMM-DIIS:  cpu time    4.0450: real time    4.0470
    ORTHCH:  cpu time    0.2608: real time    0.2608
 BZINTS: Fermi energy:    0.726874;  401.000000 electrons
         Band energy:-0.134831E+04;  BLOECHL correction:   -0.029844
       DOS:  cpu time    0.0103: real time    0.0103
    --------------------------------------------
      LOOP:  cpu time    5.7192: real time    5.7216

 eigenvalue-minimisations  :  4786
 total energy-change (2. order) :-0.1503839E-04  (-0.1511945E-04)
 number of electron     400.9999919 magnetization 
 augmentation part      400.9999919 magnetization 

 Free energy of the ion-electron system (eV)
  ---------------------------------------------------
  alpha Z        PSCENC =       751.11399840
  Ewald energy   TEWEN  =     99767.57570804
  -Hartree energ DENC   =   -138220.07259738
  -exchange      EXHF   =         0.00000000
  -V(xc)+E(xc)   XCENC  =      -331.21508265
  PAW double counting   =     39854.04880549   -38386.63535028
  entropy T*S    EENTRO =         0.00000000
  eigenvalues    EBANDS =     -1348.30613886
  atomic energy  EATOM  =     37814.20817036
  Solvation  Ediel_sol  =         0.00000000
  ---------------------------------------------------
  free energy    TOTEN  =       -99.28248689 eV

  energy without entropy =      -99.28248689  energy(sigma->0) =      -99.28248689


--------------------------------------------------------------------------------------------------------




--------------------------------------- Iteration      1(   9)  ---------------------------------------


    EDDIAG:  cpu time    1.3993: real time    1.3997
  RMM-DIIS:  cpu time    3.1627: real time    3.1636
    ORTHCH:  cpu time    0.2606: real time    0.2609
 BZINTS: Fermi energy:    0.726874;  401.000000 electrons
         Band energy:-0.134831E+04;  BLOECHL correction:   -0.029844
       DOS:  cpu time    0.0096: real time    0.0096
    --------------------------------------------
      LOOP:  cpu time    4.8322: real time    4.8338

 eigenvalue-minimisations  :  3387
 total energy-change (2. order) :-0.3385998E-05  (-0.3390565E-05)
 number of electron     400.9999919 magnetization 
 augmentation part      400.9999919 magnetization 

 Free energy of the ion-electron system (eV)
  ---------------------------------------------------
  alpha Z        PSCENC =       751.11399840
  Ewald energy   TEWEN  =     99767.57570804
  -Hartree energ DENC   =   -138220.07259738
  -exchange      EXHF   =         0.00000000
  -V(xc)+E(xc)   XCENC  =      -331.21508265
  PAW double counting   =     39854.04880549   -38386.63535028
  entropy T*S    EENTRO =         0.00000000
  eigenvalues    EBANDS =     -1348.30614224
  atomic energy  EATOM  =     37814.20817036
  Solvation  Ediel_sol  =         0.00000000
  ---------------------------------------------------
  free energy    TOTEN  =       -99.28249027 eV

  energy without entropy =      -99.28249027  energy(sigma->0) =      -99.28249027


--------------------------------------------------------------------------------------------------------




 average (electrostatic) potential at core
  the test charge radii are     1.1249  0.9791  0.7215
  (the norm of the test charge is              1.0000)
       1 -78.1701       2 -78.1462       3 -78.1461       4 -78.1462       5 -78.1405
       6 -78.1459       7 -78.1461       8 -78.1459       9 -78.1679      10 -78.3868
      11 -78.3755      12 -78.3865      13 -78.3756      14 -78.3752      15 -78.3951
      16 -78.3865      17 -78.3951      18 -78.3952      19 -78.3812      20 -78.4042
      21 -78.4038      22 -78.3931      23 -78.4039      24 -78.3927      25 -78.3812
      26 -78.3812      27 -78.3930      28 -78.1284      29 -78.1052      30 -78.1051
      31 -78.1054      32 -78.1049      33 -78.1054      34 -78.1050      35 -78.1425
      36 -90.6607      37 -74.5136
 
 
 
 E-fermi :   0.7269     XC(G=0):  -5.9075     alpha+bet : -5.5830

 Fermi energy:         0.7268742435

 k-point     1 :       0.0000    0.0000    0.0000
  band No.  band energies     occupation 
      1     -16.5189      2.00000
      2      -6.4007      2.00000
      3      -5.5263      2.00000
      4      -5.2297      2.00000
      5      -5.1446      2.00000
      6      -5.1147      2.00000
      7      -5.1147      2.00000
      8      -5.1142      2.00000
      9      -5.1080      2.00000
     10      -5.1080      2.00000
     11      -5.0947      2.00000
     12      -5.0770      2.00000
     13      -5.0720      2.00000
     14      -5.0719      2.00000
     15      -5.0574      2.00000
     16      -5.0574      2.00000
     17      -5.0290      2.00000
     18      -4.9200      2.00000
     19      -4.9026      2.00000
     20      -4.8999      2.00000
     21      -4.8998      2.00000
     22      -4.8959      2.00000
     23      -4.8959      2.00000
     24      -4.7242      2.00000
     25      -4.7129      2.00000
     26      -4.7128      2.00000
     27      -4.7049      2.00000
     28      -4.6836      2.00000
     29      -4.6705      2.00000
     30      -4.6643      2.00000
     31      -4.6643      2.00000
     32      -4.6598      2.00000
     33      -4.6598      2.00000
     34      -4.6444      2.00000
     35      -4.6444      2.00000
     36      -4.5689      2.00000
     37      -4.5487      2.00000
     38      -4.5486      2.00000
     39      -4.5249      2.00000
     40      -4.3882      2.00000
     41      -4.3881      2.00000
     42      -4.3325      2.00000
     43      -4.3324      2.00000
     44      -4.3235      2.00000
     45      -4.3133      2.00000
     46      -4.3133      2.00000
     47      -4.2919      2.00000
     48      -4.2918      2.00000
     49      -4.2905      2.00000
     50      -4.2431      2.00000
     51      -4.2430      2.00000
     52      -4.1764      2.00000
     53      -4.1639      2.00000
     54      -4.1502      2.00000
     55      -4.1411      2.00000
     56      -3.9282      2.00000
     57      -3.9227      2.00000
     58      -3.9227      2.00000
     59      -3.9227      2.00000
     60      -3.9115      2.00000
     61      -3.9115      2.00000
     62      -3.8834      2.00000
     63      -3.8834      2.00000
     64      -3.8807      2.00000
     65      -3.8617      2.00000
     66      -3.8617      2.00000
     67      -3.7661      2.00000
     68      -3.7660      2.00000
     69      -3.7504      2.00000
     70      -3.7504      2.00000
     71      -3.7440      2.00000
     72      -3.7432      2.00000
     73      -3.7344      2.00000
     74      -3.7344      2.00000
     75      -3.7174      2.00000
     76      -3.7173      2.00000
     77      -3.7019      2.00000
     78      -3.6839      2.00000
     79      -3.6839      2.00000
     80      -3.6783      2.00000
     81      -3.6563      2.00000
     82      -3.6555      2.00000
     83      -3.6554      2.00000
     84      -3.6008      2.00000
     85      -3.6008      2.00000
     86      -3.5468      2.00000
     87      -3.5468      2.00000
     88      -3.5363      2.00000
     89      -3.5187      2.00000
     90      -3.5187      2.00000
     91      -3.4912      2.00000
     92      -3.4912      2.00000
     93      -3.4723      2.00000
     94      -3.4679      2.00000
     95      -3.4679      2.00000
     96      -3.4540      2.00000
     97      -3.4540      2.00000
     98      -3.4263      2.00000
     99      -3.4263      2.00000
    100      -3.2325      2.00000
    101      -3.2143      2.00000
    102      -3.2129      2.00000
    103      -3.2129      2.00000
    104      -3.1974      2.00000
    105      -3.1855      2.00000
    106      -3.1855      2.00000
    107      -3.1633      2.00000
    108      -3.1633      2.00000
    109      -3.1433      2.00000
    110      -3.1312      2.00000
    111      -3.1312      2.00000
    112      -3.0838      2.00000
    113      -3.0796      2.00000
    114      -3.0464      2.00000
    115      -3.0464      2.00000
    116      -2.9404      2.00000
    117      -2.9404      2.00000
    118      -2.9167      2.00000
    119      -2.9167      2.00000
    120      -2.9146      2.00000
    121      -2.9146      2.00000
    122      -2.8951      2.00000
    123      -2.8693      2.00000
    124      -2.8692      2.00000
    125      -2.8425      2.00000
    126      -2.8381      2.00000
    127      -2.8381      2.00000
    128      -2.8188      2.00000
    129      -2.8188      2.00000
    130      -2.8107      2.00000
    131      -2.8092      2.00000
    132      -2.8041      2.00000
    133      -2.8040      2.00000
    134      -2.8040      2.00000
    135      -2.7292      2.00000
    136      -2.7291      2.00000
    137      -2.6261      2.00000
    138      -2.6197      2.00000
    139      -2.6196      2.00000
    140      -2.6057      2.00000
    141      -2.6057      2.00000
    142      -2.6031      2.00000
    143      -2.6026      2.00000
    144      -2.6026      2.00000
    145      -2.5954      2.00000
    146      -2.5923      2.00000
    147      -2.5730      2.00000
    148      -2.5729      2.00000
    149      -2.5226      2.00000
    150      -2.5137      2.00000
    151      -2.5137      2.00000
    152      -2.5111      2.00000
    153      -2.5057      2.00000
    154      -2.5057      2.00000
    155      -2.5016      2.00000
    156      -2.4680      2.00000
    157      -2.4680      2.00000
    158      -2.4672      2.00000
    159      -2.4460      2.00000
    160      -2.4459      2.00000
    161      -2.4251      2.00000
    162      -2.4114      2.00000
    163      -2.4050      2.00000
    164      -2.4050      2.00000
    165      -2.4030      2.00000
    166      -2.3853      2.00000
    167      -2.3853      2.00000
    168      -2.3738      2.00000
    169      -2.3602      2.00000
    170      -2.3496      2.00000
    171      -2.3496      2.00000
    172      -2.3358      2.00000
    173      -2.3302      2.00000
    174      -2.3302      2.00000
    175      -2.2809      2.00000
    176      -2.2808      2.00000
    177      -2.2478      2.00000
    178      -2.2477      2.00000
    179      -2.2172      2.00000
    180      -2.2171      2.00000
    181      -2.1958      2.00000
    182      -2.1904      2.00000
    183      -2.1302      2.00000
    184      -2.1134      2.00000
    185      -2.1133      2.00000
    186      -2.0883      2.00000
    187      -1.9830      2.00000
    188      -1.9830      2.00000
    189      -1.3675      2.00000
    190      -1.3674      2.00000
    191      -1.3410      2.00000
    192      -1.3005      2.00000
    193      -1.3004      2.00000
    194      -1.2819      2.00000
    195      -0.3819      2.00000
    196      -0.3819      2.00000
    197      -0.1481      2.00000
    198       0.0098      2.00000
    199       0.1728      2.00000
    200       0.1728      2.00000
    201       0.3907      2.00000
    202       0.4229      2.00000
    203       0.4230      2.58147
    204       0.9540      0.00000
    205       0.9540      0.00000
    206       1.1446      0.00000
    207       1.6116      0.00000
    208       2.6220      0.00000
    209       2.6787      0.00000
    210       2.6787      0.00000
    211       2.8193      0.00000
    212       2.8193      0.00000
    213       3.5195      0.00000
    214       3.9783      0.00000
    215       3.9935      0.00000
    216       4.1485      0.00000
    217       4.1485      0.00000
    218       4.1702      0.00000
    219       4.1702      0.00000
    220       4.8942      0.00000
    221       4.8942      0.00000
    222       4.9512      0.00000
    223       4.9512      0.00000
    224       4.9682      0.00000
    225       4.9839      0.00000
    226       5.0620      0.00000
    227       5.0620      0.00000
    228       5.1056      0.00000
    229       5.2161      0.00000
    230       5.2161      0.00000
    231       5.2920      0.00000
    232       5.3000      0.00000
    233       5.6847      0.00000
    234       6.5531      0.00000
    235       6.5595      0.00000
    236       6.5595      0.00000
    237       6.7026      0.00000
    238       6.7166      0.00000
    239       6.7167      0.00000
    240       6.8083      0.00000
    241       6.9727      0.00000
    242       6.9996      0.00000
    243       6.9998      0.00000
    244       7.0287      0.00000
    245       7.0744      0.00000
    246       7.0746      0.00000
    247       7.1708      0.00000
    248       7.2560      0.00000
    249       7.2575      0.00000
    250       7.2705      0.00000
    251       7.3271      0.00000
    252       7.3383      0.00000

 k-point     2 :       0.1250   -0.0000    0.0000
  band No.  band energies     occupation 
      1     -16.5189      2.00000
      2      -6.3549      2.00000
      3      -5.4863      2.00000
      4      -5.1998      2.00000
      5      -5.1717      2.00000
      6      -5.1495      2.00000
      7      -5.1272      2.00000
      8      -5.1113      2.00000
      9      -5.1095      2.00000
     10      -5.0936      2.00000
     11      -5.0871      2.00000
     12      -5.0814      2.00000
     13      -5.0690      2.00000
     14      -5.0245      2.00000
     15      -5.0095      2.00000
     16      -4.9950      2.00000
     17      -4.9921      2.00000
     18      -4.9764      2.00000
     19      -4.9488      2.00000
     20      -4.9458      2.00000
     21      -4.8469      2.00000
     22      -4.8349      2.00000
     23      -4.7945      2.00000
     24      -4.7861      2.00000
     25      -4.7699      2.00000
     26      -4.7615      2.00000
     27      -4.7137      2.00000
     28      -4.7079      2.00000
     29      -4.6764      2.00000
     30      -4.6686      2.00000
     31      -4.6366      2.00000
     32      -4.6258      2.00000
     33      -4.6243      2.00000
     34      -4.5952      2.00000
     35      -4.5621      2.00000
     36      -4.5621      2.00000
     37      -4.5283      2.00000
     38      -4.5240      2.00000
     39      -4.4785      2.00000
     40      -4.3989      2.00000
     41      -4.3950      2.00000
     42      -4.3818      2.00000
     43      -4.3785      2.00000
     44      -4.3636      2.00000
     45      -4.3360      2.00000
     46      -4.3333      2.00000
     47      -4.3189      2.00000
     48      -4.3102      2.00000
     49      -4.2655      2.00000
     50      -4.2361      2.00000
     51      -4.2155      2.00000
     52      -4.1665      2.00000
     53      -4.1527      2.00000
     54      -4.1217      2.00000
     55      -4.1130      2.00000
     56      -3.9531      2.00000
     57      -3.9439      2.00000
     58      -3.9422      2.00000
     59      -3.9270      2.00000
     60      -3.9177      2.00000
     61      -3.9152      2.00000
     62      -3.9038      2.00000
     63      -3.8901      2.00000
     64      -3.8786      2.00000
     65      -3.8763      2.00000
     66      -3.8447      2.00000
     67      -3.8035      2.00000
     68      -3.7843      2.00000
     69      -3.7814      2.00000
     70      -3.7718      2.00000
     71      -3.7694      2.00000
     72      -3.7419      2.00000
     73      -3.7346      2.00000
     74      -3.7311      2.00000
     75      -3.7250      2.00000
     76      -3.7157      2.00000
     77      -3.7106      2.00000
     78      -3.6893      2.00000
     79      -3.6844      2.00000
     80      -3.6738      2.00000
     81      -3.6726      2.00000
     82      -3.6494      2.00000
     83      -3.6482      2.00000
     84      -3.6269      2.00000
     85      -3.6079      2.00000
     86      -3.6003      2.00000
     87      -3.5975      2.00000
     88      -3.5795      2.00000
     89      -3.5494      2.00000
     90      -3.5483      2.00000
     91      -3.5046      2.00000
     92      -3.4967      2.00000
     93      -3.4692      2.00000
     94      -3.4674      2.00000
     95      -3.4233      2.00000
     96      -3.4136      2.00000
     97      -3.3648      2.00000
     98      -3.3217      2.00000
     99      -3.3203      2.00000
    100      -3.2848      2.00000
    101      -3.2798      2.00000
    102      -3.2664      2.00000
    103      -3.2437      2.00000
    104      -3.2401      2.00000
    105      -3.2137      2.00000
    106      -3.1930      2.00000
    107      -3.1853      2.00000
    108      -3.1598      2.00000
    109      -3.1479      2.00000
    110      -3.1226      2.00000
    111      -3.1203      2.00000
    112      -3.0963      2.00000
    113      -3.0952      2.00000
    114      -3.0549      2.00000
    115      -3.0413      2.00000
    116      -3.0093      2.00000
    117      -2.9989      2.00000
    118      -2.9876      2.00000
    119      -2.9707      2.00000
    120      -2.9621      2.00000
    121      -2.9342      2.00000
    122      -2.9201      2.00000
    123      -2.9009      2.00000
    124      -2.8977      2.00000
    125      -2.8864      2.00000
    126      -2.8812      2.00000
    127      -2.8703      2.00000
    128      -2.8502      2.00000
    129      -2.8385      2.00000
    130      -2.8383      2.00000
    131      -2.8176      2.00000
    132      -2.8025      2.00000
    133      -2.7835      2.00000
    134      -2.7831      2.00000
    135      -2.7685      2.00000
    136      -2.7457      2.00000
    137      -2.7380      2.00000
    138      -2.7259      2.00000
    139      -2.7046      2.00000
    140      -2.7015      2.00000
    141      -2.6704      2.00000
    142      -2.6595      2.00000
    143      -2.6345      2.00000
    144      -2.6019      2.00000
    145      -2.6014      2.00000
    146      -2.5964      2.00000
    147      -2.5782      2.00000
    148      -2.5523      2.00000
    149      -2.5461      2.00000
    150      -2.5442      2.00000
    151      -2.5329      2.00000
    152      -2.5289      2.00000
    153      -2.5174      2.00000
    154      -2.5106      2.00000
    155      -2.4966      2.00000
    156      -2.4925      2.00000
    157      -2.4773      2.00000
    158      -2.4750      2.00000
    159      -2.4645      2.00000
    160      -2.4584      2.00000
    161      -2.4481      2.00000
    162      -2.4372      2.00000
    163      -2.4199      2.00000
    164      -2.4196      2.00000
    165      -2.3974      2.00000
    166      -2.3898      2.00000
    167      -2.3742      2.00000
    168      -2.3604      2.00000
    169      -2.3550      2.00000
    170      -2.3337      2.00000
    171      -2.3235      2.00000
    172      -2.3224      2.00000
    173      -2.2778      2.00000
    174      -2.2777      2.00000
    175      -2.2642      2.00000
    176      -2.2640      2.00000
    177      -2.2558      2.00000
    178      -2.2389      2.00000
    179      -2.2201      2.00000
    180      -2.2138      2.00000
    181      -2.1898      2.00000
    182      -2.1797      2.00000
    183      -2.1704      2.00000
    184      -2.1525      2.00000
    185      -2.0908      2.00000
[...]
  0.000   0.000   0.000   0.000   0.000   0.000   0.000   0.000   0.000   0.000   0.000   0.000   0.000   0.000   0.000   0.000
  0.000   0.000   0.000   0.000   0.000   0.000   0.000   0.000   0.000   0.000   0.000   0.000   0.000   0.000   0.000   0.000
  0.000   0.000   0.000   0.000   0.000   0.000   0.000   0.000   0.000   0.000   0.000   0.000   0.000   0.000   0.000   0.000
  0.000   0.000   0.000   0.000   0.000   0.000   0.000   0.000   0.000   0.000   0.000   0.000   0.000   0.000   0.000   0.000
  0.000   0.000   0.000   0.000   0.000   0.000   0.000   0.000   0.000   0.000   0.000   0.000   0.000   0.000   0.000   0.000
  0.000   0.000   0.000   0.000   0.000   0.000   0.000   0.000   0.000   0.000   1.000   0.000   0.000   0.000   0.000   0.000
  0.000   0.000   0.000   0.000   0.000   0.000   0.000   0.000   0.000   0.000   0.000   0.000   0.000   0.000   0.000   0.000
  0.000   0.000   0.000   0.000   0.000   0.000   0.000   0.000   0.000   0.000   0.000   0.000   0.000   0.000   0.000   0.000
  0.000   0.000   0.000   0.000   0.000   0.000   0.000   0.000   0.000   0.000   0.000   0.000   0.000   0.000   0.000   0.000
  0.000   0.000   0.000   0.000   0.000   0.000   0.000   0.000   0.000   0.000   0.000   0.000   0.000   0.000   0.000   0.000
  0.000   0.000   0.000   0.000   0.000   0.000   0.000   0.000   0.000   0.000   0.000   0.000   0.000   0.000   0.000   0.000
  0.000   0.000   0.000   0.000   0.000   0.000   0.000   0.000   0.000   0.000   0.000   0.000   0.000   0.000   0.000   0.000
  0.000   0.000   0.000   0.000   0.000   0.000   0.000   0.000   0.000   0.000   0.000   0.000   0.000   0.000   0.000   0.000


------------------------ aborting loop because EDIFF is reached ----------------------------------------





 total charge

# of ion       s       p       d       tot
------------------------------------------
    1        0.417   0.202   9.178   9.797
    2        0.417   0.203   9.177   9.797
    3        0.417   0.203   9.177   9.797
    4        0.417   0.203   9.177   9.797
    5        0.415   0.205   9.175   9.794
    6        0.417   0.203   9.177   9.797
    7        0.417   0.203   9.177   9.797
    8        0.417   0.203   9.177   9.797
    9        0.415   0.202   9.179   9.796
   10        0.404   0.270   9.164   9.838
   11        0.406   0.269   9.167   9.842
   12        0.404   0.270   9.164   9.838
   13        0.406   0.269   9.167   9.842
   14        0.406   0.269   9.167   9.842
   15        0.403   0.270   9.165   9.838
   16        0.404   0.270   9.164   9.838
   17        0.403   0.270   9.165   9.838
   18        0.403   0.270   9.165   9.838
   19        0.401   0.271   9.162   9.834
   20        0.421   0.288   9.154   9.863
   21        0.421   0.288   9.154   9.863
   22        0.404   0.270   9.168   9.842
   23        0.421   0.288   9.154   9.863
   24        0.404   0.270   9.168   9.842
   25        0.401   0.271   9.162   9.834
   26        0.401   0.271   9.162   9.834
   27        0.404   0.270   9.168   9.842
   28        0.415   0.193   9.182   9.790
   29        0.392   0.199   9.190   9.781
   30        0.392   0.199   9.190   9.781
   31        0.392   0.199   9.190   9.781
   32        0.392   0.199   9.190   9.781
   33        0.392   0.199   9.190   9.781
   34        0.392   0.199   9.190   9.781
   35        0.412   0.196   9.179   9.787
   36        0.482   0.491   8.356   9.329
   37        1.601   3.236   0.000   4.837
--------------------------------------------------
tot         16.330  12.049 329.393 357.772
 
    CHARGE:  cpu time    0.3372: real time    0.3374
    FORLOC:  cpu time    0.0202: real time    0.0202
    FORNL :  cpu time    1.4749: real time    1.4752
    STRESS:  cpu time    4.4084: real time    4.4099
    FORCOR:  cpu time    0.0446: real time    0.0446
    FORHAR:  cpu time    0.0165: real time    0.0166
    OFIELD:  cpu time    0.0002: real time    0.0002

  FORCE on cell =-STRESS in cart. coord.  units (eV):
  Direction    XX          YY          ZZ          XY          YZ          ZX
  --------------------------------------------------------------------------------------
  Alpha Z   751.11400   751.11400   751.11400
  Ewald  122680.37635122680.37647************     0.00005     0.00001     0.00004
  Hartree133124.01309133124.01314************     0.00002    -0.00000     0.00003
  E(xc)   -2113.76262 -2113.76263 -2118.51420     0.00000     0.00000     0.00000
  Local  ************************266949.55223     0.00065    -0.00006    -0.00018
  n-local  -362.63917  -345.45737  -356.86629    10.02084    -0.36601     0.37069
  augment  3406.84172  3406.84209  3402.96196    -0.00034     0.00001     0.00003
  Kinetic  4976.15119  4979.22557  4989.37600     4.34830     1.21201    -0.40006
  Fock        0.00000     0.00000     0.00000     0.00000     0.00000     0.00000
  -------------------------------------------------------------------------------------
  Total      -7.78746    -7.78746     0.39859    -0.00000     0.00000    -0.00000
  in kB      -8.40501    -8.40501     0.43020    -0.00000     0.00000    -0.00000
  external pressure =       -5.46 kB  Pullay stress =        0.00 kB


 VOLUME and BASIS-vectors are now :
 -----------------------------------------------------------------------------
  energy-cutoff  :      500.00
  volume of cell :     1484.46
      direct lattice vectors                 reciprocal lattice vectors
     8.791366577  0.000000000  0.000000000     0.113747958 -0.065672414  0.000000000
     4.395683289  7.613546790  0.000000000     0.000000000  0.131344829  0.000000000
     0.000000000  0.000000000 22.178121567     0.000000000  0.000000000  0.045089481

  length of vectors
     8.791366577  8.791366577 22.178121567     0.131344829  0.131344829  0.045089481


 FORCES acting on ions
    electron-ion (+dipol)            ewald-force                    non-local-force                 convergence-correction
 -----------------------------------------------------------------------------------------------
   0.459E-04 -.283E-04 0.253E+04   -.954E-04 0.593E-04 -.252E+04   0.508E-17 0.955E-18 -.210E+01   -.132E-03 -.177E-03 -.154E+00
   0.553E+00 0.594E+00 0.253E+04   -.651E+00 -.673E+00 -.253E+04   0.392E-01 0.613E-01 -.166E+01   0.605E-01 0.272E-01 -.184E+00
   -.553E+00 0.594E+00 0.253E+04   0.651E+00 -.673E+00 -.253E+04   -.392E-01 0.613E-01 -.166E+01   -.610E-01 0.292E-01 -.184E+00
   0.791E+00 0.182E+00 0.253E+04   -.908E+00 -.227E+00 -.253E+04   0.727E-01 0.332E-02 -.166E+01   0.540E-01 0.390E-01 -.184E+00
   -.545E-05 -.185E-04 0.253E+04   0.981E-04 -.200E-05 -.253E+04   -.113E-17 -.233E-17 -.149E+01   0.631E-02 0.384E-02 -.165E+00
   -.791E+00 0.182E+00 0.253E+04   0.908E+00 -.228E+00 -.253E+04   -.727E-01 0.332E-02 -.166E+01   -.555E-01 0.399E-01 -.183E+00
   0.238E+00 -.776E+00 0.253E+04   -.257E+00 0.900E+00 -.253E+04   0.334E-01 -.646E-01 -.166E+01   -.480E-02 -.669E-01 -.184E+00
   -.238E+00 -.776E+00 0.253E+04   0.257E+00 0.900E+00 -.253E+04   -.334E-01 -.646E-01 -.166E+01   0.648E-02 -.679E-01 -.183E+00
   0.362E-04 -.131E-04 0.253E+04   0.792E-04 -.643E-04 -.253E+04   -.549E-18 0.479E-17 -.199E+01   -.671E-02 -.345E-02 -.209E+00
   0.587E+01 0.339E+01 0.876E+03   -.567E+01 -.328E+01 -.875E+03   -.222E+00 -.128E+00 -.725E+00   0.243E-01 0.140E-01 -.168E+00
   -.295E-04 0.701E+01 0.887E+03   0.420E-04 -.707E+01 -.887E+03   0.423E-12 0.644E-01 -.290E+00   0.643E-02 -.209E-01 -.185E+00
   -.587E+01 0.339E+01 0.876E+03   0.567E+01 -.328E+01 -.875E+03   0.222E+00 -.128E+00 -.725E+00   -.262E-01 0.155E-01 -.168E+00
   0.607E+01 -.350E+01 0.887E+03   -.613E+01 0.354E+01 -.887E+03   0.557E-01 -.322E-01 -.290E+00   -.150E-01 0.160E-01 -.185E+00
   -.607E+01 -.350E+01 0.887E+03   0.613E+01 0.354E+01 -.887E+03   -.557E-01 -.322E-01 -.290E+00   0.261E-01 0.152E-01 -.184E+00
   0.166E-04 0.970E+00 0.877E+03   -.109E-03 -.110E+01 -.876E+03   0.458E-12 0.697E-01 -.709E+00   -.206E-02 0.402E-01 -.174E+00
   -.786E-05 -.678E+01 0.876E+03   0.208E-04 0.655E+01 -.875E+03   0.168E-11 0.256E+00 -.725E+00   0.334E-03 -.304E-01 -.168E+00
   0.840E+00 -.485E+00 0.877E+03   -.957E+00 0.552E+00 -.876E+03   0.603E-01 -.348E-01 -.709E+00   0.338E-01 -.219E-01 -.174E+00
   -.840E+00 -.485E+00 0.877E+03   0.956E+00 0.552E+00 -.876E+03   -.603E-01 -.348E-01 -.709E+00   -.340E-01 -.196E-01 -.173E+00
   0.428E-04 0.447E+01 -.815E+03   -.131E-03 -.455E+01 0.815E+03   0.706E-12 0.108E+00 0.668E+00   -.213E-02 -.567E-02 -.572E-01
   0.437E+02 0.252E+02 -.752E+03   -.427E+02 -.246E+02 0.752E+03   -.890E+00 -.514E+00 -.560E+00   -.548E-01 -.320E-01 -.175E+00
   -.437E+02 0.252E+02 -.752E+03   0.427E+02 -.246E+02 0.752E+03   0.890E+00 -.514E+00 -.560E+00   0.659E-01 -.308E-01 -.175E+00
   0.186E+02 -.108E+02 -.800E+03   -.186E+02 0.107E+02 0.799E+03   0.109E-01 -.632E-02 0.565E+00   -.466E-01 0.271E-01 -.131E+00
   -.630E-04 -.504E+02 -.752E+03   0.487E-04 0.493E+02 0.752E+03   0.675E-11 0.103E+01 -.560E+00   0.686E-02 0.727E-01 -.175E+00
   -.186E+02 -.108E+02 -.800E+03   0.186E+02 0.107E+02 0.799E+03   -.109E-01 -.632E-02 0.565E+00   0.448E-01 0.261E-01 -.130E+00
   -.387E+01 -.224E+01 -.815E+03   0.394E+01 0.227E+01 0.815E+03   -.932E-01 -.538E-01 0.668E+00   0.570E-02 0.361E-02 -.576E-01
   0.387E+01 -.224E+01 -.815E+03   -.394E+01 0.227E+01 0.815E+03   0.932E-01 -.538E-01 0.668E+00   -.590E-02 0.976E-03 -.576E-01
   0.212E-04 0.215E+02 -.800E+03   0.109E-03 -.214E+02 0.799E+03   0.830E-13 0.126E-01 0.565E+00   -.588E-03 -.534E-01 -.130E+00
   0.552E-04 -.376E-04 -.250E+04   -.116E-03 0.783E-04 0.249E+04   0.600E-18 -.312E-18 0.198E+01   -.134E-02 0.487E-03 0.113E+00
   0.450E+02 0.772E+02 -.248E+04   -.451E+02 -.776E+02 0.248E+04   0.192E+00 0.486E+00 0.257E+01   -.203E+00 -.218E+00 -.131E+00
   -.450E+02 0.772E+02 -.248E+04   0.451E+02 -.776E+02 0.248E+04   -.192E+00 0.486E+00 0.257E+01   0.213E+00 -.215E+00 -.132E+00
   0.894E+02 0.352E+00 -.248E+04   -.898E+02 -.198E+00 0.248E+04   0.517E+00 -.772E-01 0.257E+01   -.296E+00 -.765E-01 -.131E+00
   -.894E+02 0.352E+00 -.248E+04   0.898E+02 -.198E+00 0.248E+04   -.517E+00 -.772E-01 0.257E+01   0.293E+00 -.757E-01 -.132E+00
   0.444E+02 -.776E+02 -.248E+04   -.447E+02 0.778E+02 0.248E+04   0.325E+00 -.409E+00 0.257E+01   -.802E-01 0.294E+00 -.132E+00
   -.444E+02 -.776E+02 -.248E+04   0.447E+02 0.778E+02 0.248E+04   -.325E+00 -.409E+00 0.257E+01   0.923E-01 0.292E+00 -.132E+00
   0.213E-04 -.120E-04 -.250E+04   0.107E-03 -.666E-04 0.249E+04   -.120E-17 -.114E-17 0.189E+01   -.799E-02 -.279E-02 -.221E-01
   -.490E-04 -.338E-04 -.189E+04   0.957E-04 0.140E-04 0.189E+04   -.388E-17 0.378E-17 -.360E+01   0.106E-01 0.494E-02 -.736E+00
   0.177E-03 -.963E-04 -.176E+04   0.318E-04 0.544E-06 0.178E+04   -.182E-17 -.482E-18 -.246E+02   0.396E-02 0.182E-02 0.107E+00
 -----------------------------------------------------------------------------------------------
   0.536E-03 -.803E-03 0.333E+02   -.666E-15 -.111E-12 0.387E-11   0.326E-15 0.113E-15 -.277E+02   0.513E-01 0.224E-01 -.563E+01
 
 
 POSITION                                       TOTAL-FORCE (eV/Angst)
 -----------------------------------------------------------------------------------
      0.00000      0.00000      5.28219         0.000000     -0.000000      0.018409
      2.93046      0.00000      5.28219         0.002137      0.010519      0.044366
      5.86091      0.00000      5.28219        -0.002137      0.010519      0.044366
      1.46523      2.53785      5.28219         0.010178     -0.003409      0.044366
      4.39568      2.53785      5.28219         0.000000     -0.000000      0.056628
      7.32614      2.53785      5.28219        -0.010178     -0.003409      0.044366
      2.93046      5.07570      5.28219         0.008041     -0.007110      0.044366
      5.86091      5.07570      5.28219        -0.008041     -0.007110      0.044366
      8.79137      5.07570      5.28219        -0.000000     -0.000000      0.029826
      1.46523      0.84595      7.67490         0.003085      0.001781      0.009661
      4.39568      0.84595      7.67490        -0.000000     -0.024342     -0.054866
      7.32614      0.84595      7.67490        -0.003085      0.001781      0.009661
      2.93046      3.38380      7.67490        -0.021080      0.012171     -0.054866
      5.86091      3.38380      7.67490         0.021080      0.012171     -0.054866
      8.79137      3.38380      7.67490        -0.000000     -0.024882     -0.032506
      4.39568      5.92165      7.67490        -0.000000     -0.003562      0.009661
      7.32614      5.92165      7.67490        -0.021548      0.012441     -0.032506
     10.25659      5.92165      7.67490         0.021548      0.012441     -0.032506
      8.79137      1.69533     10.05818         0.000000      0.025374      0.037397
      2.93805      1.69629     10.04232         0.025042      0.014458     -0.133535
      5.85331      1.69629     10.04232        -0.025042      0.014458     -0.133535
     10.25424      4.23111     10.04634         0.020336     -0.011741     -0.009946
      4.39568      4.22098     10.04232        -0.000000     -0.028916     -0.133535
      7.32849      4.23111     10.04634        -0.020336     -0.011741     -0.009946
     11.71886      6.76588     10.05818        -0.021975     -0.012687      0.037397
      5.86388      6.76588     10.05818         0.021975     -0.012687      0.037397
      8.79137      6.76488     10.04634         0.000000      0.023482     -0.009946
      0.00000      0.00000     12.42348         0.000000     -0.000000     -0.041139
      2.96241      0.05505     12.41819        -0.072188     -0.132217     -0.001658
      5.82895      0.05505     12.41819         0.072188     -0.132217     -0.001658
      1.52888      2.53800     12.41819        -0.150597      0.003592     -0.001658
      7.26249      2.53800     12.41819         0.150597      0.003592     -0.001658
      2.96215      5.02050     12.41819        -0.078409      0.128625     -0.001658
      5.82922      5.02050     12.41819         0.078409      0.128625     -0.001658
      8.79137      5.07570     12.42030         0.000000     -0.000000     -0.014814
      4.39568      2.53785     12.13895        -0.000000     -0.000000      0.220483
      4.39568      2.53785     13.80968        -0.000000     -0.000000      0.025738
 -----------------------------------------------------------------------------------
    total drift:                                0.051843      0.021579     -0.002608


--------------------------------------------------------------------------------------------------------



  FREE ENERGIE OF THE ION-ELECTRON SYSTEM (eV)
  ---------------------------------------------------
  free  energy   TOTEN  =       -99.28249027 eV

  energy  without entropy=      -99.28249027  energy(sigma->0) =      -99.28249027
 


--------------------------------------------------------------------------------------------------------


    POTLOK:  cpu time    0.0537: real time    0.0537


--------------------------------------------------------------------------------------------------------


 stress matrix after NEB project (eV)
     -7.78746     -0.00000     -0.00000
     -0.00000     -7.78746      0.00000
     -0.00000      0.00000      0.39859
  FORCES: max atom, RMS     0.025738    0.004231
  FORCE total and by dimension    0.025738    0.025738
  Stress total and by dimension   11.020339    7.787458
     LOOP+:  cpu time   69.1490: real time   69.1801
 -----------------------------------------------------------------------------
|                                                                             |
|           W    W    AA    RRRRR   N    N  II  N    N   GGGG   !!!           |
|           W    W   A  A   R    R  NN   N  II  NN   N  G    G  !!!           |
|           W    W  A    A  R    R  N N  N  II  N N  N  G       !!!           |
|           W WW W  AAAAAA  RRRRR   N  N N  II  N  N N  G  GGG   !            |
|           WW  WW  A    A  R   R   N   NN  II  N   NN  G    G                |
|           W    W  A    A  R    R  N    N  II  N    N   GGGG   !!!           |
|                                                                             |
|     Tetrahedron method does not include variations of the Fermi             |
|     occupations, so forces and stress will be inaccurate. We suggest        |
|     using a different smearing scheme ISMEAR = 1 or 2 for metals in         |
|     relaxations.                                                            |
|                                                                             |
 -----------------------------------------------------------------------------

    4ORBIT:  cpu time    0.0000: real time    0.0000



 total charge

# of ion       s       p       d       tot
------------------------------------------
    1        0.417   0.202   9.178   9.797
    2        0.417   0.203   9.177   9.797
    3        0.417   0.203   9.177   9.797
    4        0.417   0.203   9.177   9.797
    5        0.415   0.205   9.175   9.794
    6        0.417   0.203   9.177   9.797
    7        0.417   0.203   9.177   9.797
    8        0.417   0.203   9.177   9.797
    9        0.415   0.202   9.179   9.796
   10        0.404   0.270   9.164   9.838
   11        0.406   0.269   9.167   9.842
   12        0.404   0.270   9.164   9.838
   13        0.406   0.269   9.167   9.842
   14        0.406   0.269   9.167   9.842
   15        0.403   0.270   9.165   9.838
   16        0.404   0.270   9.164   9.838
   17        0.403   0.270   9.165   9.838
   18        0.403   0.270   9.165   9.838
   19        0.401   0.271   9.162   9.834
   20        0.421   0.288   9.154   9.863
   21        0.421   0.288   9.154   9.863
   22        0.404   0.270   9.168   9.842
   23        0.421   0.288   9.154   9.863
   24        0.404   0.270   9.168   9.842
   25        0.401   0.271   9.162   9.834
   26        0.401   0.271   9.162   9.834
   27        0.404   0.270   9.168   9.842
   28        0.415   0.193   9.182   9.790
   29        0.392   0.199   9.190   9.781
   30        0.392   0.199   9.190   9.781
   31        0.392   0.199   9.190   9.781
   32        0.392   0.199   9.190   9.781
   33        0.392   0.199   9.190   9.781
   34        0.392   0.199   9.190   9.781
   35        0.412   0.196   9.179   9.787
   36        0.482   0.491   8.356   9.329
   37        1.601   3.236   0.000   4.837
--------------------------------------------------
tot         16.330  12.049 329.393 357.772
 
 BZINTS: Fermi energy:    0.726874;  401.000000 electrons
         Band energy:-0.134831E+04;  BLOECHL correction:   -0.029844

 total amount of memory used by VASP MPI-rank0   122918. kBytes
=======================================================================

   base      :      30000. kBytes
   nonlr-proj:      14815. kBytes
   fftplans  :       4330. kBytes
   grid      :      17879. kBytes
   one-center:        575. kBytes
   wavefun   :      55319. kBytes
 
  
  
 General timing and accounting informations for this job:
 ========================================================
  
                  Total CPU time used (sec):       76.455
                            User time (sec):       73.482
                          System time (sec):        2.973
                         Elapsed time (sec):       76.783
  
                   Maximum memory used (kb):      381024.
                   Average memory used (kb):          N/A
  
                          Minor page faults:        73663
                          Major page faults:            0
                 Voluntary context switches:         4721
