PROCAR new format
# of k-points:   10         # of bands:  252         # of ions:   37

 k-point     1 :    0.00000000 0.00000000 0.00000000     weight = 0.01562500

band     1 # energy  -16.51894302 # occ.  2.00000000
 
ion      s      p      d    tot
    1  0.000  0.000  0.000  0.000
    2  0.000  0.000  0.000  0.000
    3  0.000  0.000  0.000  0.000
    4  0.000  0.000  0.000  0.000
    5  0.000  0.000  0.000  0.000
    6  0.000  0.000  0.000  0.000
    7  0.000  0.000  0.000  0.000
    8  0.000  0.000  0.000  0.000
    9  0.000  0.000  0.000  0.000
   10  0.000  0.000  0.000  0.000
   11  0.000  0.000  0.000  0.000
   12  0.000  0.000  0.000  0.000
   13  0.000  0.000  0.000  0.000
   14  0.000  0.000  0.000  0.000
   15  0.000  0.000  0.000  0.000
   16  0.000  0.000  0.000  0.000
   17  0.000  0.000  0.000  0.000
   18  0.000  0.000  0.000  0.000
   19  0.000  0.000  0.000  0.000
   20  0.000  0.000  0.000  0.000
   21  0.000  0.000  0.000  0.000
   22  0.000  0.000  0.000  0.000
   23  0.000  0.000  0.000  0.000
   24  0.000  0.000  0.000  0.000
   25  0.000  0.000  0.000  0.000
   26  0.000  0.000  0.000  0.000
   27  0.000  0.000  0.000  0.000
   28  0.000  0.000  0.000  0.000
   29  0.000  0.000  0.000  0.000
   30  0.000  0.000  0.000  0.000
   31  0.000  0.000  0.000  0.000
   32  0.000  0.000  0.000  0.000
   33  0.000  0.000  0.000  0.000
   34  0.000  0.000  0.000  0.000
   35  0.000  0.000  0.000  0.000
   36  0.034  0.043  0.044  0.121
   37  0.769  0.011  0.000  0.779
tot    0.803  0.054  0.044  0.901
 
band     2 # energy   -6.40068404 # occ.  2.00000000
 
ion      s      p      d    tot
    1  0.006  0.001  0.000  0.006
    2  0.006  0.001  0.000  0.006
    3  0.006  0.001  0.000  0.006
    4  0.006  0.001  0.000  0.006
    5  0.006  0.001  0.000  0.006
    6  0.006  0.001  0.000  0.006
    7  0.006  0.001  0.000  0.006
    8  0.006  0.001  0.000  0.006
    9  0.006  0.001  0.000  0.006
   10  0.023  0.000  0.000  0.023
   11  0.023  0.000  0.000  0.024
   12  0.023  0.000  0.000  0.023
   13  0.023  0.000  0.000  0.024
   14  0.023  0.000  0.000  0.024
   15  0.023  0.000  0.000  0.024
   16  0.023  0.000  0.000  0.023
   17  0.023  0.000  0.000  0.024
   18  0.023  0.000  0.000  0.024
   19  0.022  0.000  0.000  0.023
   20  0.025  0.000  0.000  0.025
   21  0.025  0.000  0.000  0.025
   22  0.024  0.000  0.000  0.024
   23  0.025  0.000  0.000  0.025
   24  0.024  0.000  0.000  0.024
   25  0.022  0.000  0.000  0.023
   26  0.022  0.000  0.000  0.023
   27  0.024  0.000  0.000  0.024
   28  0.005  0.001  0.000  0.006
   29  0.005  0.001  0.000  0.006
   30  0.005  0.001  0.000  0.006
   31  0.005  0.001  0.000  0.006
   32  0.005  0.001  0.000  0.006
   33  0.005  0.001  0.000  0.006
   34  0.005  0.001  0.000  0.006
   35  0.005  0.001  0.000  0.006
   36  0.006  0.001  0.000  0.007
   37  0.001  0.000  0.000  0.001
tot    0.524  0.014  0.006  0.545
 
band     3 # energy   -5.52628375 # occ.  2.00000000
 
ion      s      p      d    tot
    1  0.008  0.000  0.000  0.009
    2  0.008  0.000  0.000  0.009
    3  0.008  0.000  0.000  0.009
    4  0.008  0.000  0.000  0.009
    5  0.008  0.000  0.000  0.009
    6  0.008  0.000  0.000  0.009
    7  0.008  0.000  0.000  0.009
    8  0.008  0.000  0.000  0.009
    9  0.008  0.000  0.000  0.009
   10  0.011  0.001  0.015  0.028
   11  0.011  0.001  0.015  0.027
   12  0.011  0.001  0.015  0.028
   13  0.011  0.001  0.015  0.027
   14  0.011  0.001  0.015  0.027
   15  0.012  0.001  0.015  0.027
   16  0.011  0.001  0.015  0.028
   17  0.012  0.001  0.015  0.027
   18  0.012  0.001  0.015  0.027
   19  0.011  0.001  0.017  0.029
   20  0.014  0.001  0.017  0.032
   21  0.014  0.001  0.017  0.032
   22  0.011  0.001  0.017  0.029
   23  0.014  0.001  0.017  0.032
   24  0.011  0.001  0.017  0.029
   25  0.011  0.001  0.017  0.029
   26  0.011  0.001  0.017  0.029
   27  0.011  0.001  0.017  0.029
   28  0.006  0.000  0.000  0.007
   29  0.006  0.000  0.000  0.007
   30  0.006  0.000  0.000  0.007
   31  0.006  0.000  0.000  0.007
   32  0.006  0.000  0.000  0.007
   33  0.006  0.000  0.000  0.007
   34  0.006  0.000  0.000  0.007
   35  0.006  0.000  0.000  0.006
   36  0.007  0.001  0.000  0.008
   37  0.001  0.001  0.000  0.002
tot    0.338  0.026  0.293  0.657
 
band     4 # energy   -5.22972456 # occ.  2.00000000
 
ion      s      p      d    tot
    1  0.013  0.000  0.025  0.038
    2  0.015  0.000  0.023  0.038
    3  0.015  0.000  0.023  0.038
    4  0.015  0.000  0.023  0.038
    5  0.015  0.000  0.023  0.038
    6  0.015  0.000  0.023  0.038
    7  0.015  0.000  0.023  0.038
    8  0.015  0.000  0.023  0.038
    9  0.017  0.000  0.022  0.039
   10  0.001  0.000  0.017  0.018
   11  0.001  0.001  0.022  0.024
   12  0.001  0.000  0.017  0.018
   13  0.001  0.001  0.022  0.024
   14  0.001  0.001  0.022  0.024
   15  0.000  0.000  0.024  0.024
   16  0.001  0.000  0.017  0.018
   17  0.000  0.000  0.024  0.024
   18  0.000  0.000  0.024  0.024
   19  0.000  0.000  0.009  0.009
   20  0.000  0.000  0.012  0.013
   21  0.000  0.000  0.012  0.013
   22  0.000  0.000  0.014  0.014
   23  0.000  0.000  0.012  0.013
   24  0.000  0.000  0.013  0.014
   25  0.000  0.000  0.009  0.009
   26  0.000  0.000  0.009  0.009
   27  0.000  0.000  0.013  0.014
   28  0.005  0.000  0.009  0.014
   29  0.006  0.000  0.008  0.013
   30  0.006  0.000  0.008  0.013
   31  0.006  0.000  0.008  0.013
   32  0.006  0.000  0.008  0.013
   33  0.006  0.000  0.008  0.013
   34  0.006  0.000  0.008  0.013
   35  0.006  0.000  0.009  0.015
   36  0.006  0.000  0.000  0.007
   37  0.001  0.001  0.000  0.001
tot    0.191  0.007  0.568  0.766
 
band     5 # energy   -5.14458033 # occ.  2.00000000
 
ion      s      p      d    tot
    1  0.008  0.001  0.000  0.010
    2  0.001  0.000  0.006  0.007
    3  0.001  0.000  0.006  0.007
    4  0.001  0.000  0.006  0.007
    5  0.000  0.000  0.003  0.004
    6  0.001  0.000  0.006  0.007
    7  0.001  0.000  0.006  0.007
    8  0.001  0.000  0.006  0.007
    9  0.000  0.001  0.006  0.007
   10  0.003  0.000  0.048  0.051
   11  0.001  0.001  0.018  0.020
   12  0.003  0.000  0.048  0.051
   13  0.001  0.001  0.018  0.020
   14  0.001  0.001  0.018  0.020
   15  0.012  0.001  0.009  0.022
   16  0.003  0.000  0.048  0.051
   17  0.012  0.001  0.009  0.022
   18  0.012  0.001  0.009  0.022
   19  0.000  0.000  0.040  0.040
   20  0.010  0.000  0.061  0.071
   21  0.010  0.000  0.061  0.071
   22  0.014  0.001  0.003  0.018
   23  0.010  0.000  0.061  0.071
   24  0.014  0.001  0.003  0.018
   25  0.000  0.000  0.040  0.040
   26  0.000  0.000  0.040  0.040
   27  0.014  0.001  0.003  0.018
   28  0.001  0.000  0.003  0.004
   29  0.000  0.000  0.007  0.007
   30  0.000  0.000  0.007  0.007
   31  0.000  0.000  0.007  0.007
   32  0.000  0.000  0.007  0.007
   33  0.000  0.000  0.007  0.007
   34  0.000  0.000  0.007  0.007
   35  0.002  0.001  0.002  0.005
   36  0.012  0.002  0.003  0.016
   37  0.001  0.003  0.000  0.004
tot    0.147  0.021  0.630  0.797
 
band     6 # energy   -5.11473216 # occ.  2.00000000
 
ion      s      p      d    tot
    1  0.000  0.000  0.001  0.001
    2  0.000  0.000  0.003  0.004
    3  0.002  0.001  0.005  0.008
    4  0.001  0.000  0.004  0.005
    5  0.000  0.000  0.009  0.010
    6  0.001  0.000  0.003  0.004
    7  0.002  0.001  0.005  0.008
    8  0.001  0.000  0.002  0.003
    9  0.000  0.000  0.006  0.006
   10  0.000  0.000  0.021  0.021
   11  0.010  0.000  0.046  0.056
   12  0.000  0.001  0.033  0.034
   13  0.004  0.000  0.063  0.067
   14  0.020  0.001  0.006  0.027
   15  0.007  0.001  0.021  0.028
   16  0.000  0.000  0.029  0.030
   17  0.002  0.001  0.018  0.022
   18  0.016  0.000  0.033  0.050
   19  0.002  0.000  0.041  0.044
   20  0.012  0.000  0.036  0.048
   21  0.001  0.001  0.012  0.015
   22  0.004  0.001  0.067  0.072
   23  0.004  0.001  0.018  0.022
   24  0.026  0.001  0.011  0.038
   25  0.003  0.001  0.014  0.017
   26  0.001  0.000  0.051  0.052
   27  0.011  0.001  0.049  0.061
   28  0.000  0.000  0.002  0.002
   29  0.002  0.001  0.006  0.009
   30  0.000  0.000  0.002  0.002
   31  0.002  0.000  0.006  0.008
   32  0.001  0.000  0.003  0.005
   33  0.000  0.000  0.003  0.003
   34  0.002  0.001  0.004  0.006
   35  0.000  0.000  0.010  0.010
   36  0.000  0.000  0.000  0.000
   37  0.000  0.000  0.000  0.000
tot    0.137  0.018  0.644  0.798
 
band     7 # energy   -5.11470963 # occ.  2.00000000
 
ion      s      p      d    tot
    1  0.000  0.000  0.000  0.000
    2  0.002  0.001  0.004  0.007
    3  0.000  0.000  0.003  0.003
    4  0.002  0.001  0.004  0.006
    5  0.000  0.000  0.009  0.010
    6  0.001  0.000  0.004  0.006
    7  0.000  0.000  0.003  0.003
    8  0.002  0.000  0.005  0.007
    9  0.000  0.000  0.006  0.006
   10  0.000  0.001  0.035  0.036
   11  0.013  0.001  0.030  0.044
   12  0.000  0.000  0.022  0.023
   13  0.020  0.001  0.013  0.034
   14  0.000  0.000  0.072  0.072
   15  0.011  0.001  0.026  0.038
   16  0.000  0.000  0.026  0.027
   17  0.015  0.001  0.028  0.043
   18  0.000  0.001  0.017  0.019
   19  0.002  0.000  0.030  0.032
   20  0.000  0.002  0.011  0.012
   21  0.009  0.000  0.030  0.039
   22  0.024  0.001  0.017  0.042
   23  0.007  0.001  0.026  0.033
   24  0.000  0.000  0.076  0.077
   25  0.000  0.000  0.055  0.056
   26  0.003  0.000  0.021  0.025
   27  0.017  0.001  0.035  0.052
   28  0.000  0.000  0.002  0.002
   29  0.000  0.000  0.002  0.003
   30  0.002  0.001  0.005  0.008
   31  0.001  0.000  0.003  0.004
   32  0.001  0.000  0.005  0.006
   33  0.002  0.001  0.005  0.008
   34  0.000  0.000  0.004  0.005
   35  0.000  0.000  0.010  0.010
   36  0.000  0.000  0.000  0.000
   37  0.000  0.000  0.000  0.000
tot    0.137  0.018  0.644  0.798
 
band     8 # energy   -5.11424048 # occ.  2.00000000
 
ion      s      p      d    tot
    1  0.000  0.000  0.000  0.001
    2  0.000  0.000  0.005  0.005
    3  0.000  0.000  0.005  0.005
    4  0.000  0.000  0.005  0.005
    5  0.005  0.001  0.002  0.008
    6  0.000  0.000  0.006  0.006
    7  0.000  0.000  0.005  0.005
    8  0.000  0.000  0.006  0.006
    9  0.002  0.000  0.003  0.005
   10  0.007  0.001  0.005  0.013
   11  0.008  0.000  0.030  0.039
   12  0.006  0.001  0.006  0.013
   13  0.008  0.000  0.030  0.038
   14  0.011  0.000  0.029  0.041
   15  0.000  0.000  0.038  0.038
   16  0.006  0.001  0.006  0.013
   17  0.000  0.000  0.039  0.039
   18  0.001  0.000  0.034  0.035
   19  0.016  0.001  0.025  0.042
   20  0.004  0.001  0.014  0.018
   21  0.005  0.001  0.018  0.024
   22  0.002  0.000  0.078  0.081
   23  0.005  0.001  0.017  0.023
   24  0.004  0.000  0.074  0.078
   25  0.017  0.001  0.027  0.045
   26  0.015  0.001  0.024  0.041
   27  0.002  0.000  0.078  0.080
   28  0.005  0.001  0.005  0.012
   29  0.000  0.000  0.004  0.004
   30  0.000  0.000  0.005  0.005
   31  0.000  0.000  0.004  0.004
   32  0.000  0.000  0.005  0.005
   33  0.000  0.000  0.005  0.005
   34  0.000  0.000  0.005  0.005
   35  0.002  0.001  0.009  0.012
   36  0.000  0.000  0.000  0.001
   37  0.000  0.000  0.000  0.000
tot    0.133  0.017  0.651  0.801
 
band     9 # energy   -5.10802686 # occ.  2.00000000
 
ion      s      p      d    tot
    1  0.000  0.000  0.007  0.008
    2  0.001  0.000  0.004  0.004
    3  0.001  0.000  0.003  0.004
    4  0.001  0.000  0.004  0.006
    5  0.000  0.000  0.002  0.002
    6  0.001  0.000  0.004  0.006
    7  0.000  0.000  0.002  0.003
    8  0.000  0.000  0.002  0.003
    9  0.000  0.000  0.004  0.004
   10  0.016  0.001  0.023  0.040
   11  0.000  0.001  0.026  0.027
   12  0.016  0.001  0.023  0.040
   13  0.001  0.000  0.032  0.034
   14  0.001  0.000  0.032  0.034
   15  0.000  0.000  0.080  0.080
   16  0.000  0.001  0.030  0.031
   17  0.009  0.000  0.026  0.035
   18  0.009  0.000  0.025  0.034
   19  0.000  0.001  0.020  0.022
   20  0.013  0.001  0.027  0.041
   21  0.013  0.001  0.027  0.041
   22  0.000  0.000  0.034  0.034
   23  0.000  0.000  0.088  0.088
   24  0.000  0.000  0.034  0.034
   25  0.014  0.001  0.026  0.040
   26  0.014  0.001  0.026  0.040
   27  0.000  0.001  0.043  0.044
   28  0.000  0.000  0.005  0.005
   29  0.001  0.000  0.004  0.005
   30  0.001  0.000  0.004  0.005
   31  0.000  0.000  0.002  0.002
   32  0.000  0.000  0.002  0.002
   33  0.001  0.000  0.004  0.006
   34  0.001  0.000  0.004  0.006
   35  0.000  0.000  0.001  0.001
   36  0.000  0.000  0.001  0.002
   37  0.000  0.000  0.000  0.000
tot    0.112  0.015  0.683  0.810
 
band    10 # energy   -5.10801954 # occ.  2.00000000
 
ion      s      p      d    tot
    1  0.000  0.000  0.007  0.008
    2  0.001  0.000  0.003  0.004
    3  0.001  0.000  0.003  0.004
    4  0.000  0.000  0.002  0.003
    5  0.000  0.000  0.002  0.002
    6  0.000  0.000  0.002  0.003
    7  0.001  0.000  0.004  0.006
    8  0.001  0.000  0.004  0.006
    9  0.000  0.000  0.004  0.004
   10  0.005  0.001  0.028  0.034
   11  0.002  0.000  0.034  0.036
   12  0.005  0.001  0.028  0.034
   13  0.000  0.001  0.028  0.029
   14  0.000  0.001  0.028  0.029
   15  0.012  0.001  0.008  0.020
   16  0.021  0.001  0.021  0.043
   17  0.003  0.000  0.061  0.064
   18  0.003  0.000  0.062  0.065
   19  0.018  0.001  0.027  0.046
   20  0.004  0.000  0.068  0.072
   21  0.004  0.000  0.067  0.072
   22  0.000  0.001  0.040  0.040
   23  0.017  0.001  0.007  0.025
   24  0.000  0.001  0.040  0.040
   25  0.004  0.001  0.022  0.028
   26  0.005  0.001  0.022  0.028
   27  0.000  0.000  0.031  0.031
   28  0.000  0.000  0.005  0.005
   29  0.000  0.000  0.003  0.003
   30  0.000  0.000  0.003  0.003
   31  0.001  0.000  0.005  0.007
   32  0.001  0.000  0.005  0.007
   33  0.000  0.000  0.003  0.003
   34  0.000  0.000  0.003  0.003
   35  0.000  0.000  0.001  0.001
   36  0.000  0.000  0.001  0.002
   37  0.000  0.000  0.000  0.000
tot    0.112  0.015  0.683  0.810
 
band    11 # energy   -5.09466136 # occ.  2.00000000
 
ion      s      p      d    tot
    1  0.001  0.001  0.006  0.009
    2  0.000  0.000  0.008  0.008
    3  0.000  0.000  0.008  0.008
    4  0.000  0.000  0.008  0.008
    5  0.000  0.000  0.004  0.005
    6  0.000  0.000  0.008  0.008
    7  0.000  0.000  0.008  0.008
    8  0.000  0.000  0.008  0.008
    9  0.004  0.000  0.006  0.010
   10  0.007  0.000  0.011  0.018
   11  0.002  0.000  0.059  0.061
   12  0.007  0.000  0.011  0.018
   13  0.002  0.000  0.059  0.061
   14  0.002  0.000  0.059  0.062
   15  0.000  0.000  0.049  0.049
   16  0.007  0.000  0.011  0.018
   17  0.000  0.000  0.049  0.049
   18  0.000  0.000  0.049  0.049
   19  0.001  0.001  0.006  0.008
   20  0.001  0.000  0.036  0.037
   21  0.001  0.000  0.036  0.037
   22  0.001  0.000  0.049  0.049
   23  0.001  0.000  0.036  0.037
   24  0.001  0.000  0.049  0.050
   25  0.001  0.001  0.006  0.008
   26  0.001  0.001  0.006  0.008
   27  0.001  0.000  0.049  0.049
   28  0.003  0.000  0.000  0.004
   29  0.001  0.000  0.011  0.012
   30  0.001  0.000  0.011  0.012
   31  0.001  0.000  0.011  0.012
   32  0.001  0.000  0.011  0.012
   33  0.001  0.000  0.011  0.012
   34  0.001  0.000  0.011  0.012
   35  0.003  0.000  0.011  0.014
   36  0.003  0.000  0.000  0.004
   37  0.000  0.000  0.000  0.001
tot    0.058  0.008  0.773  0.839
 
band    12 # energy   -5.07698304 # occ.  2.00000000
 
ion      s      p      d    tot
    1  0.004  0.000  0.018  0.022
    2  0.001  0.000  0.010  0.011
    3  0.001  0.000  0.010  0.011
    4  0.001  0.000  0.010  0.011
    5  0.001  0.001  0.002  0.004
    6  0.001  0.000  0.010  0.011
    7  0.001  0.000  0.010  0.011
    8  0.001  0.000  0.010  0.011
    9  0.003  0.000  0.001  0.005
   10  0.001  0.000  0.072  0.073
   11  0.006  0.000  0.011  0.017
   12  0.001  0.000  0.073  0.073
   13  0.006  0.000  0.011  0.017
   14  0.006  0.000  0.010  0.017
   15  0.004  0.000  0.032  0.036
   16  0.001  0.000  0.072  0.073
   17  0.004  0.000  0.032  0.036
   18  0.004  0.000  0.032  0.036
   19  0.000  0.000  0.045  0.045
   20  0.000  0.001  0.018  0.019
   21  0.000  0.001  0.018  0.019
   22  0.002  0.000  0.023  0.024
   23  0.000  0.001  0.018  0.019
   24  0.002  0.000  0.022  0.024
   25  0.000  0.000  0.045  0.045
   26  0.000  0.000  0.045  0.045
   27  0.002  0.000  0.022  0.024
   28  0.006  0.000  0.014  0.019
   29  0.001  0.000  0.010  0.011
   30  0.001  0.000  0.010  0.011
   31  0.001  0.000  0.010  0.011
   32  0.001  0.000  0.010  0.011
   33  0.001  0.000  0.010  0.011
   34  0.001  0.000  0.010  0.011
   35  0.000  0.000  0.005  0.006
   36  0.003  0.000  0.001  0.003
   37  0.000  0.001  0.000  0.001
tot    0.068  0.008  0.761  0.837
 
band    13 # energy   -5.07195081 # occ.  2.00000000
 
ion      s      p      d    tot
    1  0.000  0.000  0.017  0.017
    2  0.002  0.000  0.005  0.008
    3  0.000  0.000  0.009  0.009
    4  0.002  0.000  0.005  0.008
    5  0.000  0.000  0.004  0.004
    6  0.000  0.000  0.007  0.008
    7  0.001  0.000  0.008  0.009
    8  0.001  0.000  0.007  0.008
    9  0.000  0.000  0.008  0.008
   10  0.000  0.000  0.040  0.040
   11  0.000  0.000  0.028  0.028
   12  0.003  0.000  0.037  0.040
   13  0.000  0.000  0.029  0.030
   14  0.000  0.000  0.016  0.016
   15  0.004  0.000  0.028  0.033
   16  0.003  0.000  0.037  0.040
   17  0.005  0.000  0.022  0.027
   18  0.000  0.000  0.078  0.078
   19  0.006  0.000  0.038  0.044
   20  0.000  0.000  0.072  0.072
   21  0.004  0.000  0.023  0.028
   22  0.000  0.000  0.037  0.037
   23  0.004  0.000  0.029  0.033
   24  0.000  0.000  0.009  0.009
   25  0.000  0.000  0.070  0.070
   26  0.007  0.000  0.033  0.040
   27  0.000  0.000  0.034  0.034
   28  0.000  0.000  0.014  0.014
   29  0.000  0.000  0.009  0.009
   30  0.002  0.000  0.006  0.008
   31  0.000  0.000  0.009  0.009
   32  0.002  0.001  0.005  0.007
   33  0.002  0.000  0.006  0.008
   34  0.002  0.001  0.005  0.007
   35  0.000  0.000  0.007  0.007
   36  0.000  0.000  0.000  0.001
   37  0.000  0.000  0.000  0.000
tot    0.050  0.007  0.789  0.847
 
band    14 # energy   -5.07189740 # occ.  2.00000000
 
ion      s      p      d    tot
    1  0.000  0.000  0.017  0.017
    2  0.000  0.000  0.009  0.009
    3  0.002  0.000  0.005  0.007
    4  0.000  0.000  0.008  0.009
    5  0.000  0.000  0.004  0.004
    6  0.002  0.000  0.006  0.009
    7  0.002  0.000  0.005  0.007
    8  0.002  0.000  0.007  0.009
    9  0.000  0.000  0.008  0.008
   10  0.004  0.000  0.036  0.040
   11  0.000  0.000  0.021  0.021
   12  0.001  0.000  0.039  0.040
   13  0.000  0.000  0.019  0.020
   14  0.000  0.000  0.033  0.034
   15  0.002  0.000  0.057  0.059
   16  0.001  0.000  0.038  0.040
   17  0.001  0.000  0.064  0.065
   18  0.006  0.000  0.007  0.014
   19  0.002  0.000  0.056  0.059
   20  0.005  0.000  0.011  0.016
   21  0.001  0.000  0.060  0.061
   22  0.000  0.000  0.016  0.016
   23  0.002  0.000  0.054  0.056
   24  0.000  0.000  0.045  0.045
   25  0.008  0.000  0.024  0.033
   26  0.002  0.000  0.061  0.063
   27  0.000  0.000  0.019  0.020
   28  0.000  0.000  0.014  0.014
   29  0.002  0.000  0.004  0.007
   30  0.001  0.000  0.007  0.008
   31  0.002  0.000  0.004  0.007
   32  0.001  0.000  0.008  0.009
   33  0.001  0.000  0.007  0.008
   34  0.001  0.000  0.008  0.009
   35  0.000  0.000  0.007  0.007
   36  0.000  0.000  0.000  0.001
   37  0.000  0.000  0.000  0.000
tot    0.050  0.007  0.789  0.847
 
band    15 # energy   -5.05738623 # occ.  2.00000000
 
ion      s      p      d    tot
    1  0.000  0.000  0.006  0.007
    2  0.004  0.001  0.006  0.010
    3  0.000  0.000  0.011  0.011
    4  0.003  0.001  0.006  0.010
    5  0.000  0.000  0.015  0.016
    6  0.001  0.001  0.010  0.011
    7  0.001  0.000  0.010  0.011
    8  0.002  0.001  0.009  0.011
    9  0.000  0.000  0.013  0.013
   10  0.010  0.000  0.010  0.020
   11  0.004  0.000  0.055  0.059
   12  0.002  0.000  0.070  0.072
   13  0.002  0.000  0.061  0.064
   14  0.012  0.000  0.023  0.035
   15  0.000  0.000  0.025  0.025
   16  0.003  0.000  0.060  0.063
   17  0.000  0.000  0.020  0.020
   18  0.000  0.000  0.050  0.050
   19  0.001  0.000  0.030  0.031
   20  0.001  0.000  0.037  0.038
   21  0.000  0.000  0.025  0.025
   22  0.001  0.000  0.051  0.053
   23  0.000  0.000  0.027  0.027
   24  0.007  0.000  0.011  0.018
   25  0.003  0.000  0.017  0.020
   26  0.001  0.000  0.033  0.034
   27  0.002  0.000  0.044  0.047
   28  0.000  0.000  0.003  0.003
   29  0.000  0.000  0.006  0.006
   30  0.001  0.000  0.001  0.003
   31  0.000  0.000  0.005  0.005
   32  0.001  0.000  0.004  0.006
   33  0.001  0.000  0.002  0.003
   34  0.001  0.000  0.005  0.007
   35  0.000  0.000  0.006  0.006
   36  0.000  0.000  0.001  0.001
   37  0.000  0.000  0.000  0.000
tot    0.065  0.008  0.768  0.841
 
band    16 # energy   -5.05736222 # occ.  2.00000000
 
ion      s      p      d    tot
    1  0.000  0.000  0.006  0.007
    2  0.000  0.000  0.011  0.012
    3  0.003  0.001  0.006  0.010
    4  0.000  0.000  0.011  0.012
    5  0.000  0.000  0.015  0.016
    6  0.003  0.000  0.007  0.010
    7  0.003  0.001  0.007  0.010
    8  0.002  0.000  0.008  0.010
    9  0.000  0.000  0.013  0.013
   10  0.000  0.000  0.083  0.083
   11  0.008  0.000  0.038  0.046
   12  0.008  0.000  0.023  0.031
   13  0.010  0.000  0.031  0.041
   14  0.000  0.000  0.070  0.070
   15  0.000  0.000  0.038  0.038
   16  0.007  0.000  0.033  0.040
   17  0.000  0.000  0.044  0.044
   18  0.000  0.000  0.013  0.013
   19  0.002  0.000  0.023  0.025
   20  0.000  0.000  0.022  0.022
   21  0.000  0.000  0.035  0.035
   22  0.006  0.000  0.020  0.026
   23  0.000  0.000  0.032  0.033
   24  0.000  0.000  0.060  0.060
   25  0.000  0.000  0.037  0.037
   26  0.002  0.000  0.020  0.023
   27  0.005  0.000  0.027  0.032
   28  0.000  0.000  0.003  0.003
   29  0.002  0.000  0.002  0.004
   30  0.000  0.000  0.007  0.007
   31  0.002  0.000  0.003  0.005
   32  0.000  0.000  0.004  0.004
   33  0.001  0.000  0.006  0.007
   34  0.000  0.000  0.003  0.003
   35  0.000  0.000  0.006  0.006
   36  0.000  0.000  0.001  0.001
   37  0.000  0.000  0.000  0.000
tot    0.065  0.008  0.768  0.841
 
band    17 # energy   -5.02899867 # occ.  2.00000000
 
ion      s      p      d    tot
    1  0.002  0.000  0.002  0.004
    2  0.002  0.000  0.011  0.013
    3  0.002  0.000  0.011  0.013
    4  0.002  0.000  0.011  0.013
    5  0.006  0.000  0.011  0.017
    6  0.002  0.000  0.011  0.013
    7  0.002  0.000  0.011  0.013
    8  0.002  0.000  0.011  0.013
    9  0.001  0.000  0.016  0.017
   10  0.000  0.000  0.010  0.011
   11  0.001  0.000  0.017  0.019
   12  0.000  0.000  0.010  0.011
   13  0.001  0.000  0.017  0.019
   14  0.001  0.000  0.017  0.019
   15  0.002  0.000  0.018  0.020
   16  0.000  0.000  0.010  0.011
   17  0.002  0.000  0.018  0.020
   18  0.002  0.000  0.018  0.020
   19  0.002  0.000  0.015  0.017
   20  0.003  0.001  0.037  0.040
   21  0.003  0.001  0.037  0.040
   22  0.000  0.001  0.015  0.016
   23  0.003  0.001  0.037  0.040
   24  0.000  0.001  0.015  0.016
   25  0.002  0.000  0.015  0.017
   26  0.002  0.000  0.015  0.017
   27  0.000  0.001  0.015  0.016
   28  0.007  0.000  0.018  0.025
   29  0.011  0.000  0.027  0.037
   30  0.011  0.000  0.027  0.037
   31  0.011  0.000  0.027  0.037
   32  0.011  0.000  0.027  0.037
   33  0.011  0.000  0.027  0.037
   34  0.011  0.000  0.027  0.037
   35  0.021  0.000  0.024  0.045
   36  0.007  0.000  0.005  0.012
   37  0.000  0.000  0.000  0.001
tot    0.147  0.009  0.636  0.791
 
band    18 # energy   -4.91995982 # occ.  2.00000000
 
ion      s      p      d    tot
    1  0.001  0.001  0.002  0.003
    2  0.000  0.000  0.009  0.009
    3  0.000  0.000  0.009  0.009
    4  0.000  0.000  0.009  0.009
    5  0.001  0.000  0.008  0.010
    6  0.000  0.000  0.009  0.009
    7  0.000  0.000  0.009  0.009
    8  0.000  0.000  0.009  0.009
    9  0.000  0.000  0.009  0.009
   10  0.000  0.000  0.020  0.020
   11  0.000  0.000  0.038  0.039
   12  0.000  0.000  0.019  0.020
   13  0.000  0.000  0.038  0.039
   14  0.000  0.000  0.038  0.039
   15  0.002  0.001  0.052  0.054
   16  0.000  0.000  0.019  0.020
   17  0.002  0.001  0.052  0.054
   18  0.002  0.001  0.052  0.055
   19  0.001  0.000  0.024  0.024
   20  0.000  0.000  0.042  0.043
   21  0.000  0.000  0.042  0.042
   22  0.002  0.001  0.046  0.048
   23  0.000  0.000  0.042  0.042
   24  0.001  0.001  0.046  0.048
   25  0.001  0.000  0.024  0.024
   26  0.001  0.000  0.024  0.024
   27  0.002  0.001  0.046  0.048
   28  0.007  0.000  0.005  0.013
   29  0.001  0.000  0.011  0.013
   30  0.001  0.000  0.011  0.013
   31  0.001  0.000  0.011  0.013
   32  0.001  0.000  0.011  0.012
   33  0.001  0.000  0.011  0.013
   34  0.001  0.000  0.011  0.012
   35  0.002  0.000  0.002  0.004
   36  0.003  0.001  0.003  0.007
   37  0.000  0.001  0.000  0.002
tot    0.034  0.015  0.813  0.862
 
band    19 # energy   -4.90259165 # occ.  2.00000000
 
ion      s      p      d    tot
    1  0.000  0.000  0.006  0.006
    2  0.000  0.000  0.010  0.010
    3  0.000  0.000  0.010  0.010
    4  0.000  0.000  0.010  0.010
    5  0.002  0.001  0.008  0.011
    6  0.000  0.000  0.010  0.010
    7  0.000  0.000  0.010  0.010
    8  0.000  0.000  0.010  0.010
    9  0.003  0.001  0.000  0.004
   10  0.002  0.000  0.045  0.048
   11  0.000  0.001  0.049  0.050
   12  0.002  0.000  0.045  0.047
   13  0.000  0.001  0.049  0.050
   14  0.000  0.001  0.047  0.048
   15  0.001  0.000  0.016  0.017
   16  0.002  0.000  0.045  0.048
   17  0.001  0.000  0.016  0.017
   18  0.001  0.000  0.017  0.017
   19  0.001  0.001  0.055  0.057
   20  0.001  0.000  0.040  0.041
   21  0.001  0.000  0.039  0.040
   22  0.000  0.000  0.024  0.024
   23  0.001  0.000  0.039  0.040
   24  0.000  0.000  0.022  0.023
   25  0.001  0.001  0.056  0.058
   26  0.001  0.001  0.055  0.057
   27  0.000  0.000  0.023  0.024
   28  0.001  0.000  0.007  0.009
   29  0.000  0.000  0.009  0.009
   30  0.000  0.000  0.009  0.010
   31  0.000  0.000  0.009  0.009
   32  0.000  0.000  0.009  0.009
   33  0.000  0.000  0.009  0.010
   34  0.000  0.000  0.009  0.009
   35  0.002  0.001  0.002  0.006
   36  0.001  0.000  0.002  0.003
   37  0.000  0.000  0.000  0.000
tot    0.026  0.015  0.821  0.862
 
band    20 # energy   -4.89990904 # occ.  2.00000000
 
ion      s      p      d    tot
    1  0.000  0.000  0.008  0.008
    2  0.000  0.000  0.010  0.010
    3  0.001  0.000  0.006  0.006
    4  0.000  0.000  0.010  0.010
    5  0.000  0.000  0.002  0.002
    6  0.002  0.001  0.006  0.008
    7  0.000  0.000  0.006  0.007
    8  0.002  0.001  0.007  0.009
    9  0.000  0.001  0.019  0.020
   10  0.002  0.001  0.038  0.041
   11  0.000  0.000  0.041  0.041
   12  0.000  0.000  0.009  0.010
   13  0.000  0.000  0.043  0.044
   14  0.000  0.001  0.021  0.022
   15  0.001  0.000  0.073  0.074
   16  0.001  0.000  0.013  0.014
   17  0.001  0.000  0.077  0.078
   18  0.003  0.000  0.043  0.045
   19  0.000  0.000  0.022  0.022
   20  0.003  0.001  0.037  0.041
   21  0.001  0.000  0.021  0.022
   22  0.001  0.000  0.076  0.076
   23  0.001  0.000  0.023  0.024
   24  0.003  0.000  0.039  0.042
   25  0.000  0.001  0.020  0.022
   26  0.000  0.000  0.022  0.022
   27  0.001  0.000  0.071  0.072
   28  0.000  0.000  0.001  0.001
   29  0.000  0.000  0.008  0.008
   30  0.001  0.001  0.007  0.008
   31  0.000  0.000  0.008  0.008
   32  0.001  0.000  0.005  0.007
   33  0.001  0.001  0.007  0.009
   34  0.001  0.000  0.005  0.007
   35  0.000  0.001  0.016  0.017
   36  0.000  0.001  0.002  0.003
   37  0.000  0.000  0.000  0.000
tot    0.026  0.016  0.820  0.862
 
band    21 # energy   -4.89984557 # occ.  2.00000000
 
ion      s      p      d    tot
    1  0.000  0.000  0.008  0.009
    2  0.001  0.001  0.005  0.007
    3  0.001  0.001  0.009  0.011
    4  0.001  0.001  0.005  0.007
    5  0.000  0.000  0.001  0.002
    6  0.000  0.000  0.008  0.009
    7  0.001  0.001  0.009  0.010
    8  0.000  0.000  0.008  0.008
    9  0.000  0.001  0.019  0.020
   10  0.000  0.000  0.002  0.002
   11  0.000  0.001  0.029  0.030
   12  0.002  0.001  0.031  0.033
   13  0.000  0.001  0.026  0.027
   14  0.000  0.000  0.049  0.049
   15  0.002  0.000  0.056  0.058
   16  0.001  0.001  0.028  0.030
   17  0.002  0.000  0.052  0.054
   18  0.000  0.000  0.086  0.086
   19  0.000  0.001  0.021  0.022
   20  0.000  0.000  0.017  0.017
   21  0.003  0.001  0.032  0.036
   22  0.002  0.000  0.049  0.051
   23  0.002  0.001  0.031  0.033
   24  0.000  0.000  0.085  0.085
   25  0.000  0.000  0.022  0.022
   26  0.000  0.001  0.021  0.022
   27  0.002  0.000  0.053  0.055
   28  0.000  0.000  0.001  0.001
   29  0.002  0.001  0.006  0.008
   30  0.000  0.000  0.007  0.007
   31  0.002  0.001  0.005  0.008
   32  0.000  0.000  0.008  0.009
   33  0.001  0.000  0.006  0.007
   34  0.000  0.000  0.008  0.009
   35  0.000  0.001  0.016  0.017
   36  0.000  0.001  0.002  0.003