PROCAR new format
# of k-points:   10         # of bands:  252         # of ions:   37

 k-point     1 :    0.00000000 0.00000000 0.00000000     weight = 0.01562500

band     1 # energy  -17.83933584 # occ.  2.00000000
 
ion      s      p      d    tot
    1  0.000  0.000  0.000  0.000
    2  0.000  0.000  0.000  0.000
    3  0.000  0.000  0.000  0.000
    4  0.000  0.000  0.000  0.000
    5  0.000  0.000  0.000  0.000
    6  0.000  0.000  0.000  0.000
    7  0.000  0.000  0.000  0.000
    8  0.000  0.000  0.000  0.000
    9  0.000  0.000  0.000  0.000
   10  0.000  0.000  0.000  0.000
   11  0.000  0.000  0.000  0.000
   12  0.000  0.000  0.000  0.000
   13  0.000  0.000  0.000  0.000
   14  0.000  0.000  0.000  0.000
   15  0.000  0.000  0.000  0.000
   16  0.000  0.000  0.000  0.000
   17  0.000  0.000  0.000  0.000
   18  0.000  0.000  0.000  0.000
   19  0.000  0.000  0.000  0.000
   20  0.000  0.000  0.000  0.000
   21  0.000  0.000  0.000  0.000
   22  0.000  0.000  0.000  0.000
   23  0.000  0.000  0.000  0.000
   24  0.000  0.000  0.000  0.000
   25  0.000  0.000  0.000  0.000
   26  0.000  0.000  0.000  0.000
   27  0.000  0.000  0.000  0.000
   28  0.000  0.000  0.000  0.000
   29  0.000  0.000  0.000  0.000
   30  0.000  0.000  0.000  0.000
   31  0.000  0.000  0.000  0.000
   32  0.000  0.000  0.000  0.000
   33  0.000  0.000  0.000  0.000
   34  0.000  0.000  0.000  0.000
   35  0.000  0.000  0.000  0.000
   36  0.055  0.082  0.109  0.246
   37  0.782  0.009  0.000  0.791
tot    0.837  0.092  0.109  1.038
 
band     2 # energy   -8.79704383 # occ.  2.00000000
 
ion      s      p      d    tot
    1  0.007  0.001  0.000  0.007
    2  0.007  0.001  0.000  0.007
    3  0.007  0.001  0.000  0.007
    4  0.007  0.001  0.000  0.007
    5  0.007  0.001  0.000  0.007
    6  0.007  0.001  0.000  0.007
    7  0.007  0.001  0.000  0.007
    8  0.007  0.001  0.000  0.007
    9  0.007  0.001  0.000  0.007
   10  0.025  0.000  0.000  0.025
   11  0.025  0.000  0.000  0.025
   12  0.025  0.000  0.000  0.025
   13  0.025  0.000  0.000  0.025
   14  0.025  0.000  0.000  0.025
   15  0.024  0.000  0.000  0.025
   16  0.025  0.000  0.000  0.025
   17  0.024  0.000  0.000  0.025
   18  0.024  0.000  0.000  0.025
   19  0.025  0.000  0.000  0.025
   20  0.025  0.000  0.000  0.025
   21  0.025  0.000  0.000  0.025
   22  0.024  0.000  0.000  0.025
   23  0.025  0.000  0.000  0.025
   24  0.024  0.000  0.000  0.025
   25  0.025  0.000  0.000  0.025
   26  0.025  0.000  0.000  0.025
   27  0.024  0.000  0.000  0.025
   28  0.007  0.001  0.000  0.008
   29  0.006  0.001  0.000  0.007
   30  0.006  0.001  0.000  0.007
   31  0.006  0.001  0.000  0.007
   32  0.006  0.001  0.000  0.007
   33  0.006  0.001  0.000  0.007
   34  0.006  0.001  0.000  0.007
   35  0.007  0.001  0.000  0.007
   36  0.007  0.002  0.000  0.010
   37  0.000  0.000  0.000  0.001
tot    0.565  0.018  0.001  0.584
 
band     3 # energy   -7.48477963 # occ.  2.00000000
 
ion      s      p      d    tot
    1  0.018  0.001  0.001  0.020
    2  0.018  0.001  0.001  0.020
    3  0.018  0.001  0.001  0.020
    4  0.018  0.001  0.001  0.020
    5  0.018  0.001  0.001  0.020
    6  0.018  0.001  0.001  0.020
    7  0.018  0.001  0.001  0.020
    8  0.018  0.001  0.001  0.020
    9  0.018  0.001  0.001  0.019
   10  0.010  0.002  0.001  0.013
   11  0.010  0.002  0.001  0.013
   12  0.010  0.002  0.001  0.013
   13  0.010  0.002  0.001  0.013
   14  0.010  0.002  0.001  0.013
   15  0.010  0.002  0.001  0.013
   16  0.010  0.002  0.001  0.013
   17  0.010  0.002  0.001  0.013
   18  0.010  0.002  0.001  0.013
   19  0.011  0.002  0.001  0.014
   20  0.010  0.002  0.001  0.013
   21  0.010  0.002  0.001  0.013
   22  0.011  0.002  0.001  0.014
   23  0.010  0.002  0.001  0.013
   24  0.011  0.002  0.001  0.014
   25  0.011  0.002  0.001  0.014
   26  0.011  0.002  0.001  0.014
   27  0.011  0.002  0.001  0.014
   28  0.019  0.001  0.000  0.021
   29  0.018  0.001  0.000  0.019
   30  0.018  0.001  0.000  0.019
   31  0.018  0.001  0.000  0.019
   32  0.018  0.001  0.000  0.019
   33  0.018  0.001  0.000  0.019
   34  0.018  0.001  0.000  0.019
   35  0.019  0.001  0.000  0.020
   36  0.017  0.002  0.001  0.020
   37  0.001  0.000  0.000  0.001
tot    0.510  0.056  0.020  0.587
 
band     4 # energy   -5.89370705 # occ.  2.00000000
 
ion      s      p      d    tot
    1  0.014  0.000  0.005  0.019
    2  0.012  0.000  0.005  0.017
    3  0.012  0.000  0.005  0.017
    4  0.012  0.000  0.005  0.017
    5  0.002  0.001  0.006  0.009
    6  0.012  0.000  0.005  0.017
    7  0.012  0.000  0.005  0.017
    8  0.012  0.000  0.005  0.017
    9  0.025  0.000  0.003  0.028
   10  0.002  0.003  0.003  0.009
   11  0.016  0.006  0.001  0.022
   12  0.002  0.003  0.003  0.009
   13  0.016  0.006  0.001  0.022
   14  0.016  0.006  0.001  0.022
   15  0.000  0.002  0.005  0.007
   16  0.002  0.003  0.003  0.009
   17  0.000  0.002  0.005  0.007
   18  0.000  0.002  0.005  0.007
   19  0.000  0.002  0.007  0.009
   20  0.024  0.005  0.003  0.033
   21  0.024  0.005  0.003  0.033
   22  0.000  0.004  0.004  0.008
   23  0.024  0.005  0.003  0.033
   24  0.000  0.004  0.004  0.008
   25  0.000  0.002  0.007  0.009
   26  0.000  0.002  0.007  0.009
   27  0.000  0.004  0.004  0.008
   28  0.022  0.000  0.004  0.026
   29  0.014  0.001  0.007  0.021
   30  0.014  0.001  0.007  0.021
   31  0.014  0.001  0.007  0.021
   32  0.014  0.001  0.007  0.021
   33  0.014  0.001  0.007  0.021
   34  0.014  0.001  0.007  0.021
   35  0.028  0.000  0.004  0.032
   36  0.000  0.002  0.021  0.023
   37  0.000  0.003  0.000  0.003
tot    0.374  0.079  0.182  0.635
 
band     5 # energy   -5.82692328 # occ.  2.00000000
 
ion      s      p      d    tot
    1  0.000  0.002  0.005  0.007
    2  0.009  0.002  0.002  0.013
    3  0.001  0.001  0.002  0.004
    4  0.009  0.002  0.002  0.013
    5  0.000  0.002  0.003  0.006
    6  0.003  0.001  0.002  0.007
    7  0.001  0.001  0.002  0.004
    8  0.004  0.001  0.002  0.007
    9  0.000  0.000  0.002  0.002
   10  0.056  0.005  0.003  0.064
   11  0.008  0.009  0.004  0.022
   12  0.013  0.002  0.012  0.028
   13  0.007  0.010  0.004  0.021
   14  0.030  0.001  0.007  0.037
   15  0.001  0.005  0.007  0.013
   16  0.015  0.002  0.012  0.029
   17  0.001  0.005  0.007  0.013
   18  0.004  0.002  0.003  0.009
   19  0.006  0.010  0.003  0.020
   20  0.067  0.004  0.005  0.075
   21  0.016  0.003  0.015  0.034
   22  0.002  0.004  0.009  0.015
   23  0.017  0.003  0.014  0.035
   24  0.009  0.003  0.003  0.016
   25  0.024  0.000  0.007  0.031
   26  0.006  0.011  0.003  0.019
   27  0.002  0.004  0.009  0.015
   28  0.000  0.002  0.004  0.006
   29  0.011  0.003  0.003  0.017
   30  0.003  0.001  0.003  0.007
   31  0.011  0.003  0.003  0.017
   32  0.002  0.001  0.003  0.006
   33  0.003  0.001  0.003  0.007
   34  0.003  0.001  0.003  0.007
   35  0.000  0.000  0.003  0.003
   36  0.000  0.006  0.008  0.014
   37  0.000  0.000  0.000  0.000
tot    0.345  0.117  0.183  0.645
 
band     6 # energy   -5.82688587 # occ.  2.00000000
 
ion      s      p      d    tot
    1  0.000  0.002  0.005  0.007
    2  0.000  0.001  0.002  0.003
    3  0.008  0.002  0.002  0.012
    4  0.000  0.001  0.002  0.003
    5  0.000  0.002  0.003  0.006
    6  0.006  0.002  0.002  0.009
    7  0.008  0.002  0.002  0.012
    8  0.005  0.002  0.002  0.009
    9  0.000  0.000  0.002  0.002
   10  0.000  0.001  0.015  0.016
   11  0.022  0.004  0.006  0.032
   12  0.042  0.004  0.006  0.052
   13  0.023  0.003  0.006  0.032
   14  0.000  0.012  0.004  0.016
   15  0.003  0.003  0.004  0.011
   16  0.041  0.004  0.006  0.051
   17  0.003  0.003  0.004  0.010
   18  0.000  0.006  0.008  0.014
   19  0.018  0.004  0.006  0.027
   20  0.000  0.003  0.018  0.020
   21  0.051  0.004  0.008  0.062
   22  0.007  0.004  0.005  0.016
   23  0.049  0.004  0.008  0.061
   24  0.000  0.005  0.011  0.015
   25  0.000  0.014  0.002  0.016
   26  0.018  0.003  0.006  0.027
   27  0.007  0.004  0.005  0.016
   28  0.000  0.002  0.004  0.006
   29  0.000  0.001  0.002  0.003
   30  0.008  0.002  0.003  0.014
   31  0.000  0.001  0.002  0.003
   32  0.009  0.002  0.003  0.014
   33  0.008  0.002  0.003  0.013
   34  0.008  0.002  0.003  0.014
   35  0.000  0.000  0.003  0.003
   36  0.000  0.006  0.008  0.014
   37  0.000  0.000  0.000  0.000
tot    0.345  0.117  0.183  0.645
 
band     7 # energy   -5.79856159 # occ.  2.00000000
 
ion      s      p      d    tot
    1  0.019  0.003  0.001  0.024
    2  0.000  0.002  0.004  0.006
    3  0.000  0.002  0.004  0.006
    4  0.000  0.002  0.004  0.006
    5  0.003  0.000  0.000  0.004
    6  0.000  0.002  0.004  0.006
    7  0.000  0.002  0.004  0.006
    8  0.000  0.002  0.004  0.006
    9  0.008  0.001  0.000  0.010
   10  0.032  0.006  0.005  0.043
   11  0.007  0.000  0.012  0.018
   12  0.031  0.006  0.005  0.042
   13  0.007  0.000  0.012  0.018
   14  0.006  0.000  0.012  0.018
   15  0.009  0.007  0.004  0.020
   16  0.031  0.006  0.005  0.042
   17  0.009  0.007  0.004  0.020
   18  0.009  0.007  0.004  0.020
   19  0.026  0.009  0.002  0.037
   20  0.000  0.003  0.011  0.014
   21  0.000  0.003  0.011  0.014
   22  0.022  0.002  0.010  0.034
   23  0.000  0.003  0.011  0.014
   24  0.021  0.002  0.010  0.033
   25  0.025  0.009  0.002  0.036
   26  0.026  0.009  0.002  0.037
   27  0.022  0.002  0.010  0.034
   28  0.018  0.003  0.001  0.022
   29  0.000  0.002  0.004  0.006
   30  0.000  0.002  0.004  0.006
   31  0.000  0.002  0.004  0.006
   32  0.000  0.002  0.004  0.006
   33  0.000  0.002  0.004  0.006
   34  0.000  0.002  0.004  0.006
   35  0.013  0.002  0.001  0.016
   36  0.001  0.000  0.000  0.001
   37  0.000  0.000  0.000  0.000
tot    0.344  0.114  0.182  0.640
 
band     8 # energy   -5.79364517 # occ.  2.00000000
 
ion      s      p      d    tot
    1  0.000  0.001  0.002  0.003
    2  0.010  0.002  0.002  0.014
    3  0.001  0.001  0.002  0.004
    4  0.010  0.002  0.002  0.014
    5  0.000  0.001  0.004  0.005
    6  0.004  0.001  0.002  0.008
    7  0.001  0.001  0.002  0.004
    8  0.004  0.001  0.002  0.008
    9  0.000  0.003  0.005  0.009
   10  0.000  0.012  0.002  0.014
   11  0.023  0.003  0.005  0.031
   12  0.003  0.003  0.005  0.012
   13  0.022  0.003  0.005  0.031
   14  0.000  0.001  0.015  0.016
   15  0.043  0.004  0.006  0.053
   16  0.003  0.003  0.005  0.012
   17  0.042  0.004  0.006  0.052
   18  0.000  0.007  0.010  0.017
   19  0.030  0.004  0.006  0.040
   20  0.000  0.012  0.003  0.015
   21  0.001  0.004  0.005  0.010
   22  0.041  0.004  0.006  0.051
   23  0.001  0.004  0.005  0.010
   24  0.000  0.009  0.008  0.017
   25  0.000  0.000  0.017  0.017
   26  0.030  0.004  0.006  0.040
   27  0.041  0.004  0.006  0.051
   28  0.000  0.001  0.005  0.007
   29  0.012  0.003  0.003  0.017
   30  0.003  0.002  0.003  0.007
   31  0.012  0.003  0.003  0.017
   32  0.003  0.001  0.002  0.006
   33  0.003  0.002  0.003  0.007
   34  0.003  0.001  0.002  0.006
   35  0.000  0.004  0.005  0.009
   36  0.000  0.001  0.003  0.004
   37  0.000  0.000  0.000  0.000
tot    0.344  0.116  0.178  0.638
 
band     9 # energy   -5.79361134 # occ.  2.00000000
 
ion      s      p      d    tot
    1  0.000  0.001  0.002  0.003
    2  0.000  0.001  0.002  0.003
    3  0.008  0.002  0.002  0.013
    4  0.000  0.001  0.002  0.003
    5  0.000  0.001  0.004  0.005
    6  0.006  0.002  0.002  0.010
    7  0.008  0.002  0.002  0.013
    8  0.006  0.002  0.002  0.010
    9  0.000  0.003  0.005  0.009
   10  0.004  0.000  0.006  0.010
   11  0.007  0.002  0.012  0.021
   12  0.001  0.009  0.003  0.014
   13  0.007  0.002  0.012  0.021
   14  0.030  0.004  0.002  0.037
   15  0.014  0.006  0.009  0.029
   16  0.001  0.009  0.003  0.014
   17  0.014  0.006  0.009  0.029
   18  0.056  0.003  0.005  0.064
   19  0.010  0.001  0.013  0.024
   20  0.001  0.001  0.006  0.008
   21  0.000  0.009  0.004  0.013
   22  0.013  0.007  0.007  0.028
   23  0.000  0.009  0.004  0.013
   24  0.055  0.002  0.006  0.063
   25  0.041  0.005  0.002  0.048
   26  0.010  0.001  0.013  0.025
   27  0.013  0.007  0.007  0.028
   28  0.000  0.001  0.005  0.007
   29  0.000  0.001  0.003  0.003
   30  0.009  0.002  0.003  0.013
   31  0.000  0.001  0.003  0.003
   32  0.009  0.002  0.003  0.014
   33  0.009  0.002  0.003  0.013
   34  0.009  0.002  0.003  0.014
   35  0.000  0.004  0.005  0.009
   36  0.000  0.001  0.003  0.004
   37  0.000  0.000  0.000  0.000
tot    0.344  0.116  0.178  0.638
 
band    10 # energy   -5.74470315 # occ.  2.00000000
 
ion      s      p      d    tot
    1  0.002  0.000  0.002  0.004
    2  0.005  0.002  0.006  0.012
    3  0.005  0.002  0.006  0.012
    4  0.005  0.002  0.006  0.012
    5  0.038  0.002  0.000  0.040
    6  0.005  0.002  0.006  0.012
    7  0.005  0.002  0.006  0.012
    8  0.005  0.002  0.006  0.012
    9  0.001  0.002  0.005  0.009
   10  0.002  0.003  0.008  0.014
   11  0.011  0.008  0.004  0.023
   12  0.002  0.003  0.008  0.014
   13  0.011  0.008  0.004  0.023
   14  0.011  0.008  0.004  0.023
   15  0.029  0.003  0.008  0.040
   16  0.002  0.003  0.008  0.014
   17  0.029  0.003  0.008  0.040
   18  0.029  0.003  0.008  0.040
   19  0.008  0.002  0.008  0.018
   20  0.014  0.004  0.007  0.025
   21  0.014  0.004  0.007  0.025
   22  0.012  0.007  0.003  0.022
   23  0.014  0.004  0.007  0.025
   24  0.012  0.007  0.003  0.022
   25  0.008  0.002  0.008  0.018
   26  0.008  0.002  0.008  0.018
   27  0.012  0.007  0.003  0.022
   28  0.002  0.000  0.004  0.006
   29  0.005  0.001  0.004  0.010
   30  0.005  0.001  0.004  0.010
   31  0.005  0.001  0.004  0.010
   32  0.005  0.001  0.004  0.010
   33  0.005  0.001  0.004  0.010
   34  0.005  0.001  0.004  0.010
   35  0.000  0.001  0.003  0.004
   36  0.028  0.003  0.000  0.032
   37  0.001  0.003  0.000  0.004
tot    0.360  0.106  0.188  0.655
 
band    11 # energy   -5.09365533 # occ.  2.00000000
 
ion      s      p      d    tot
    1  0.009  0.000  0.008  0.017
    2  0.005  0.001  0.010  0.015
    3  0.005  0.001  0.010  0.015
    4  0.005  0.001  0.010  0.015
    5  0.001  0.003  0.009  0.013
    6  0.005  0.001  0.010  0.015
    7  0.005  0.001  0.010  0.015
    8  0.005  0.001  0.010  0.015
    9  0.019  0.000  0.005  0.024
   10  0.005  0.000  0.024  0.029
   11  0.016  0.001  0.018  0.035
   12  0.005  0.000  0.024  0.029
   13  0.016  0.001  0.018  0.035
   14  0.016  0.001  0.018  0.035
   15  0.001  0.001  0.019  0.020
   16  0.005  0.000  0.024  0.029
   17  0.001  0.001  0.019  0.020
   18  0.001  0.001  0.019  0.020
   19  0.002  0.000  0.016  0.018
   20  0.012  0.002  0.028  0.041
   21  0.012  0.002  0.028  0.041
   22  0.002  0.000  0.019  0.021
   23  0.012  0.002  0.028  0.041
   24  0.002  0.000  0.019  0.021
   25  0.002  0.000  0.016  0.018
   26  0.002  0.000  0.016  0.018
   27  0.002  0.000  0.019  0.021
   28  0.005  0.000  0.004  0.009
   29  0.003  0.001  0.007  0.010
   30  0.003  0.001  0.007  0.010
   31  0.003  0.001  0.007  0.010
   32  0.003  0.001  0.007  0.010
   33  0.003  0.001  0.007  0.010
   34  0.003  0.001  0.007  0.010
   35  0.011  0.000  0.004  0.015
   36  0.004  0.002  0.030  0.036
   37  0.001  0.016  0.000  0.017
tot    0.204  0.042  0.531  0.777
 
band    12 # energy   -5.05182702 # occ.  2.00000000
 
ion      s      p      d    tot
    1  0.000  0.000  0.010  0.011
    2  0.011  0.003  0.005  0.019
    3  0.020  0.004  0.005  0.029
    4  0.010  0.003  0.005  0.018
    5  0.000  0.006  0.008  0.014
    6  0.001  0.002  0.005  0.008
    7  0.019  0.004  0.005  0.028
    8  0.002  0.002  0.005  0.008
    9  0.000  0.003  0.011  0.014
   10  0.000  0.002  0.015  0.017
   11  0.019  0.004  0.009  0.033
   12  0.005  0.002  0.010  0.017
   13  0.018  0.004  0.010  0.032
   14  0.000  0.001  0.024  0.024
   15  0.005  0.001  0.010  0.016
   16  0.005  0.002  0.010  0.017
   17  0.004  0.002  0.010  0.016
   18  0.000  0.004  0.020  0.024
   19  0.000  0.001  0.011  0.011
   20  0.000  0.002  0.038  0.040
   21  0.010  0.003  0.014  0.026
   22  0.011  0.004  0.011  0.026
   23  0.010  0.003  0.012  0.025
   24  0.000  0.000  0.016  0.016
   25  0.000  0.003  0.017  0.019
   26  0.000  0.001  0.011  0.012
   27  0.012  0.004  0.011  0.027
   28  0.000  0.000  0.013  0.014
   29  0.014  0.003  0.006  0.023
   30  0.020  0.004  0.006  0.030
   31  0.012  0.003  0.006  0.021
   32  0.000  0.001  0.006  0.008
   33  0.019  0.004  0.006  0.029
   34  0.001  0.002  0.006  0.008
   35  0.000  0.003  0.008  0.011
   36  0.000  0.011  0.008  0.019
   37  0.000  0.000  0.000  0.000
tot    0.226  0.099  0.385  0.710
 
band    13 # energy   -5.05179964 # occ.  2.00000000
 
ion      s      p      d    tot
    1  0.000  0.000  0.010  0.011
    2  0.010  0.003  0.005  0.017
    3  0.001  0.002  0.005  0.008
    4  0.011  0.003  0.005  0.019
    5  0.000  0.006  0.008  0.014
    6  0.020  0.004  0.005  0.029
    7  0.002  0.002  0.005  0.008
    8  0.019  0.004  0.005  0.028
    9  0.000  0.003  0.011  0.014
   10  0.006  0.002  0.009  0.017
   11  0.006  0.002  0.020  0.027
   12  0.002  0.002  0.013  0.017
   13  0.007  0.002  0.019  0.027
   14  0.025  0.005  0.005  0.035
   15  0.001  0.003  0.017  0.022
   16  0.001  0.002  0.014  0.017
   17  0.002  0.003  0.016  0.021
   18  0.006  0.001  0.007  0.013
   19  0.000  0.002  0.015  0.017
   20  0.013  0.003  0.005  0.021
   21  0.004  0.003  0.029  0.035
   22  0.004  0.002  0.014  0.020
   23  0.003  0.002  0.030  0.036
   24  0.015  0.006  0.009  0.030
   25  0.000  0.000  0.009  0.009
   26  0.000  0.002  0.014  0.016
   27  0.003  0.001  0.015  0.019
   28  0.000  0.000  0.013  0.014
   29  0.008  0.002  0.006  0.017
   30  0.002  0.002  0.006  0.010
   31  0.010  0.003  0.006  0.018
   32  0.021  0.004  0.006  0.032
   33  0.003  0.002  0.006  0.011
   34  0.021  0.004  0.006  0.031
   35  0.000  0.003  0.008  0.011
   36  0.000  0.011  0.008  0.019
   37  0.000  0.000  0.000  0.000
tot    0.226  0.099  0.385  0.710
 
band    14 # energy   -5.04330125 # occ.  2.00000000
 
ion      s      p      d    tot
    1  0.000  0.006  0.009  0.015
    2  0.011  0.003  0.005  0.019
    3  0.020  0.004  0.005  0.029
    4  0.011  0.003  0.005  0.019
    5  0.000  0.000  0.012  0.012
    6  0.001  0.002  0.005  0.008
    7  0.020  0.004  0.005  0.028
    8  0.001  0.002  0.005  0.008
    9  0.000  0.003  0.009  0.012
   10  0.019  0.003  0.005  0.027
   11  0.000  0.003  0.014  0.017
   12  0.005  0.003  0.020  0.028
   13  0.000  0.003  0.014  0.017
   14  0.000  0.000  0.008  0.009
   15  0.004  0.001  0.016  0.021
   16  0.004  0.003  0.021  0.028
   17  0.005  0.001  0.016  0.022
   18  0.018  0.005  0.007  0.030
   19  0.005  0.002  0.020  0.026
   20  0.006  0.003  0.012  0.021
   21  0.001  0.002  0.013  0.016
   22  0.001  0.003  0.019  0.023
   23  0.001  0.002  0.013  0.016
   24  0.004  0.001  0.005  0.010
   25  0.018  0.006  0.006  0.030
   26  0.005  0.002  0.020  0.026
   27  0.001  0.003  0.020  0.023
   28  0.000  0.006  0.008  0.014
   29  0.013  0.003  0.006  0.022
   30  0.020  0.003  0.006  0.030
   31  0.013  0.003  0.006  0.022
   32  0.001  0.002  0.006  0.009
   33  0.020  0.003  0.006  0.030
   34  0.001  0.002  0.006  0.009
   35  0.000  0.003  0.012  0.015
   36  0.000  0.001  0.010  0.011
   37  0.000  0.000  0.000  0.000
tot    0.229  0.095  0.380  0.703
 
band    15 # energy   -5.04325083 # occ.  2.00000000
 
ion      s      p      d    tot
    1  0.000  0.006  0.009  0.015
    2  0.010  0.003  0.005  0.018
    3  0.002  0.002  0.005  0.008
    4  0.010  0.003  0.005  0.018
    5  0.000  0.000  0.012  0.012
    6  0.020  0.004  0.005  0.029
    7  0.002  0.002  0.005  0.009
    8  0.020  0.004  0.005  0.029
    9  0.000  0.003  0.009  0.012
   10  0.000  0.002  0.026  0.028
   11  0.000  0.001  0.010  0.011
   12  0.014  0.003  0.010  0.027
   13  0.000  0.001  0.010  0.012
   14  0.000  0.004  0.016  0.020
   15  0.013  0.004  0.010  0.027
   16  0.014  0.003  0.010  0.027
   17  0.013  0.004  0.010  0.027
   18  0.000  0.000  0.018  0.019
   19  0.014  0.004  0.010  0.029
   20  0.000  0.001  0.014  0.015
   21  0.004  0.002  0.013  0.019
   22  0.003  0.001  0.010  0.014
   23  0.004  0.002  0.013  0.019
   24  0.000  0.003  0.024  0.028
   25  0.000  0.000  0.025  0.025
   26  0.014  0.004  0.010  0.029
   27  0.003  0.001  0.010  0.014
   28  0.000  0.006  0.008  0.014
   29  0.010  0.002  0.006  0.018
   30  0.002  0.002  0.006  0.011
   31  0.010  0.002  0.006  0.018
   32  0.022  0.004  0.006  0.032
   33  0.002  0.002  0.006  0.011
   34  0.022  0.004  0.006  0.032
   35  0.000  0.003  0.012  0.015
   36  0.000  0.001  0.010  0.011
   37  0.000  0.000  0.000  0.000
tot    0.228  0.095  0.380  0.703
 
band    16 # energy   -5.03627586 # occ.  2.00000000
 
ion      s      p      d    tot
    1  0.035  0.003  0.000  0.038
    2  0.000  0.003  0.010  0.013
    3  0.000  0.003  0.010  0.013
    4  0.000  0.003  0.010  0.013
    5  0.000  0.000  0.000  0.000
    6  0.000  0.003  0.010  0.013
    7  0.000  0.003  0.010  0.013
    8  0.000  0.003  0.010  0.013
    9  0.028  0.003  0.001  0.032
   10  0.009  0.004  0.011  0.023
   11  0.001  0.000  0.015  0.016
   12  0.009  0.004  0.010  0.023
   13  0.001  0.000  0.015  0.016
   14  0.001  0.000  0.015  0.017
   15  0.007  0.003  0.016  0.027
   16  0.009  0.004  0.010  0.023
   17  0.007  0.003  0.016  0.027
   18  0.007  0.003  0.016  0.026
   19  0.005  0.004  0.018  0.027
   20  0.000  0.000  0.017  0.017
   21  0.000  0.000  0.017  0.017
   22  0.010  0.003  0.009  0.023
   23  0.000  0.000  0.017  0.017
   24  0.011  0.003  0.009  0.023
   25  0.005  0.004  0.018  0.027
   26  0.005  0.004  0.018  0.027
   27  0.010  0.003  0.009  0.023
   28  0.037  0.003  0.000  0.041
   29  0.000  0.003  0.011  0.014
   30  0.000  0.003  0.011  0.014
   31  0.000  0.003  0.011  0.014
   32  0.000  0.003  0.011  0.014
   33  0.000  0.003  0.011  0.014
   34  0.000  0.003  0.011  0.014
   35  0.026  0.003  0.001  0.030
   36  0.000  0.000  0.000  0.000
   37  0.000  0.000  0.000  0.000
tot    0.225  0.091  0.389  0.705
 
band    17 # energy   -4.93773696 # occ.  2.00000000
 
ion      s      p      d    tot
    1  0.006  0.002  0.002  0.009
    2  0.001  0.002  0.010  0.013
    3  0.001  0.002  0.010  0.013
    4  0.001  0.002  0.010  0.013
    5  0.043  0.002  0.000  0.045
    6  0.001  0.002  0.010  0.013
    7  0.001  0.002  0.010  0.013
    8  0.001  0.002  0.010  0.013
    9  0.003  0.001  0.003  0.007
   10  0.003  0.001  0.021  0.024
   11  0.002  0.003  0.018  0.023
   12  0.003  0.001  0.021  0.024
   13  0.002  0.003  0.018  0.023
   14  0.002  0.003  0.018  0.023
   15  0.007  0.001  0.013  0.021
   16  0.003  0.001  0.021  0.024
   17  0.007  0.001  0.013  0.021
   18  0.007  0.001  0.013  0.021
   19  0.012  0.001  0.020  0.033
   20  0.004  0.004  0.017  0.025
   21  0.004  0.004  0.017  0.025
   22  0.005  0.001  0.019  0.024
   23  0.004  0.004  0.017  0.025
   24  0.005  0.001  0.019  0.024
   25  0.012  0.001  0.020  0.033
   26  0.012  0.001  0.020  0.033
   27  0.005  0.001  0.019  0.024
   28  0.001  0.002  0.008  0.010
   29  0.002  0.001  0.010  0.014
   30  0.002  0.001  0.010  0.014
   31  0.002  0.001  0.010  0.014
   32  0.002  0.001  0.010  0.014
   33  0.002  0.001  0.010  0.014
   34  0.002  0.001  0.010  0.014
   35  0.001  0.001  0.004  0.007
   36  0.050  0.003  0.002  0.055
   37  0.002  0.015  0.000  0.017
tot    0.221  0.083  0.462  0.766
 
band    18 # energy   -4.44961773 # occ.  2.00000000
 
ion      s      p      d    tot
    1  0.000  0.002  0.001  0.003
    2  0.005  0.001  0.004  0.010
    3  0.007  0.001  0.004  0.011
    4  0.005  0.001  0.004  0.010
    5  0.000  0.001  0.013  0.014
    6  0.000  0.000  0.004  0.004
    7  0.007  0.001  0.004  0.011
    8  0.000  0.000  0.004  0.004
    9  0.000  0.000  0.008  0.008
   10  0.000  0.004  0.007  0.011
   11  0.000  0.000  0.023  0.023
   12  0.000  0.001  0.010  0.011
   13  0.000  0.000  0.023  0.023
   14  0.000  0.000  0.001  0.001
   15  0.000  0.001  0.005  0.006
   16  0.000  0.001  0.010  0.011
   17  0.000  0.001  0.005  0.006
   18  0.000  0.002  0.009  0.011
   19  0.000  0.000  0.020  0.021
   20  0.002  0.002  0.024  0.028
   21  0.001  0.001  0.019  0.020
   22  0.000  0.000  0.019  0.019
   23  0.001  0.001  0.019  0.020
   24  0.000  0.000  0.005  0.005
   25  0.001  0.001  0.004  0.007
   26  0.000  0.000  0.020  0.021
   27  0.000  0.000  0.019  0.019
   28  0.000  0.002  0.016  0.018
   29  0.018  0.001  0.016  0.035
   30  0.002  0.001  0.012  0.015
   31  0.018  0.001  0.016  0.035
   32  0.008  0.001  0.013  0.022
   33  0.002  0.001  0.012  0.015
   34  0.008  0.001  0.013  0.023
   35  0.000  0.000  0.031  0.031
   36  0.000  0.017  0.083  0.099
   37  0.000  0.150  0.000  0.150
tot    0.085  0.197  0.501  0.783
 
band    19 # energy   -4.44956989 # occ.  2.00000000
 
ion      s      p      d    tot
    1  0.000  0.002  0.001  0.003
    2  0.003  0.001  0.004  0.007
    3  0.001  0.000  0.004  0.006
    4  0.003  0.001  0.004  0.007
    5  0.000  0.001  0.013  0.014
    6  0.008  0.001  0.004  0.013
    7  0.001  0.000  0.004  0.006
    8  0.008  0.001  0.004  0.013
    9  0.000  0.000  0.008  0.008
   10  0.000  0.000  0.011  0.011
   11  0.000  0.000  0.008  0.008
   12  0.000  0.003  0.008  0.011
   13  0.000  0.000  0.008  0.008
   14  0.000  0.000  0.030  0.030
   15  0.000  0.002  0.008  0.009
   16  0.000  0.003  0.008  0.011
   17  0.000  0.002  0.008  0.009
   18  0.000  0.000  0.004  0.004
   19  0.001  0.001  0.010  0.011
   20  0.000  0.000  0.017  0.017
   21  0.002  0.002  0.022  0.025
   22  0.000  0.000  0.009  0.010
   23  0.002  0.002  0.022  0.025
   24  0.000  0.000  0.023  0.023
   25  0.000  0.000  0.026  0.026
   26  0.001  0.001  0.010  0.011
   27  0.000  0.000  0.010  0.010
   28  0.000  0.002  0.016  0.018
   29  0.001  0.001  0.011  0.013
   30  0.017  0.001  0.015  0.034
   31  0.001  0.001  0.011  0.013
   32  0.010  0.001  0.015  0.026
   33  0.017  0.001  0.015  0.034
   34  0.010  0.001  0.015  0.026
   35  0.000  0.000  0.031  0.031
   36  0.000  0.017  0.083  0.099
   37  0.000  0.150  0.000  0.150
tot    0.085  0.197  0.501  0.783
 
band    20 # energy   -4.37343153 # occ.  2.00000000
 
ion      s      p      d    tot
    1  0.000  0.000  0.032  0.032
    2  0.010  0.001  0.009  0.021
    3  0.014  0.001  0.009  0.024
    4  0.010  0.001  0.009  0.020
    5  0.000  0.002  0.003  0.006
    6  0.000  0.001  0.009  0.010
    7  0.013  0.001  0.009  0.024
    8  0.000  0.001  0.009  0.010
    9  0.000  0.002  0.016  0.019
   10  0.000  0.000  0.044  0.044
   11  0.000  0.006  0.017  0.023
   12  0.000  0.000  0.020  0.021
   13  0.000  0.005  0.016  0.022
   14  0.000  0.000  0.005  0.005
   15  0.000  0.003  0.015  0.018
   16  0.000  0.001  0.019  0.020
   17  0.000  0.003  0.017  0.020
   18  0.000  0.000  0.050  0.050
   19  0.001  0.002  0.016  0.019
   20  0.000  0.000  0.070  0.070
   21  0.001  0.000  0.024  0.025
   22  0.002  0.004  0.017  0.023
   23  0.001  0.000  0.022  0.023
   24  0.000  0.000  0.015  0.015
   25  0.000  0.000  0.023  0.023
   26  0.001  0.002  0.016  0.019
   27  0.002  0.004  0.017  0.023
   28  0.000  0.000  0.022  0.023
   29  0.015  0.001  0.014  0.029
   30  0.003  0.001  0.013  0.016
   31  0.015  0.001  0.014  0.029
   32  0.005  0.001  0.011  0.017
   33  0.002  0.001  0.012  0.015
   34  0.005  0.001  0.010  0.016
   35  0.000  0.002  0.001  0.003
   36  0.000  0.002  0.020  0.023
   37  0.000  0.002  0.000  0.002
tot    0.100  0.054  0.648  0.802
 
band    21 # energy   -4.37340503 # occ.  2.00000000
 
ion      s      p      d    tot
    1  0.000  0.000  0.032  0.033
    2  0.006  0.001  0.009  0.016
    3  0.002  0.001  0.009  0.012
    4  0.006  0.001  0.009  0.016
    5  0.000  0.002  0.003  0.006
    6  0.016  0.001  0.009  0.026
    7  0.003  0.001  0.009  0.012
    8  0.016  0.001  0.009  0.026
    9  0.000  0.002  0.016  0.019
   10  0.000  0.001  0.012  0.013
   11  0.000  0.002  0.009  0.011
   12  0.000  0.000  0.035  0.036
   13  0.000  0.002  0.009  0.011
   14  0.001  0.007  0.020  0.028
   15  0.000  0.001  0.039  0.040
   16  0.000  0.000  0.037  0.037
   17  0.000  0.001  0.038  0.039
   18  0.001  0.003  0.005  0.009
   19  0.000  0.001  0.021  0.022
   20  0.001  0.000  0.007  0.009
   21  0.000  0.000  0.053  0.053
   22  0.001  0.002  0.016  0.018
   23  0.000  0.000  0.055  0.055
   24  0.002  0.006  0.018  0.026
   25  0.001  0.003  0.014  0.018
   26  0.000  0.001  0.021  0.022
   27  0.001  0.001  0.016  0.018
   28  0.000  0.000  0.022  0.023
   29  0.000  0.001  0.011  0.012
   30  0.012  0.001  0.012  0.025
   31  0.000  0.001  0.011  0.012
   32  0.009  0.001  0.014  0.024
   33  0.013  0.001  0.012  0.025
   34  0.010  0.001  0.014  0.025
   35  0.000  0.002  0.001  0.003
   36  0.000  0.002  0.020  0.023