PROCAR new format
# of k-points:   10         # of bands:  240         # of ions:   38

 k-point     1 :    0.00000000 0.00000000 0.00000000     weight = 0.01562500

band     1 # energy  -23.31389490 # occ.  2.00000000
 
ion      s      p      d    tot
    1  0.000  0.000  0.000  0.000
    2  0.000  0.000  0.000  0.000
    3  0.000  0.000  0.000  0.000
    4  0.000  0.000  0.000  0.000
    5  0.000  0.000  0.000  0.000
    6  0.000  0.000  0.000  0.000
    7  0.000  0.000  0.000  0.000
    8  0.000  0.000  0.000  0.000
    9  0.000  0.000  0.000  0.000
   10  0.000  0.000  0.000  0.000
   11  0.000  0.000  0.000  0.000
   12  0.000  0.000  0.000  0.000
   13  0.000  0.000  0.000  0.000
   14  0.000  0.000  0.000  0.000
   15  0.000  0.000  0.000  0.000
   16  0.000  0.000  0.000  0.000
   17  0.000  0.000  0.000  0.000
   18  0.000  0.000  0.000  0.000
   19  0.000  0.000  0.000  0.000
   20  0.000  0.000  0.000  0.000
   21  0.000  0.000  0.000  0.000
   22  0.000  0.000  0.000  0.000
   23  0.000  0.000  0.000  0.000
   24  0.000  0.000  0.000  0.000
   25  0.000  0.000  0.000  0.000
   26  0.000  0.000  0.000  0.000
   27  0.000  0.000  0.000  0.000
   28  0.000  0.000  0.000  0.000
   29  0.000  0.000  0.000  0.000
   30  0.000  0.000  0.000  0.000
   31  0.000  0.000  0.000  0.000
   32  0.000  0.000  0.000  0.000
   33  0.000  0.000  0.000  0.000
   34  0.000  0.000  0.000  0.000
   35  0.000  0.000  0.000  0.000
   36  0.000  0.000  0.000  0.000
   37  0.156  0.116  0.000  0.271
   38  0.641  0.093  0.000  0.735
tot    0.797  0.209  0.000  1.006
 
band     2 # energy   -8.76847474 # occ.  2.00000000
 
ion      s      p      d    tot
    1  0.000  0.000  0.000  0.000
    2  0.000  0.000  0.000  0.000
    3  0.000  0.000  0.000  0.000
    4  0.000  0.000  0.000  0.000
    5  0.000  0.000  0.000  0.000
    6  0.000  0.000  0.000  0.000
    7  0.000  0.000  0.000  0.000
    8  0.000  0.000  0.000  0.000
    9  0.000  0.000  0.000  0.000
   10  0.000  0.000  0.000  0.000
   11  0.000  0.000  0.000  0.000
   12  0.000  0.000  0.000  0.000
   13  0.000  0.000  0.000  0.000
   14  0.000  0.000  0.000  0.000
   15  0.000  0.000  0.000  0.000
   16  0.000  0.000  0.000  0.000
   17  0.000  0.000  0.000  0.000
   18  0.000  0.000  0.000  0.000
   19  0.000  0.000  0.000  0.000
   20  0.000  0.000  0.000  0.000
   21  0.000  0.000  0.000  0.000
   22  0.000  0.000  0.000  0.000
   23  0.000  0.000  0.000  0.000
   24  0.000  0.000  0.000  0.000
   25  0.000  0.000  0.000  0.000
   26  0.000  0.000  0.000  0.000
   27  0.000  0.000  0.000  0.000
   28  0.000  0.000  0.000  0.000
   29  0.000  0.000  0.000  0.001
   30  0.000  0.000  0.000  0.001
   31  0.000  0.000  0.000  0.001
   32  0.000  0.000  0.000  0.001
   33  0.000  0.000  0.000  0.001
   34  0.000  0.000  0.000  0.001
   35  0.000  0.000  0.000  0.000
   36  0.022  0.014  0.020  0.055
   37  0.255  0.000  0.000  0.255
   38  0.157  0.305  0.000  0.463
tot    0.436  0.320  0.022  0.779
 
band     3 # energy   -7.02493754 # occ.  2.00000000
 
ion      s      p      d    tot
    1  0.006  0.001  0.000  0.006
    2  0.006  0.001  0.000  0.006
    3  0.006  0.001  0.000  0.006
    4  0.006  0.001  0.000  0.006
    5  0.006  0.001  0.000  0.006
    6  0.006  0.001  0.000  0.006
    7  0.006  0.001  0.000  0.006
    8  0.006  0.001  0.000  0.006
    9  0.006  0.001  0.000  0.006
   10  0.023  0.000  0.000  0.023
   11  0.023  0.000  0.000  0.024
   12  0.023  0.000  0.000  0.023
   13  0.023  0.000  0.000  0.024
   14  0.023  0.000  0.000  0.024
   15  0.022  0.000  0.000  0.023
   16  0.023  0.000  0.000  0.023
   17  0.022  0.000  0.000  0.023
   18  0.022  0.000  0.000  0.023
   19  0.023  0.000  0.000  0.023
   20  0.025  0.000  0.000  0.025
   21  0.025  0.000  0.000  0.025
   22  0.022  0.000  0.000  0.023
   23  0.025  0.000  0.000  0.025
   24  0.022  0.000  0.000  0.023
   25  0.023  0.000  0.000  0.023
   26  0.023  0.000  0.000  0.023
   27  0.022  0.000  0.000  0.023
   28  0.006  0.001  0.000  0.006
   29  0.006  0.001  0.000  0.006
   30  0.006  0.001  0.000  0.006
   31  0.006  0.001  0.000  0.006
   32  0.006  0.001  0.000  0.006
   33  0.006  0.001  0.000  0.006
   34  0.006  0.001  0.000  0.006
   35  0.005  0.001  0.000  0.006
   36  0.010  0.000  0.000  0.011
   37  0.000  0.003  0.000  0.003
   38  0.001  0.007  0.000  0.007
tot    0.522  0.022  0.006  0.550
 
band     4 # energy   -6.20074834 # occ.  2.00000000
 
ion      s      p      d    tot
    1  0.007  0.000  0.000  0.008
    2  0.008  0.000  0.000  0.009
    3  0.008  0.000  0.000  0.009
    4  0.008  0.000  0.000  0.009
    5  0.008  0.000  0.000  0.009
    6  0.008  0.000  0.000  0.009
    7  0.008  0.000  0.000  0.009
    8  0.008  0.000  0.000  0.009
    9  0.008  0.000  0.000  0.009
   10  0.010  0.001  0.013  0.023
   11  0.012  0.001  0.010  0.022
   12  0.010  0.001  0.013  0.023
   13  0.012  0.001  0.010  0.022
   14  0.012  0.001  0.010  0.022
   15  0.012  0.001  0.009  0.022
   16  0.010  0.001  0.013  0.023
   17  0.012  0.001  0.009  0.022
   18  0.012  0.001  0.009  0.022
   19  0.007  0.001  0.009  0.017
   20  0.010  0.001  0.013  0.025
   21  0.010  0.001  0.013  0.025
   22  0.006  0.001  0.008  0.015
   23  0.010  0.001  0.013  0.025
   24  0.006  0.001  0.008  0.015
   25  0.007  0.001  0.009  0.017
   26  0.007  0.001  0.009  0.017
   27  0.006  0.001  0.008  0.015
   28  0.007  0.000  0.001  0.008
   29  0.009  0.000  0.002  0.011
   30  0.009  0.000  0.002  0.011
   31  0.009  0.000  0.002  0.011
   32  0.009  0.000  0.002  0.011
   33  0.009  0.000  0.002  0.011
   34  0.009  0.000  0.002  0.011
   35  0.006  0.000  0.001  0.007
   36  0.038  0.001  0.007  0.046
   37  0.004  0.034  0.000  0.038
   38  0.002  0.043  0.000  0.045
tot    0.351  0.101  0.207  0.659
 
band     5 # energy   -6.11754947 # occ.  2.00000000
 
ion      s      p      d    tot
    1  0.000  0.000  0.000  0.000
    2  0.000  0.000  0.000  0.000
    3  0.000  0.000  0.000  0.000
    4  0.000  0.000  0.000  0.000
    5  0.000  0.000  0.000  0.000
    6  0.000  0.000  0.000  0.000
    7  0.000  0.000  0.000  0.000
    8  0.000  0.000  0.000  0.000
    9  0.000  0.000  0.000  0.000
   10  0.000  0.000  0.000  0.000
   11  0.000  0.000  0.000  0.000
   12  0.000  0.000  0.000  0.000
   13  0.000  0.000  0.000  0.000
   14  0.000  0.000  0.000  0.000
   15  0.000  0.000  0.000  0.000
   16  0.000  0.000  0.000  0.000
   17  0.000  0.000  0.000  0.000
   18  0.000  0.000  0.000  0.000
   19  0.000  0.000  0.000  0.000
   20  0.000  0.000  0.000  0.000
   21  0.000  0.000  0.000  0.000
   22  0.000  0.000  0.000  0.000
   23  0.000  0.000  0.000  0.000
   24  0.000  0.000  0.000  0.000
   25  0.000  0.000  0.000  0.000
   26  0.000  0.000  0.000  0.000
   27  0.000  0.000  0.000  0.000
   28  0.000  0.000  0.000  0.000
   29  0.000  0.000  0.001  0.002
   30  0.000  0.000  0.001  0.001
   31  0.000  0.000  0.001  0.002
   32  0.000  0.000  0.001  0.002
   33  0.000  0.000  0.001  0.001
   34  0.000  0.000  0.001  0.002
   35  0.000  0.000  0.000  0.000
   36  0.000  0.002  0.008  0.010
   37  0.000  0.168  0.000  0.168
   38  0.000  0.487  0.000  0.487
tot    0.002  0.657  0.017  0.676
 
band     6 # energy   -6.11745069 # occ.  2.00000000
 
ion      s      p      d    tot
    1  0.000  0.000  0.000  0.000
    2  0.000  0.000  0.000  0.000
    3  0.000  0.000  0.000  0.000
    4  0.000  0.000  0.000  0.000
    5  0.000  0.000  0.000  0.000
    6  0.000  0.000  0.000  0.000
    7  0.000  0.000  0.000  0.000
    8  0.000  0.000  0.000  0.000
    9  0.000  0.000  0.000  0.000
   10  0.000  0.000  0.000  0.000
   11  0.000  0.000  0.000  0.000
   12  0.000  0.000  0.000  0.000
   13  0.000  0.000  0.000  0.000
   14  0.000  0.000  0.000  0.000
   15  0.000  0.000  0.000  0.000
   16  0.000  0.000  0.000  0.000
   17  0.000  0.000  0.000  0.000
   18  0.000  0.000  0.000  0.000
   19  0.000  0.000  0.000  0.000
   20  0.000  0.000  0.000  0.000
   21  0.000  0.000  0.000  0.000
   22  0.000  0.000  0.000  0.000
   23  0.000  0.000  0.000  0.000
   24  0.000  0.000  0.000  0.000
   25  0.000  0.000  0.000  0.000
   26  0.000  0.000  0.000  0.000
   27  0.000  0.000  0.000  0.000
   28  0.000  0.000  0.000  0.000
   29  0.000  0.000  0.001  0.001
   30  0.001  0.000  0.002  0.003
   31  0.000  0.000  0.001  0.001
   32  0.000  0.000  0.001  0.001
   33  0.001  0.000  0.002  0.003
   34  0.000  0.000  0.001  0.001
   35  0.000  0.000  0.000  0.000
   36  0.000  0.002  0.008  0.010
   37  0.000  0.168  0.000  0.168
   38  0.000  0.487  0.000  0.487
tot    0.002  0.657  0.017  0.676
 
band     7 # energy   -5.96097989 # occ.  2.00000000
 
ion      s      p      d    tot
    1  0.000  0.000  0.005  0.005
    2  0.001  0.000  0.002  0.003
    3  0.001  0.000  0.002  0.003
    4  0.001  0.000  0.002  0.003
    5  0.001  0.000  0.001  0.003
    6  0.001  0.000  0.002  0.003
    7  0.001  0.000  0.002  0.003
    8  0.001  0.000  0.002  0.003
    9  0.001  0.000  0.002  0.003
   10  0.003  0.000  0.011  0.014
   11  0.001  0.000  0.018  0.019
   12  0.003  0.000  0.011  0.014
   13  0.001  0.000  0.018  0.019
   14  0.001  0.000  0.018  0.019
   15  0.000  0.000  0.013  0.013
   16  0.003  0.000  0.011  0.014
   17  0.000  0.000  0.013  0.013
   18  0.000  0.000  0.013  0.013
   19  0.004  0.000  0.023  0.027
   20  0.001  0.000  0.048  0.049
   21  0.001  0.000  0.048  0.049
   22  0.009  0.000  0.018  0.027
   23  0.001  0.000  0.048  0.049
   24  0.009  0.000  0.018  0.027
   25  0.004  0.000  0.023  0.027
   26  0.004  0.000  0.023  0.027
   27  0.009  0.000  0.018  0.027
   28  0.001  0.000  0.010  0.011
   29  0.003  0.000  0.013  0.017
   30  0.003  0.000  0.013  0.017
   31  0.003  0.000  0.013  0.017
   32  0.003  0.000  0.013  0.017
   33  0.003  0.000  0.013  0.017
   34  0.003  0.000  0.013  0.017
   35  0.000  0.000  0.009  0.010
   36  0.051  0.007  0.011  0.070
   37  0.011  0.064  0.000  0.075
   38  0.003  0.071  0.000  0.074
tot    0.145  0.146  0.526  0.817
 
band     8 # energy   -5.81680751 # occ.  2.00000000
 
ion      s      p      d    tot
    1  0.025  0.000  0.015  0.040
    2  0.014  0.000  0.023  0.037
    3  0.014  0.000  0.023  0.037
    4  0.014  0.000  0.023  0.037
    5  0.009  0.000  0.026  0.036
    6  0.014  0.000  0.023  0.037
    7  0.014  0.000  0.023  0.037
    8  0.014  0.000  0.023  0.037
    9  0.010  0.000  0.023  0.033
   10  0.001  0.000  0.031  0.032
   11  0.001  0.001  0.013  0.015
   12  0.001  0.000  0.031  0.032
   13  0.001  0.001  0.013  0.015
   14  0.001  0.001  0.013  0.015
   15  0.003  0.001  0.009  0.013
   16  0.001  0.000  0.031  0.032
   17  0.003  0.001  0.009  0.013
   18  0.003  0.001  0.009  0.013
   19  0.000  0.000  0.011  0.011
   20  0.000  0.000  0.031  0.031
   21  0.000  0.000  0.031  0.031
   22  0.008  0.000  0.002  0.010
   23  0.000  0.000  0.031  0.031
   24  0.008  0.000  0.002  0.010
   25  0.000  0.000  0.011  0.011
   26  0.000  0.000  0.011  0.011
   27  0.008  0.000  0.002  0.010
   28  0.003  0.000  0.000  0.003
   29  0.001  0.000  0.004  0.006
   30  0.001  0.000  0.004  0.006
   31  0.001  0.000  0.004  0.006
   32  0.001  0.000  0.004  0.006
   33  0.001  0.000  0.004  0.006
   34  0.001  0.000  0.004  0.006
   35  0.007  0.001  0.000  0.008
   36  0.007  0.001  0.011  0.019
   37  0.003  0.015  0.000  0.018
   38  0.001  0.014  0.000  0.015
tot    0.195  0.040  0.531  0.766
 
band     9 # energy   -5.74778824 # occ.  2.00000000
 
ion      s      p      d    tot
    1  0.000  0.000  0.007  0.007
    2  0.001  0.000  0.003  0.004
    3  0.000  0.000  0.003  0.003
    4  0.001  0.000  0.003  0.004
    5  0.000  0.000  0.002  0.002
    6  0.000  0.000  0.002  0.003
    7  0.000  0.000  0.003  0.003
    8  0.001  0.000  0.002  0.003
    9  0.000  0.000  0.004  0.004
   10  0.009  0.001  0.026  0.035
   11  0.000  0.000  0.033  0.033
   12  0.001  0.001  0.020  0.022
   13  0.000  0.000  0.036  0.036
   14  0.000  0.000  0.023  0.023
   15  0.004  0.000  0.023  0.028
   16  0.003  0.001  0.021  0.025
   17  0.002  0.000  0.027  0.029
   18  0.011  0.001  0.009  0.022
   19  0.009  0.001  0.042  0.052
   20  0.012  0.001  0.015  0.028
   21  0.002  0.000  0.117  0.119
   22  0.000  0.001  0.022  0.024
   23  0.004  0.000  0.096  0.100
   24  0.002  0.000  0.037  0.040
   25  0.026  0.001  0.027  0.053
   26  0.004  0.001  0.046  0.052
   27  0.001  0.001  0.025  0.027
   28  0.000  0.000  0.006  0.007
   29  0.000  0.000  0.002  0.002
   30  0.001  0.000  0.006  0.007
   31  0.000  0.000  0.002  0.002
   32  0.000  0.000  0.005  0.005
   33  0.001  0.000  0.005  0.007
   34  0.000  0.000  0.004  0.004
   35  0.000  0.000  0.000  0.000
   36  0.000  0.000  0.001  0.001
   37  0.000  0.000  0.000  0.000
   38  0.000  0.001  0.000  0.001
tot    0.098  0.015  0.705  0.818
 
band    10 # energy   -5.74778584 # occ.  2.00000000
 
ion      s      p      d    tot
    1  0.000  0.000  0.007  0.007
    2  0.000  0.000  0.002  0.002
    3  0.001  0.000  0.003  0.004
    4  0.000  0.000  0.002  0.002
    5  0.000  0.000  0.002  0.002
    6  0.000  0.000  0.003  0.004
    7  0.001  0.000  0.002  0.003
    8  0.000  0.000  0.003  0.004
    9  0.000  0.000  0.004  0.004
   10  0.000  0.001  0.019  0.020
   11  0.000  0.000  0.028  0.028
   12  0.007  0.001  0.025  0.033
   13  0.000  0.000  0.025  0.026
   14  0.000  0.000  0.038  0.039
   15  0.008  0.001  0.017  0.025
   16  0.006  0.001  0.023  0.030
   17  0.010  0.001  0.013  0.023
   18  0.000  0.000  0.030  0.031
   19  0.017  0.001  0.035  0.053
   20  0.000  0.000  0.137  0.137
   21  0.010  0.000  0.035  0.045
   22  0.002  0.000  0.034  0.037
   23  0.008  0.000  0.056  0.065
   24  0.000  0.002  0.019  0.021
   25  0.000  0.001  0.050  0.051
   26  0.022  0.001  0.030  0.053
   27  0.002  0.001  0.031  0.033
   28  0.000  0.000  0.006  0.007
   29  0.001  0.000  0.006  0.007
   30  0.000  0.000  0.002  0.002
   31  0.001  0.000  0.006  0.007
   32  0.000  0.000  0.003  0.004
   33  0.000  0.000  0.003  0.003
   34  0.001  0.000  0.004  0.005
   35  0.000  0.000  0.000  0.000
   36  0.000  0.000  0.001  0.001
   37  0.000  0.000  0.000  0.000
   38  0.000  0.001  0.000  0.001
tot    0.098  0.015  0.705  0.818
 
band    11 # energy   -5.74320215 # occ.  2.00000000
 
ion      s      p      d    tot
    1  0.000  0.000  0.001  0.002
    2  0.001  0.000  0.006  0.007
    3  0.001  0.000  0.006  0.007
    4  0.001  0.000  0.006  0.007
    5  0.000  0.000  0.009  0.010
    6  0.001  0.000  0.006  0.007
    7  0.001  0.000  0.006  0.007
    8  0.001  0.000  0.006  0.007
    9  0.003  0.000  0.000  0.003
   10  0.001  0.001  0.010  0.011
   11  0.011  0.001  0.036  0.048
   12  0.001  0.001  0.010  0.011
   13  0.011  0.001  0.036  0.048
   14  0.011  0.001  0.036  0.048
   15  0.002  0.000  0.049  0.051
   16  0.001  0.001  0.010  0.011
   17  0.002  0.000  0.049  0.051
   18  0.002  0.000  0.049  0.051
   19  0.001  0.000  0.050  0.051
   20  0.011  0.001  0.053  0.065
   21  0.011  0.001  0.053  0.065
   22  0.003  0.001  0.008  0.011
   23  0.011  0.001  0.053  0.065
   24  0.003  0.001  0.008  0.011
   25  0.001  0.000  0.050  0.050
   26  0.001  0.000  0.050  0.051
   27  0.003  0.001  0.008  0.011
   28  0.001  0.000  0.001  0.002
   29  0.000  0.000  0.006  0.006
   30  0.000  0.000  0.006  0.006
   31  0.000  0.000  0.006  0.006
   32  0.000  0.000  0.006  0.006
   33  0.000  0.000  0.006  0.006
   34  0.000  0.000  0.006  0.006
   35  0.000  0.000  0.000  0.001
   36  0.001  0.002  0.000  0.003
   37  0.000  0.002  0.000  0.003
   38  0.000  0.003  0.000  0.003
tot    0.096  0.020  0.699  0.815
 
band    12 # energy   -5.73923950 # occ.  2.00000000
 
ion      s      p      d    tot
    1  0.000  0.000  0.005  0.005
    2  0.002  0.001  0.006  0.009
    3  0.001  0.000  0.003  0.005
    4  0.002  0.001  0.006  0.009
    5  0.000  0.000  0.010  0.010
    6  0.000  0.000  0.004  0.004
    7  0.001  0.000  0.003  0.004
    8  0.000  0.000  0.003  0.004
    9  0.000  0.000  0.001  0.001
   10  0.000  0.000  0.092  0.092
   11  0.025  0.001  0.028  0.054
   12  0.008  0.001  0.033  0.041
   13  0.023  0.001  0.031  0.055
   14  0.000  0.001  0.066  0.067
   15  0.004  0.000  0.030  0.034
   16  0.008  0.001  0.027  0.036
   17  0.003  0.001  0.028  0.032
   18  0.000  0.002  0.010  0.011
   19  0.000  0.000  0.021  0.022
   20  0.000  0.001  0.031  0.033
   21  0.013  0.001  0.029  0.043
   22  0.010  0.001  0.018  0.029
   23  0.014  0.001  0.029  0.044
   24  0.000  0.000  0.052  0.052
   25  0.000  0.001  0.023  0.023
   26  0.000  0.000  0.021  0.022
   27  0.011  0.001  0.015  0.027
   28  0.000  0.000  0.000  0.000
   29  0.000  0.000  0.002  0.002
   30  0.001  0.000  0.003  0.004
   31  0.000  0.000  0.002  0.002
   32  0.001  0.000  0.004  0.006
   33  0.001  0.000  0.003  0.004
   34  0.001  0.000  0.004  0.006
   35  0.000  0.000  0.006  0.006
   36  0.000  0.001  0.001  0.002
   37  0.000  0.000  0.000  0.000
   38  0.000  0.000  0.000  0.000
tot    0.130  0.018  0.653  0.800
 
band    13 # energy   -5.73923662 # occ.  2.00000000
 
ion      s      p      d    tot
    1  0.000  0.000  0.005  0.005
    2  0.000  0.000  0.002  0.003
    3  0.001  0.000  0.005  0.007
    4  0.000  0.000  0.002  0.003
    5  0.000  0.000  0.010  0.010
    6  0.002  0.001  0.005  0.008
    7  0.001  0.000  0.006  0.007
    8  0.002  0.001  0.005  0.008
    9  0.000  0.000  0.001  0.001
   10  0.011  0.001  0.009  0.021
   11  0.007  0.001  0.056  0.064
   12  0.003  0.000  0.069  0.072
   13  0.009  0.001  0.053  0.063
   14  0.032  0.001  0.018  0.050
   15  0.001  0.001  0.015  0.018
   16  0.002  0.000  0.074  0.077
   17  0.001  0.001  0.017  0.019
   18  0.005  0.000  0.036  0.040
   19  0.000  0.001  0.022  0.023
   20  0.018  0.001  0.028  0.047
   21  0.005  0.001  0.030  0.037
   22  0.004  0.000  0.038  0.043
   23  0.004  0.001  0.031  0.036
   24  0.014  0.001  0.005  0.020
   25  0.000  0.000  0.021  0.021
   26  0.000  0.001  0.022  0.023
   27  0.003  0.000  0.041  0.045
   28  0.000  0.000  0.000  0.000
   29  0.002  0.000  0.004  0.006
   30  0.001  0.000  0.003  0.004
   31  0.002  0.000  0.004  0.006
   32  0.000  0.000  0.002  0.002
   33  0.001  0.000  0.003  0.004
   34  0.000  0.000  0.002  0.002
   35  0.000  0.000  0.006  0.006
   36  0.000  0.001  0.001  0.002
   37  0.000  0.000  0.000  0.000
   38  0.000  0.000  0.000  0.000
tot    0.130  0.018  0.653  0.800
 
band    14 # energy   -5.72990947 # occ.  2.00000000
 
ion      s      p      d    tot
    1  0.000  0.000  0.008  0.009
    2  0.002  0.000  0.010  0.012
    3  0.002  0.000  0.010  0.012
    4  0.002  0.000  0.010  0.012
    5  0.012  0.001  0.001  0.014
    6  0.002  0.000  0.010  0.012
    7  0.002  0.000  0.010  0.012
    8  0.002  0.000  0.010  0.012
    9  0.000  0.000  0.008  0.009
   10  0.010  0.001  0.005  0.016
   11  0.002  0.000  0.034  0.036
   12  0.010  0.001  0.005  0.016
   13  0.002  0.000  0.034  0.036
   14  0.002  0.000  0.034  0.036
   15  0.000  0.000  0.016  0.017
   16  0.010  0.001  0.005  0.016
   17  0.000  0.000  0.016  0.017
   18  0.000  0.000  0.016  0.017
   19  0.018  0.001  0.007  0.026
   20  0.000  0.001  0.040  0.041
   21  0.000  0.001  0.040  0.041
   22  0.004  0.000  0.060  0.064
   23  0.000  0.001  0.040  0.041
   24  0.004  0.000  0.060  0.064
   25  0.018  0.001  0.007  0.026
   26  0.018  0.001  0.007  0.026
   27  0.004  0.000  0.060  0.064
   28  0.001  0.001  0.009  0.011
   29  0.001  0.000  0.007  0.009
   30  0.001  0.000  0.007  0.009
   31  0.001  0.000  0.007  0.009
   32  0.001  0.000  0.007  0.009
   33  0.001  0.000  0.007  0.009
   34  0.001  0.000  0.007  0.009
   35  0.007  0.001  0.001  0.008
   36  0.006  0.002  0.000  0.007
   37  0.001  0.005  0.000  0.007
   38  0.000  0.006  0.000  0.006
tot    0.149  0.028  0.613  0.791
 
band    15 # energy   -5.71745139 # occ.  2.00000000
 
ion      s      p      d    tot
    1  0.000  0.000  0.021  0.022
    2  0.001  0.000  0.008  0.009
    3  0.001  0.000  0.008  0.009
    4  0.001  0.000  0.008  0.009
    5  0.001  0.000  0.000  0.001
    6  0.001  0.000  0.008  0.009
    7  0.001  0.000  0.008  0.009
    8  0.001  0.000  0.008  0.009
    9  0.008  0.001  0.001  0.010
   10  0.003  0.000  0.085  0.088
   11  0.003  0.000  0.035  0.039
   12  0.003  0.000  0.085  0.088
   13  0.003  0.000  0.035  0.039
   14  0.003  0.000  0.035  0.039
   15  0.009  0.000  0.012  0.022
   16  0.003  0.000  0.085  0.088
   17  0.009  0.000  0.012  0.022
   18  0.009  0.000  0.012  0.022
   19  0.001  0.000  0.020  0.021
   20  0.002  0.000  0.026  0.028
   21  0.002  0.000  0.026  0.028
   22  0.001  0.000  0.019  0.020
   23  0.002  0.000  0.026  0.028
   24  0.001  0.000  0.019  0.020
   25  0.001  0.000  0.020  0.021
   26  0.001  0.000  0.020  0.021
   27  0.001  0.000  0.019  0.020
   28  0.009  0.000  0.003  0.013
   29  0.001  0.000  0.011  0.012
   30  0.001  0.000  0.011  0.012
   31  0.001  0.000  0.011  0.012
   32  0.001  0.000  0.011  0.012
   33  0.001  0.000  0.011  0.012
   34  0.001  0.000  0.011  0.012
   35  0.000  0.000  0.007  0.007
   36  0.000  0.001  0.000  0.001
   37  0.000  0.000  0.000  0.001
   38  0.000  0.000  0.000  0.000
tot    0.082  0.010  0.741  0.832
 
band    16 # energy   -5.69952974 # occ.  2.00000000
 
ion      s      p      d    tot
    1  0.000  0.000  0.013  0.013
    2  0.002  0.000  0.005  0.008
    3  0.000  0.000  0.011  0.011
    4  0.002  0.000  0.006  0.008
    5  0.000  0.000  0.008  0.008
    6  0.003  0.001  0.007  0.011
    7  0.000  0.000  0.010  0.011
    8  0.003  0.001  0.007  0.011
    9  0.000  0.001  0.008  0.008
   10  0.000  0.001  0.051  0.051
   11  0.000  0.000  0.036  0.037
   12  0.012  0.000  0.034  0.046
   13  0.000  0.000  0.038  0.038
   14  0.000  0.000  0.025  0.025
   15  0.012  0.000  0.036  0.048
   16  0.010  0.000  0.036  0.047
   17  0.013  0.000  0.025  0.039
   18  0.000  0.000  0.111  0.111
   19  0.000  0.000  0.026  0.027
   20  0.000  0.000  0.038  0.038
   21  0.003  0.000  0.017  0.020
   22  0.003  0.000  0.021  0.024
   23  0.003  0.000  0.019  0.023
   24  0.000  0.000  0.023  0.023
   25  0.000  0.000  0.028  0.028
   26  0.000  0.000  0.026  0.026
   27  0.003  0.000  0.022  0.024
   28  0.000  0.000  0.014  0.014
   29  0.001  0.000  0.005  0.006
   30  0.003  0.000  0.004  0.008
   31  0.001  0.000  0.005  0.007
   32  0.001  0.000  0.005  0.007
   33  0.003  0.000  0.004  0.008
   34  0.001  0.000  0.006  0.006
   35  0.000  0.000  0.007  0.007
   36  0.000  0.000  0.001  0.001
   37  0.000  0.000  0.000  0.000
   38  0.000  0.000  0.000  0.000
tot    0.080  0.010  0.741  0.831
 
band    17 # energy   -5.69952534 # occ.  2.00000000
 
ion      s      p      d    tot
    1  0.000  0.000  0.013  0.013
    2  0.001  0.001  0.010  0.012
    3  0.003  0.001  0.005  0.009
    4  0.001  0.001  0.010  0.012
    5  0.000  0.000  0.008  0.008
    6  0.001  0.000  0.008  0.009
    7  0.004  0.001  0.005  0.009
    8  0.000  0.000  0.009  0.009
    9  0.000  0.001  0.008  0.008
   10  0.015  0.000  0.030  0.045
   11  0.000  0.000  0.030  0.030
   12  0.003  0.000  0.047  0.050
   13  0.000  0.000  0.028  0.028
   14  0.000  0.000  0.041  0.041
   15  0.005  0.000  0.079  0.084
   16  0.005  0.000  0.045  0.049
   17  0.003  0.000  0.090  0.094
   18  0.016  0.000  0.004  0.021
   19  0.000  0.000  0.027  0.028
   20  0.004  0.000  0.011  0.016
   21  0.001  0.000  0.032  0.033
   22  0.001  0.000  0.023  0.024
   23  0.001  0.000  0.030  0.031
   24  0.004  0.000  0.021  0.025
   25  0.000  0.000  0.025  0.026
   26  0.000  0.000  0.028  0.028
   27  0.001  0.000  0.023  0.024
   28  0.000  0.000  0.014  0.014
   29  0.002  0.000  0.005  0.008
   30  0.000  0.000  0.006  0.006
   31  0.002  0.000  0.005  0.007
   32  0.002  0.000  0.005  0.007
   33  0.000  0.000  0.006  0.006
   34  0.003  0.000  0.005  0.008
   35  0.000  0.000  0.007  0.007
   36  0.000  0.000  0.001  0.001
   37  0.000  0.000  0.000  0.000
   38  0.000  0.000  0.000  0.000
tot    0.080  0.010  0.741  0.831
 
band    18 # energy   -5.69375896 # occ.  2.00000000
 
ion      s      p      d    tot
    1  0.001  0.000  0.002  0.003
    2  0.001  0.000  0.011  0.012
    3  0.001  0.000  0.011  0.012
    4  0.001  0.000  0.011  0.012
    5  0.003  0.000  0.000  0.003
    6  0.001  0.000  0.011  0.012
    7  0.001  0.000  0.011  0.012
    8  0.001  0.000  0.011  0.012
    9  0.005  0.000  0.017  0.021
   10  0.003  0.000  0.021  0.024
   11  0.001  0.000  0.009  0.010
   12  0.003  0.000  0.021  0.024
   13  0.001  0.000  0.009  0.010
   14  0.001  0.000  0.009  0.010
   15  0.001  0.000  0.055  0.056
   16  0.003  0.000  0.021  0.024
   17  0.001  0.000  0.055  0.056
   18  0.001  0.000  0.055  0.056
   19  0.001  0.000  0.039  0.040
   20  0.005  0.000  0.019  0.024
   21  0.005  0.000  0.019  0.024
   22  0.000  0.000  0.048  0.049
   23  0.005  0.000  0.019  0.024
   24  0.000  0.000  0.048  0.048
   25  0.001  0.000  0.038  0.040
   26  0.001  0.000  0.039  0.040
   27  0.000  0.000  0.048  0.049
   28  0.003  0.000  0.001  0.004
   29  0.002  0.000  0.013  0.016
   30  0.002  0.000  0.013  0.016
   31  0.002  0.000  0.013  0.016
   32  0.002  0.000  0.013  0.016
   33  0.002  0.000  0.013  0.016
   34  0.002  0.000  0.013  0.016
   35  0.010  0.000  0.017  0.027
   36  0.000  0.001  0.001  0.003
   37  0.000  0.000  0.000  0.000
   38  0.000  0.000  0.000  0.000
tot    0.074  0.008  0.752  0.834
 
band    19 # energy   -5.68671521 # occ.  2.00000000
 
ion      s      p      d    tot
    1  0.000  0.000  0.004  0.005
    2  0.003  0.000  0.006  0.009
    3  0.000  0.000  0.008  0.009
    4  0.003  0.000  0.006  0.009
    5  0.000  0.000  0.009  0.009
    6  0.002  0.000  0.006  0.008
    7  0.000  0.000  0.008  0.009
    8  0.001  0.000  0.006  0.008
    9  0.000  0.000  0.018  0.018
   10  0.002  0.000  0.026  0.028
   11  0.001  0.000  0.048  0.049
   12  0.001  0.000  0.022  0.022
   13  0.001  0.000  0.045  0.046
   14  0.005  0.000  0.009  0.014
   15  0.000  0.000  0.030  0.030
   16  0.000  0.000  0.021  0.022
   17  0.000  0.000  0.030  0.031
   18  0.001  0.000  0.037  0.038
   19  0.001  0.000  0.070  0.071
   20  0.001  0.000  0.054  0.055
   21  0.000  0.000  0.022  0.023
   22  0.004  0.000  0.062  0.066
   23  0.000  0.000  0.019  0.020
   24  0.013  0.000  0.021  0.034
   25  0.007  0.000  0.010  0.016
   26  0.002  0.000  0.065  0.067
   27  0.003  0.000  0.066  0.069
   28  0.000  0.000  0.004  0.004
   29  0.000  0.000  0.008  0.008
   30  0.002  0.000  0.003  0.005
   31  0.000  0.000  0.008  0.009
   32  0.001  0.001  0.008  0.009
   33  0.002  0.000  0.003  0.005
   34  0.001  0.001  0.007  0.009
   35  0.000  0.000  0.011  0.011
   36  0.000  0.000  0.001  0.001
   37  0.000  0.000  0.000  0.000
   38  0.000  0.000  0.000  0.000
tot    0.055  0.007  0.783  0.845
 
band    20 # energy   -5.68670068 # occ.  2.00000000
 
ion      s      p      d    tot
    1  0.000  0.000  0.004  0.005
    2  0.000  0.000  0.007  0.008
    3  0.003  0.000  0.005  0.008
    4  0.000  0.000  0.007  0.008
    5  0.000  0.000  0.009  0.009
    6  0.001  0.000  0.008  0.009
    7  0.003  0.000  0.005  0.008
    8  0.002  0.000  0.008  0.009
    9  0.000  0.000  0.018  0.018
   10  0.000  0.000  0.020  0.020
   11  0.004  0.000  0.020  0.024
   12  0.001  0.000  0.025  0.026
   13  0.003  0.000  0.023  0.026
   14  0.000  0.000  0.059  0.059
   15  0.000  0.000  0.035  0.036
   16  0.002  0.000  0.025  0.027
   17  0.000  0.000  0.035  0.035
   18  0.000  0.000  0.028  0.028
   19  0.005  0.000  0.026  0.032
   20  0.000  0.000  0.010  0.010
   21  0.001  0.000  0.042  0.043
   22  0.009  0.000  0.037  0.047
   23  0.001  0.000  0.045  0.045
   24  0.000  0.000  0.078  0.079
   25  0.000  0.000  0.087  0.087
   26  0.005  0.000  0.031  0.036
   27  0.010  0.000  0.034  0.044
   28  0.000  0.000  0.004  0.004
   29  0.002  0.001  0.004  0.006
   30  0.000  0.000  0.009  0.010
   31  0.002  0.001  0.004  0.006
   32  0.001  0.000  0.005  0.006
   33  0.000  0.000  0.010  0.010
   34  0.001  0.000  0.005  0.006
   35  0.000  0.000  0.011  0.011
   36  0.000  0.000  0.001  0.001
   37  0.000  0.000  0.000  0.000
   38  0.000  0.000  0.000  0.000
tot    0.055  0.007  0.783  0.845
 
band    21 # energy   -5.57373786 # occ.  2.00000000
 
ion      s      p      d    tot
    1  0.001  0.000  0.000  0.001
    2  0.000  0.000  0.004  0.004
    3  0.000  0.000  0.004  0.004
    4  0.000  0.000  0.004  0.004
    5  0.000  0.001  0.023  0.024
    6  0.000  0.000  0.004  0.004
    7  0.000  0.000  0.004  0.004
    8  0.000  0.000  0.004  0.004
    9  0.000  0.000  0.001  0.001
   10  0.000  0.000  0.007  0.007
   11  0.000  0.000  0.073  0.074
   12  0.000  0.000  0.007  0.007
   13  0.000  0.000  0.073  0.074
   14  0.000  0.000  0.073  0.074
   15  0.003  0.000  0.021  0.024
   16  0.000  0.000  0.007  0.007