PROCAR new format
# of k-points:   10         # of bands:  252         # of ions:   38

 k-point     1 :    0.00000000 0.00000000 0.00000000     weight = 0.01562500

band     1 # energy  -18.55678573 # occ.  2.00000000
 
ion      s      p      d    tot
    1  0.000  0.000  0.000  0.000
    2  0.000  0.000  0.000  0.000
    3  0.000  0.000  0.000  0.000
    4  0.000  0.000  0.000  0.000
    5  0.000  0.000  0.000  0.000
    6  0.000  0.000  0.000  0.000
    7  0.000  0.000  0.000  0.000
    8  0.000  0.000  0.000  0.000
    9  0.000  0.000  0.000  0.000
   10  0.000  0.000  0.000  0.000
   11  0.000  0.000  0.000  0.000
   12  0.000  0.000  0.000  0.000
   13  0.000  0.000  0.000  0.000
   14  0.000  0.000  0.000  0.000
   15  0.000  0.000  0.000  0.000
   16  0.000  0.000  0.000  0.000
   17  0.000  0.000  0.000  0.000
   18  0.000  0.000  0.000  0.000
   19  0.000  0.000  0.000  0.000
   20  0.000  0.000  0.000  0.000
   21  0.000  0.000  0.000  0.000
   22  0.000  0.000  0.000  0.000
   23  0.000  0.000  0.000  0.000
   24  0.000  0.000  0.000  0.000
   25  0.000  0.000  0.000  0.000
   26  0.000  0.000  0.000  0.000
   27  0.000  0.000  0.000  0.000
   28  0.000  0.000  0.000  0.000
   29  0.000  0.000  0.000  0.000
   30  0.000  0.000  0.000  0.000
   31  0.000  0.000  0.000  0.000
   32  0.000  0.000  0.000  0.000
   33  0.000  0.000  0.000  0.000
   34  0.000  0.000  0.000  0.000
   35  0.000  0.000  0.000  0.000
   36  0.005  0.009  0.012  0.026
   37  0.734  0.019  0.000  0.753
   38  0.122  0.024  0.000  0.146
tot    0.861  0.052  0.012  0.925
 
band     2 # energy   -7.16916182 # occ.  2.00000000
 
ion      s      p      d    tot
    1  0.000  0.000  0.000  0.000
    2  0.000  0.000  0.000  0.000
    3  0.000  0.000  0.000  0.000
    4  0.000  0.000  0.000  0.000
    5  0.000  0.000  0.000  0.000
    6  0.000  0.000  0.000  0.000
    7  0.000  0.000  0.000  0.000
    8  0.000  0.000  0.000  0.000
    9  0.000  0.000  0.000  0.000
   10  0.001  0.000  0.000  0.001
   11  0.001  0.000  0.000  0.001
   12  0.001  0.000  0.000  0.001
   13  0.001  0.000  0.000  0.001
   14  0.001  0.000  0.000  0.001
   15  0.001  0.000  0.000  0.001
   16  0.001  0.000  0.000  0.001
   17  0.001  0.000  0.000  0.001
   18  0.001  0.000  0.000  0.001
   19  0.001  0.000  0.000  0.002
   20  0.004  0.000  0.002  0.007
   21  0.004  0.000  0.002  0.007
   22  0.001  0.000  0.000  0.001
   23  0.004  0.000  0.002  0.007
   24  0.001  0.000  0.000  0.001
   25  0.001  0.000  0.000  0.002
   26  0.001  0.000  0.000  0.002
   27  0.001  0.000  0.000  0.001
   28  0.001  0.000  0.000  0.001
   29  0.001  0.000  0.000  0.002
   30  0.001  0.000  0.000  0.002
   31  0.001  0.000  0.000  0.002
   32  0.001  0.000  0.000  0.002
   33  0.001  0.000  0.000  0.002
   34  0.001  0.000  0.000  0.002
   35  0.000  0.000  0.000  0.001
   36  0.049  0.024  0.117  0.189
   37  0.024  0.459  0.000  0.483
   38  0.156  0.015  0.000  0.172
tot    0.267  0.499  0.127  0.893
 
band     3 # energy   -6.76376864 # occ.  2.00000000
 
ion      s      p      d    tot
    1  0.006  0.001  0.000  0.007
    2  0.006  0.001  0.000  0.007
    3  0.006  0.001  0.000  0.007
    4  0.006  0.001  0.000  0.007
    5  0.006  0.001  0.000  0.007
    6  0.006  0.001  0.000  0.007
    7  0.006  0.001  0.000  0.007
    8  0.006  0.001  0.000  0.007
    9  0.007  0.001  0.000  0.007
   10  0.023  0.000  0.001  0.024
   11  0.024  0.000  0.000  0.024
   12  0.023  0.000  0.001  0.024
   13  0.024  0.000  0.000  0.024
   14  0.024  0.000  0.000  0.024
   15  0.024  0.000  0.000  0.025
   16  0.023  0.000  0.001  0.024
   17  0.024  0.000  0.000  0.025
   18  0.024  0.000  0.000  0.025
   19  0.021  0.000  0.000  0.021
   20  0.018  0.000  0.001  0.019
   21  0.018  0.000  0.001  0.019
   22  0.022  0.000  0.000  0.022
   23  0.018  0.000  0.001  0.019
   24  0.022  0.000  0.000  0.022
   25  0.021  0.000  0.000  0.021
   26  0.021  0.000  0.000  0.021
   27  0.022  0.000  0.000  0.022
   28  0.005  0.001  0.000  0.005
   29  0.004  0.001  0.000  0.005
   30  0.004  0.001  0.000  0.005
   31  0.004  0.001  0.000  0.005
   32  0.004  0.001  0.000  0.005
   33  0.004  0.001  0.000  0.005
   34  0.004  0.001  0.000  0.005
   35  0.005  0.001  0.000  0.006
   36  0.000  0.005  0.009  0.014
   37  0.002  0.031  0.000  0.033
   38  0.010  0.001  0.000  0.011
tot    0.501  0.049  0.018  0.569
 
band     4 # energy   -5.90552868 # occ.  2.00000000
 
ion      s      p      d    tot
    1  0.008  0.000  0.000  0.009
    2  0.007  0.000  0.000  0.008
    3  0.007  0.000  0.000  0.008
    4  0.007  0.000  0.000  0.008
    5  0.007  0.000  0.000  0.008
    6  0.007  0.000  0.000  0.008
    7  0.007  0.000  0.000  0.008
    8  0.007  0.000  0.000  0.008
    9  0.007  0.000  0.000  0.008
   10  0.011  0.001  0.014  0.026
   11  0.009  0.001  0.016  0.026
   12  0.011  0.001  0.014  0.026
   13  0.009  0.001  0.016  0.026
   14  0.009  0.001  0.016  0.026
   15  0.009  0.001  0.016  0.026
   16  0.011  0.001  0.014  0.026
   17  0.009  0.001  0.016  0.026
   18  0.009  0.001  0.016  0.026
   19  0.014  0.001  0.018  0.033
   20  0.011  0.001  0.018  0.030
   21  0.011  0.001  0.018  0.030
   22  0.015  0.001  0.018  0.034
   23  0.011  0.001  0.018  0.030
   24  0.015  0.001  0.018  0.034
   25  0.014  0.001  0.018  0.033
   26  0.014  0.001  0.018  0.033
   27  0.015  0.001  0.018  0.034
   28  0.008  0.001  0.000  0.008
   29  0.006  0.000  0.000  0.007
   30  0.006  0.000  0.000  0.007
   31  0.006  0.000  0.000  0.007
   32  0.006  0.000  0.000  0.007
   33  0.006  0.000  0.000  0.007
   34  0.006  0.000  0.000  0.007
   35  0.008  0.001  0.000  0.008
   36  0.002  0.001  0.002  0.005
   37  0.000  0.003  0.000  0.004
   38  0.001  0.000  0.000  0.001
tot    0.329  0.028  0.306  0.663
 
band     5 # energy   -5.64425943 # occ.  2.00000000
 
ion      s      p      d    tot
    1  0.018  0.000  0.026  0.044
    2  0.016  0.000  0.026  0.042
    3  0.016  0.000  0.026  0.042
    4  0.016  0.000  0.026  0.042
    5  0.015  0.000  0.026  0.041
    6  0.016  0.000  0.026  0.042
    7  0.016  0.000  0.026  0.042
    8  0.016  0.000  0.026  0.042
    9  0.016  0.000  0.027  0.043
   10  0.000  0.000  0.023  0.024
   11  0.001  0.000  0.021  0.023
   12  0.000  0.000  0.023  0.024
   13  0.001  0.000  0.021  0.023
   14  0.001  0.000  0.021  0.023
   15  0.001  0.001  0.022  0.024
   16  0.000  0.000  0.023  0.024
   17  0.001  0.001  0.022  0.024
   18  0.001  0.001  0.022  0.024
   19  0.000  0.000  0.008  0.008
   20  0.000  0.000  0.007  0.007
   21  0.000  0.000  0.007  0.007
   22  0.000  0.000  0.010  0.011
   23  0.000  0.000  0.007  0.007
   24  0.000  0.000  0.010  0.011
   25  0.000  0.000  0.008  0.008
   26  0.000  0.000  0.008  0.008
   27  0.000  0.000  0.010  0.011
   28  0.006  0.000  0.006  0.012
   29  0.005  0.000  0.006  0.011
   30  0.005  0.000  0.006  0.011
   31  0.005  0.000  0.006  0.011
   32  0.005  0.000  0.006  0.011
   33  0.005  0.000  0.006  0.011
   34  0.005  0.000  0.006  0.011
   35  0.006  0.000  0.007  0.013
   36  0.002  0.000  0.003  0.005
   37  0.000  0.000  0.000  0.000
   38  0.000  0.000  0.000  0.000
tot    0.195  0.006  0.561  0.763
 
band     6 # energy   -5.51824506 # occ.  2.00000000
 
ion      s      p      d    tot
    1  0.000  0.000  0.000  0.001
    2  0.000  0.000  0.006  0.006
    3  0.000  0.000  0.006  0.006
    4  0.000  0.000  0.006  0.006
    5  0.005  0.001  0.004  0.010
    6  0.000  0.000  0.006  0.006
    7  0.000  0.000  0.006  0.006
    8  0.000  0.000  0.006  0.006
    9  0.003  0.001  0.007  0.011
   10  0.004  0.001  0.018  0.023
   11  0.016  0.001  0.021  0.038
   12  0.004  0.001  0.017  0.022
   13  0.016  0.001  0.021  0.038
   14  0.015  0.001  0.021  0.037
   15  0.004  0.000  0.071  0.075
   16  0.004  0.001  0.017  0.022
   17  0.005  0.000  0.071  0.075
   18  0.004  0.000  0.073  0.077
   19  0.009  0.000  0.032  0.040
   20  0.008  0.001  0.007  0.016
   21  0.007  0.001  0.007  0.015
   22  0.000  0.000  0.042  0.043
   23  0.007  0.001  0.007  0.015
   24  0.000  0.000  0.043  0.043
   25  0.008  0.000  0.031  0.040
   26  0.009  0.000  0.032  0.040
   27  0.000  0.000  0.042  0.043
   28  0.005  0.001  0.003  0.009
   29  0.000  0.000  0.004  0.004
   30  0.000  0.000  0.004  0.004
   31  0.000  0.000  0.004  0.004
   32  0.000  0.000  0.004  0.004
   33  0.000  0.000  0.004  0.004
   34  0.000  0.000  0.004  0.004
   35  0.002  0.000  0.004  0.006
   36  0.000  0.000  0.000  0.001
   37  0.000  0.000  0.000  0.000
   38  0.000  0.000  0.000  0.000
tot    0.135  0.017  0.648  0.800
 
band     7 # energy   -5.51650165 # occ.  2.00000000
 
ion      s      p      d    tot
    1  0.000  0.000  0.000  0.000
    2  0.000  0.000  0.004  0.004
    3  0.002  0.001  0.005  0.008
    4  0.001  0.000  0.005  0.006
    5  0.000  0.000  0.008  0.008
    6  0.001  0.000  0.003  0.005
    7  0.002  0.001  0.006  0.009
    8  0.000  0.000  0.003  0.003
    9  0.000  0.000  0.008  0.009
   10  0.000  0.000  0.029  0.029
   11  0.008  0.000  0.053  0.062
   12  0.000  0.001  0.028  0.029
   13  0.002  0.000  0.083  0.085
   14  0.019  0.001  0.006  0.027
   15  0.010  0.001  0.031  0.043
   16  0.000  0.001  0.029  0.030
   17  0.002  0.001  0.032  0.036
   18  0.024  0.001  0.026  0.051
   19  0.003  0.000  0.036  0.040
   20  0.004  0.000  0.028  0.031
   21  0.000  0.001  0.013  0.015
   22  0.002  0.001  0.045  0.048
   23  0.002  0.001  0.019  0.022
   24  0.023  0.001  0.016  0.040
   25  0.008  0.001  0.010  0.019
   26  0.001  0.000  0.053  0.054
   27  0.011  0.001  0.034  0.045
   28  0.000  0.000  0.004  0.004
   29  0.002  0.000  0.004  0.006
   30  0.000  0.000  0.002  0.002
   31  0.001  0.000  0.003  0.005
   32  0.001  0.000  0.003  0.005
   33  0.000  0.000  0.002  0.002
   34  0.002  0.001  0.004  0.006
   35  0.000  0.000  0.010  0.010
   36  0.000  0.000  0.000  0.000
   37  0.000  0.000  0.000  0.000
   38  0.000  0.000  0.000  0.000
tot    0.133  0.017  0.648  0.799
 
band     8 # energy   -5.51649039 # occ.  2.00000000
 
ion      s      p      d    tot
    1  0.000  0.000  0.000  0.000
    2  0.002  0.001  0.005  0.008
    3  0.000  0.000  0.003  0.003
    4  0.001  0.000  0.004  0.005
    5  0.000  0.000  0.008  0.008
    6  0.001  0.000  0.005  0.007
    7  0.000  0.000  0.003  0.003
    8  0.002  0.001  0.006  0.008
    9  0.000  0.000  0.008  0.009
   10  0.000  0.001  0.028  0.029
   11  0.011  0.001  0.042  0.054
   12  0.000  0.000  0.029  0.030
   13  0.018  0.001  0.012  0.030
   14  0.001  0.000  0.089  0.090
   15  0.014  0.001  0.029  0.044
   16  0.000  0.001  0.029  0.029
   17  0.022  0.001  0.028  0.051
   18  0.001  0.001  0.032  0.034
   19  0.005  0.000  0.030  0.035
   20  0.000  0.001  0.012  0.014
   21  0.004  0.000  0.027  0.031
   22  0.022  0.001  0.019  0.041
   23  0.002  0.001  0.021  0.024
   24  0.001  0.001  0.046  0.048
   25  0.000  0.000  0.056  0.057
   26  0.007  0.001  0.013  0.021
   27  0.014  0.001  0.029  0.044
   28  0.000  0.000  0.004  0.004
   29  0.000  0.000  0.002  0.003
   30  0.002  0.000  0.004  0.007
   31  0.001  0.000  0.003  0.004
   32  0.001  0.000  0.003  0.004
   33  0.002  0.001  0.004  0.007
   34  0.000  0.000  0.002  0.003
   35  0.000  0.000  0.010  0.010
   36  0.000  0.000  0.000  0.000
   37  0.000  0.000  0.000  0.000
   38  0.000  0.000  0.000  0.000
tot    0.133  0.017  0.648  0.799
 
band     9 # energy   -5.51046629 # occ.  2.00000000
 
ion      s      p      d    tot
    1  0.000  0.000  0.010  0.010
    2  0.001  0.001  0.007  0.009
    3  0.000  0.000  0.003  0.004
    4  0.001  0.000  0.004  0.005
    5  0.000  0.000  0.001  0.001
    6  0.000  0.000  0.004  0.004
    7  0.000  0.000  0.003  0.004
    8  0.001  0.001  0.007  0.008
    9  0.000  0.000  0.004  0.004
   10  0.026  0.001  0.025  0.051
   11  0.004  0.001  0.031  0.036
   12  0.000  0.001  0.070  0.072
   13  0.000  0.002  0.010  0.012
   14  0.006  0.000  0.036  0.042
   15  0.005  0.000  0.047  0.052
   16  0.018  0.001  0.038  0.057
   17  0.000  0.000  0.104  0.105
   18  0.007  0.000  0.026  0.034
   19  0.005  0.001  0.023  0.030
   20  0.013  0.001  0.013  0.026
   21  0.000  0.000  0.036  0.037
   22  0.000  0.000  0.043  0.043
   23  0.009  0.001  0.019  0.029
   24  0.001  0.000  0.024  0.025
   25  0.007  0.001  0.025  0.033
   26  0.000  0.001  0.019  0.021
   27  0.000  0.000  0.029  0.030
   28  0.000  0.000  0.005  0.005
   29  0.000  0.000  0.002  0.002
   30  0.001  0.000  0.002  0.004
   31  0.000  0.000  0.003  0.004
   32  0.001  0.000  0.002  0.003
   33  0.001  0.000  0.003  0.004
   34  0.000  0.000  0.002  0.002
   35  0.000  0.000  0.002  0.002
   36  0.000  0.000  0.002  0.002
   37  0.000  0.000  0.000  0.000
   38  0.000  0.000  0.000  0.000
tot    0.109  0.015  0.686  0.811
 
band    10 # energy   -5.51045469 # occ.  2.00000000
 
ion      s      p      d    tot
    1  0.000  0.000  0.010  0.010
    2  0.000  0.000  0.003  0.003
    3  0.001  0.001  0.006  0.008
    4  0.001  0.000  0.005  0.006
    5  0.000  0.000  0.001  0.001
    6  0.001  0.001  0.005  0.007
    7  0.001  0.000  0.006  0.008
    8  0.000  0.000  0.003  0.003
    9  0.000  0.000  0.004  0.004
   10  0.004  0.001  0.063  0.068
   11  0.003  0.001  0.021  0.025
   12  0.029  0.001  0.019  0.049
   13  0.007  0.000  0.042  0.049
   14  0.001  0.001  0.014  0.017
   15  0.003  0.000  0.071  0.075
   16  0.011  0.001  0.051  0.063
   17  0.008  0.001  0.014  0.022
   18  0.001  0.000  0.092  0.093
   19  0.003  0.001  0.022  0.026
   20  0.002  0.000  0.033  0.035
   21  0.015  0.001  0.009  0.025
   22  0.001  0.000  0.021  0.022
   23  0.006  0.001  0.026  0.032
   24  0.000  0.000  0.039  0.040
   25  0.001  0.001  0.020  0.023
   26  0.008  0.001  0.026  0.035
   27  0.000  0.000  0.035  0.035
   28  0.000  0.000  0.005  0.005
   29  0.001  0.000  0.003  0.004
   30  0.000  0.000  0.002  0.003
   31  0.001  0.000  0.002  0.002
   32  0.000  0.000  0.003  0.003
   33  0.000  0.000  0.002  0.002
   34  0.001  0.000  0.003  0.004
   35  0.000  0.000  0.002  0.002
   36  0.000  0.000  0.002  0.002
   37  0.000  0.000  0.000  0.000
   38  0.000  0.000  0.000  0.000
tot    0.109  0.015  0.686  0.811
 
band    11 # energy   -5.50945919 # occ.  2.00000000
 
ion      s      p      d    tot
    1  0.001  0.001  0.017  0.018
    2  0.000  0.000  0.005  0.005
    3  0.000  0.000  0.005  0.005
    4  0.000  0.000  0.005  0.005
    5  0.001  0.000  0.000  0.001
    6  0.000  0.000  0.005  0.005
    7  0.000  0.000  0.005  0.005
    8  0.000  0.000  0.005  0.005
    9  0.002  0.001  0.001  0.004
   10  0.009  0.000  0.076  0.086
   11  0.001  0.001  0.045  0.046
   12  0.010  0.000  0.074  0.085
   13  0.001  0.001  0.045  0.046
   14  0.001  0.001  0.046  0.048
   15  0.010  0.001  0.012  0.023
   16  0.010  0.000  0.075  0.085
   17  0.010  0.001  0.012  0.024
   18  0.010  0.001  0.012  0.023
   19  0.004  0.001  0.015  0.020
   20  0.001  0.000  0.022  0.024
   21  0.002  0.000  0.022  0.024
   22  0.006  0.001  0.033  0.039
   23  0.002  0.000  0.022  0.024
   24  0.005  0.001  0.033  0.039
   25  0.005  0.001  0.015  0.020
   26  0.004  0.001  0.015  0.020
   27  0.006  0.001  0.033  0.039
   28  0.000  0.000  0.003  0.003
   29  0.000  0.000  0.005  0.005
   30  0.000  0.000  0.005  0.006
   31  0.000  0.000  0.005  0.005
   32  0.000  0.000  0.005  0.005
   33  0.000  0.000  0.005  0.006
   34  0.000  0.000  0.005  0.005
   35  0.002  0.000  0.001  0.003
   36  0.000  0.001  0.000  0.001
   37  0.000  0.001  0.000  0.001
   38  0.000  0.000  0.000  0.000
tot    0.107  0.016  0.689  0.812
 
band    12 # energy   -5.48585651 # occ.  2.00000000
 
ion      s      p      d    tot
    1  0.000  0.000  0.010  0.010
    2  0.001  0.000  0.010  0.011
    3  0.001  0.000  0.010  0.011
    4  0.001  0.000  0.010  0.011
    5  0.000  0.000  0.001  0.001
    6  0.001  0.000  0.010  0.011
    7  0.001  0.000  0.010  0.011
    8  0.001  0.000  0.010  0.011
    9  0.008  0.000  0.008  0.016
   10  0.004  0.000  0.014  0.018
   11  0.000  0.000  0.037  0.038
   12  0.004  0.000  0.014  0.018
   13  0.000  0.000  0.037  0.038
   14  0.000  0.000  0.038  0.038
   15  0.000  0.000  0.032  0.032
   16  0.004  0.000  0.014  0.018
   17  0.000  0.000  0.032  0.032
   18  0.000  0.000  0.032  0.032
   19  0.002  0.001  0.004  0.007
   20  0.002  0.000  0.033  0.035
   21  0.002  0.000  0.033  0.035
   22  0.003  0.000  0.068  0.071
   23  0.002  0.000  0.033  0.035
   24  0.003  0.000  0.068  0.071
   25  0.002  0.001  0.004  0.007
   26  0.002  0.001  0.004  0.007
   27  0.003  0.000  0.068  0.071
   28  0.009  0.001  0.001  0.011
   29  0.003  0.000  0.013  0.016
   30  0.003  0.000  0.013  0.015
   31  0.003  0.000  0.013  0.016
   32  0.003  0.000  0.013  0.015
   33  0.003  0.000  0.013  0.016
   34  0.003  0.000  0.013  0.015
   35  0.003  0.000  0.031  0.034
   36  0.000  0.000  0.000  0.000
   37  0.000  0.000  0.000  0.000
   38  0.000  0.000  0.000  0.000
tot    0.073  0.007  0.755  0.834
 
band    13 # energy   -5.47094795 # occ.  2.00000000
 
ion      s      p      d    tot
    1  0.000  0.000  0.016  0.017
    2  0.003  0.000  0.007  0.011
    3  0.002  0.001  0.007  0.010
    4  0.000  0.000  0.009  0.010
    5  0.000  0.000  0.004  0.004
    6  0.003  0.001  0.007  0.010
    7  0.000  0.000  0.009  0.010
    8  0.004  0.000  0.007  0.011
    9  0.000  0.000  0.017  0.017
   10  0.001  0.000  0.033  0.034
   11  0.005  0.000  0.021  0.026
   12  0.000  0.000  0.023  0.023
   13  0.000  0.000  0.044  0.044
   14  0.006  0.000  0.016  0.023
   15  0.002  0.000  0.027  0.029
   16  0.001  0.000  0.031  0.032
   17  0.000  0.000  0.037  0.037
   18  0.002  0.000  0.025  0.028
   19  0.011  0.000  0.035  0.046
   20  0.004  0.000  0.027  0.031
   21  0.000  0.000  0.053  0.053
   22  0.000  0.000  0.015  0.016
   23  0.003  0.000  0.031  0.034
   24  0.003  0.000  0.038  0.042
   25  0.014  0.000  0.022  0.036
   26  0.000  0.000  0.094  0.094
   27  0.003  0.000  0.035  0.037
   28  0.000  0.001  0.010  0.010
   29  0.001  0.000  0.007  0.008
   30  0.001  0.001  0.008  0.009
   31  0.002  0.001  0.004  0.007
   32  0.001  0.001  0.008  0.010
   33  0.003  0.001  0.004  0.007
   34  0.000  0.000  0.008  0.008
   35  0.000  0.000  0.010  0.010
   36  0.000  0.000  0.001  0.001
   37  0.000  0.000  0.000  0.000
   38  0.000  0.000  0.000  0.000
tot    0.074  0.009  0.752  0.835
 
band    14 # energy   -5.47093328 # occ.  2.00000000
 
ion      s      p      d    tot
    1  0.000  0.000  0.016  0.017
    2  0.001  0.000  0.008  0.010
    3  0.002  0.000  0.008  0.010
    4  0.004  0.001  0.006  0.011
    5  0.000  0.000  0.004  0.004
    6  0.001  0.000  0.009  0.010
    7  0.004  0.001  0.006  0.011
    8  0.000  0.000  0.009  0.009
    9  0.000  0.000  0.017  0.017
   10  0.000  0.000  0.025  0.025
   11  0.002  0.000  0.033  0.036
   12  0.001  0.000  0.035  0.037
   13  0.008  0.000  0.010  0.018
   14  0.001  0.000  0.038  0.039
   15  0.001  0.000  0.033  0.034
   16  0.000  0.000  0.027  0.027
   17  0.003  0.000  0.023  0.025
   18  0.000  0.000  0.035  0.035
   19  0.005  0.000  0.066  0.071
   20  0.001  0.000  0.047  0.048
   21  0.004  0.000  0.021  0.026
   22  0.004  0.000  0.044  0.048
   23  0.001  0.000  0.043  0.044
   24  0.001  0.000  0.020  0.021
   25  0.003  0.000  0.078  0.081
   26  0.016  0.000  0.007  0.024
   27  0.001  0.000  0.024  0.026
   28  0.000  0.001  0.010  0.010
   29  0.002  0.001  0.006  0.008
   30  0.001  0.000  0.005  0.007
   31  0.000  0.000  0.009  0.010
   32  0.002  0.000  0.005  0.007
   33  0.000  0.000  0.009  0.009
   34  0.002  0.001  0.005  0.008
   35  0.000  0.000  0.010  0.010
   36  0.000  0.000  0.001  0.001
   37  0.000  0.000  0.000  0.000
   38  0.000  0.000  0.000  0.000
tot    0.074  0.009  0.752  0.835
 
band    15 # energy   -5.46196109 # occ.  2.00000000
 
ion      s      p      d    tot
    1  0.000  0.000  0.010  0.011
    2  0.002  0.000  0.009  0.011
    3  0.001  0.000  0.007  0.008
    4  0.001  0.000  0.010  0.011
    5  0.000  0.000  0.020  0.020
    6  0.002  0.000  0.006  0.009
    7  0.000  0.000  0.009  0.009
    8  0.003  0.000  0.007  0.010
    9  0.000  0.000  0.005  0.005
   10  0.000  0.000  0.071  0.071
   11  0.001  0.000  0.040  0.042
   12  0.005  0.000  0.014  0.019
   13  0.002  0.000  0.040  0.043
   14  0.000  0.000  0.040  0.041
   15  0.000  0.000  0.026  0.026
   16  0.003  0.000  0.038  0.041
   17  0.001  0.000  0.033  0.034
   18  0.000  0.000  0.016  0.016
   19  0.000  0.000  0.027  0.027
   20  0.000  0.000  0.066  0.066
   21  0.009  0.000  0.027  0.037
   22  0.005  0.000  0.016  0.021
   23  0.005  0.000  0.043  0.049
   24  0.000  0.000  0.079  0.079
   25  0.000  0.000  0.009  0.009
   26  0.001  0.000  0.040  0.041
   27  0.003  0.000  0.042  0.045
   28  0.000  0.000  0.005  0.005
   29  0.000  0.000  0.004  0.005
   30  0.001  0.000  0.005  0.007
   31  0.001  0.000  0.003  0.004
   32  0.000  0.000  0.007  0.007
   33  0.002  0.000  0.003  0.005
   34  0.000  0.000  0.006  0.007
   35  0.000  0.000  0.004  0.004
   36  0.000  0.000  0.003  0.003
   37  0.000  0.000  0.000  0.000
   38  0.000  0.000  0.000  0.000
tot    0.050  0.007  0.791  0.848
 
band    16 # energy   -5.46193858 # occ.  2.00000000
 
ion      s      p      d    tot
    1  0.000  0.000  0.010  0.011
    2  0.001  0.000  0.007  0.008
    3  0.002  0.000  0.009  0.011
    4  0.002  0.000  0.006  0.009
    5  0.000  0.000  0.020  0.020
    6  0.000  0.000  0.010  0.010
    7  0.003  0.000  0.007  0.010
    8  0.000  0.000  0.009  0.009
    9  0.000  0.000  0.005  0.005
   10  0.005  0.000  0.011  0.016
   11  0.001  0.000  0.040  0.041
   12  0.000  0.000  0.068  0.068
   13  0.000  0.000  0.040  0.041
   14  0.002  0.000  0.040  0.043
   15  0.000  0.000  0.024  0.025
   16  0.002  0.000  0.044  0.046
   17  0.000  0.000  0.017  0.017
   18  0.001  0.000  0.034  0.035
   19  0.000  0.000  0.024  0.024
   20  0.010  0.000  0.025  0.035
   21  0.001  0.000  0.064  0.065
   22  0.000  0.000  0.075  0.076
   23  0.004  0.000  0.048  0.052
   24  0.005  0.000  0.012  0.018
   25  0.001  0.000  0.041  0.042
   26  0.000  0.000  0.011  0.011
   27  0.003  0.000  0.049  0.051
   28  0.000  0.000  0.005  0.005
   29  0.001  0.000  0.005  0.007
   30  0.000  0.000  0.005  0.005
   31  0.001  0.000  0.006  0.007
   32  0.001  0.000  0.003  0.004
   33  0.000  0.000  0.006  0.006
   34  0.002  0.000  0.003  0.005
   35  0.000  0.000  0.004  0.004
   36  0.000  0.000  0.003  0.003
   37  0.000  0.000  0.000  0.000
   38  0.000  0.000  0.000  0.000
tot    0.050  0.007  0.791  0.848
 
band    17 # energy   -5.45432382 # occ.  2.00000000
 
ion      s      p      d    tot
    1  0.005  0.000  0.002  0.007
    2  0.000  0.000  0.012  0.012
    3  0.000  0.000  0.012  0.012
    4  0.000  0.000  0.012  0.012
    5  0.005  0.001  0.001  0.006
    6  0.000  0.000  0.012  0.012
    7  0.000  0.000  0.012  0.012
    8  0.000  0.000  0.012  0.012
    9  0.000  0.000  0.006  0.006
   10  0.001  0.000  0.027  0.029
   11  0.001  0.000  0.021  0.022
   12  0.001  0.000  0.027  0.029
   13  0.001  0.000  0.021  0.022
   14  0.001  0.000  0.021  0.022
   15  0.000  0.000  0.026  0.026
   16  0.001  0.000  0.027  0.029
   17  0.000  0.000  0.026  0.026
   18  0.000  0.000  0.026  0.026
   19  0.000  0.000  0.076  0.076
   20  0.009  0.000  0.046  0.055
   21  0.009  0.000  0.046  0.055
   22  0.008  0.001  0.004  0.012
   23  0.009  0.000  0.046  0.055
   24  0.008  0.001  0.004  0.013
   25  0.000  0.000  0.076  0.077
   26  0.000  0.000  0.076  0.076
   27  0.008  0.001  0.004  0.012
   28  0.001  0.000  0.009  0.011
   29  0.000  0.000  0.009  0.010
   30  0.000  0.000  0.009  0.010
   31  0.000  0.000  0.009  0.010
   32  0.000  0.000  0.009  0.010
   33  0.000  0.000  0.009  0.010
   34  0.000  0.000  0.009  0.010
   35  0.005  0.001  0.000  0.006
   36  0.001  0.002  0.000  0.003
   37  0.000  0.002  0.000  0.003
   38  0.001  0.000  0.000  0.001
tot    0.075  0.013  0.747  0.836
 
band    18 # energy   -5.43490401 # occ.  2.00000000
 
ion      s      p      d    tot
    1  0.005  0.000  0.001  0.007
    2  0.002  0.000  0.011  0.013
    3  0.002  0.000  0.011  0.013
    4  0.002  0.000  0.011  0.013
    5  0.004  0.000  0.018  0.022
    6  0.002  0.000  0.011  0.013
    7  0.002  0.000  0.011  0.013
    8  0.002  0.000  0.011  0.013
    9  0.000  0.000  0.007  0.008
   10  0.000  0.000  0.010  0.010
   11  0.002  0.000  0.031  0.033
   12  0.000  0.000  0.010  0.010
   13  0.002  0.000  0.031  0.033
   14  0.002  0.000  0.031  0.033
   15  0.005  0.000  0.008  0.014
   16  0.000  0.000  0.010  0.010
   17  0.005  0.000  0.008  0.014
   18  0.005  0.000  0.008  0.014
   19  0.002  0.000  0.021  0.023
   20  0.000  0.000  0.021  0.021
   21  0.000  0.000  0.021  0.021
   22  0.000  0.001  0.015  0.016
   23  0.000  0.000  0.021  0.021
   24  0.000  0.001  0.015  0.016
   25  0.002  0.000  0.021  0.023
   26  0.002  0.000  0.021  0.023
   27  0.000  0.001  0.015  0.016
   28  0.010  0.000  0.040  0.049
   29  0.012  0.000  0.024  0.036
   30  0.012  0.000  0.024  0.036
   31  0.012  0.000  0.024  0.036
   32  0.012  0.000  0.024  0.036
   33  0.012  0.000  0.024  0.036
   34  0.012  0.000  0.024  0.036
   35  0.016  0.000  0.019  0.035
   36  0.009  0.000  0.011  0.021
   37  0.000  0.001  0.000  0.001
   38  0.000  0.000  0.000  0.000
tot    0.159  0.009  0.621  0.789
 
band    19 # energy   -5.30789608 # occ.  2.00000000
 
ion      s      p      d    tot
    1  0.000  0.001  0.017  0.018
    2  0.000  0.000  0.011  0.011
    3  0.002  0.001  0.006  0.008
    4  0.000  0.000  0.007  0.008
    5  0.000  0.000  0.001  0.001
    6  0.002  0.001  0.008  0.010
    7  0.001  0.000  0.005  0.007
    8  0.001  0.001  0.011  0.012
    9  0.000  0.001  0.013  0.013
   10  0.002  0.000  0.047  0.050
   11  0.000  0.001  0.019  0.020
   12  0.000  0.000  0.036  0.036
   13  0.000  0.000  0.009  0.009
   14  0.000  0.001  0.026  0.028
   15  0.001  0.000  0.058  0.059
   16  0.001  0.000  0.042  0.044
   17  0.000  0.000  0.088  0.088
   18  0.001  0.000  0.037  0.038
   19  0.000  0.000  0.037  0.038
   20  0.001  0.001  0.024  0.026
   21  0.000  0.000  0.001  0.002
   22  0.000  0.000  0.062  0.063
   23  0.001  0.001  0.014  0.016
   24  0.003  0.000  0.050  0.053
   25  0.000  0.000  0.024  0.025
   26  0.000  0.000  0.056  0.056
   27  0.002  0.000  0.055  0.057
   28  0.000  0.000  0.003  0.004
   29  0.000  0.000  0.008  0.009
   30  0.001  0.001  0.004  0.006
   31  0.001  0.001  0.007  0.008
   32  0.001  0.000  0.005  0.006
   33  0.001  0.001  0.005  0.007
   34  0.000  0.000  0.007  0.008
   35  0.000  0.001  0.020  0.021
   36  0.000  0.000  0.001  0.002
   37  0.000  0.000  0.000  0.000
   38  0.000  0.000  0.000  0.000
tot    0.022  0.015  0.828  0.865
 
band    20 # energy   -5.30787111 # occ.  2.00000000
 
ion      s      p      d    tot
    1  0.000  0.001  0.017  0.018
    2  0.002  0.001  0.005  0.008
    3  0.000  0.000  0.010  0.011
    4  0.001  0.001  0.009  0.011
    5  0.000  0.000  0.001  0.001
    6  0.000  0.000  0.008  0.008
    7  0.001  0.001  0.011  0.012
    8  0.001  0.000  0.005  0.007
    9  0.000  0.001  0.013  0.013
   10  0.000  0.000  0.037  0.037
   11  0.000  0.001  0.017  0.018
   12  0.002  0.000  0.047  0.050
   13  0.000  0.001  0.027  0.029
   14  0.000  0.000  0.010  0.010
   15  0.001  0.000  0.064  0.065
   16  0.001  0.000  0.041  0.043
   17  0.001  0.000  0.034  0.036
   18  0.000  0.000  0.085  0.085
   19  0.000  0.000  0.041  0.041
   20  0.000  0.000  0.003  0.003
   21  0.001  0.001  0.024  0.027
   22  0.003  0.000  0.049  0.053
   23  0.001  0.001  0.012  0.013
   24  0.000  0.000  0.061  0.062
   25  0.000  0.000  0.054  0.054
   26  0.000  0.000  0.023  0.023
   27  0.001  0.000  0.057  0.058
   28  0.000  0.000  0.003  0.004
   29  0.001  0.001  0.004  0.006
   30  0.000  0.000  0.008  0.009
   31  0.000  0.000  0.006  0.006
   32  0.001  0.000  0.007  0.008
   33  0.000  0.000  0.007  0.007
   34  0.001  0.001  0.005  0.007
   35  0.000  0.001  0.020  0.021
   36  0.000  0.000  0.001  0.002
   37  0.000  0.000  0.000  0.000
   38  0.000  0.000  0.000  0.000
tot    0.022  0.015  0.828  0.865
 
band    21 # energy   -5.30625436 # occ.  2.00000000
 
ion      s      p      d    tot
    1  0.002  0.001  0.011  0.014
    2  0.000  0.000  0.009  0.009
    3  0.000  0.000  0.009  0.009
    4  0.000  0.000  0.009  0.009
    5  0.003  0.001  0.001  0.005
    6  0.000  0.000  0.009  0.009
    7  0.000  0.000  0.009  0.009
    8  0.000  0.000  0.009  0.009
    9  0.000  0.000  0.007  0.007
   10  0.001  0.001  0.062  0.063
   11  0.000  0.000  0.020  0.020
   12  0.000  0.001  0.062  0.063
   13  0.000  0.000  0.020  0.020
   14  0.000  0.000  0.019  0.020
   15  0.001  0.000  0.044  0.045
   16  0.001  0.001  0.062  0.063