 vasp.6.2.0 18Jan21 (build Jun 12 2021 23:27:24) complex                        
  
 executed on             LinuxIFC date 2022.05.27  05:05:56
 running on   28 total cores
 distrk:  each k-point on   28 cores,    1 groups
 distr:  one band on NCORE=   1 cores,   28 groups


--------------------------------------------------------------------------------------------------------


 INCAR:
   ISMEAR = -5
   SIGMA = 0.1
   ISPIN = 1
   EDIFF = 1.d-5
   EDIFFG = -0.01
   NSW = 0
   NELM = 150
   ENCUT = 500
   ISIF = 2
   IBRION = 2
   LREAL = Auto
   ALGO = Fast
   ICHARG = 11
   LORBIT = 10
   LCHARG = .F.
   LWAVE = .F.

 POTCAR:    PAW_PBE Au 04Oct2007                  
 POTCAR:    PAW_PBE Ni 02Aug2007                  
 POTCAR:    PAW_PBE O 08Apr2002                   
 POTCAR:    PAW_PBE H 15Jun2001                   
 -----------------------------------------------------------------------------
|                                                                             |
|           W    W    AA    RRRRR   N    N  II  N    N   GGGG   !!!           |
|           W    W   A  A   R    R  NN   N  II  NN   N  G    G  !!!           |
|           W    W  A    A  R    R  N N  N  II  N N  N  G       !!!           |
|           W WW W  AAAAAA  RRRRR   N  N N  II  N  N N  G  GGG   !            |
|           WW  WW  A    A  R   R   N   NN  II  N   NN  G    G                |
|           W    W  A    A  R    R  N    N  II  N    N   GGGG   !!!           |
|                                                                             |
|     For optimal performance we recommend to set                             |
|       NCORE = 2 up to number-of-cores-per-socket                            |
|     NCORE specifies how many cores store one orbital (NPAR=cpu/NCORE).      |
|     This setting can greatly improve the performance of VASP for DFT.       |
|     The default, NCORE=1 might be grossly inefficient on modern             |
|     multi-core architectures or massively parallel machines. Do your        |
|     own testing! More info at https://www.vasp.at/wiki/index.php/NCORE      |
|     Unfortunately you need to use the default for GW and RPA                |
|     calculations (for HF NCORE is supported but not extensively tested      |
|     yet).                                                                   |
|                                                                             |
 -----------------------------------------------------------------------------

 POTCAR:    PAW_PBE Au 04Oct2007                  
   VRHFIN =Au: s1d10                                                                                
   LEXCH  = PE                                                                                      
   EATOM  =   926.0867 eV,   68.0654 Ry                                                             
                                                                                                    
   TITEL  = PAW_PBE Au 04Oct2007                                                                    
   LULTRA =        F    use ultrasoft PP ?                                                          
   IUNSCR =        1    unscreen: 0-lin 1-nonlin 2-no                                               
   RPACOR =    2.330    partial core radius                                                         
   POMASS =  196.966; ZVAL   =   11.000    mass and valenz                                          
   RCORE  =    2.500    outmost cutoff radius                                                       
   RWIGS  =    2.840; RWIGS  =    1.503    wigner-seitz radius (au A)                               
   ENMAX  =  229.943; ENMIN  =  172.457 eV                                                          
   ICORE  =        3    local potential                                                             
   LCOR   =        T    correct aug charges                                                         
   LPAW   =        T    paw PP                                                                      
   EAUG   =  356.670                                                                                
   DEXC   =    0.000                                                                                
   RMAX   =    2.562    core radius for proj-oper                                                   
   RAUG   =    1.300    factor for augmentation sphere                                              
   RDEP   =    2.598    radius for radial grids                                                     
   RDEPT  =    2.193    core radius for aug-charge                                                  
                                                                                                    
   Atomic configuration                                                                             
   16 entries                                                                                       
     n  l   j            E        occ.                                                              
     1  0  0.50    -80748.5001   2.0000                                                             
     2  0  0.50    -14244.7466   2.0000                                                             
     2  1  1.50    -12310.9591   6.0000                                                             
     3  0  0.50     -3362.1768   2.0000                                                             
     3  1  1.50     -2801.5463   6.0000                                                             
     3  2  2.50     -2203.8206  10.0000                                                             
     4  0  0.50      -729.8168   2.0000                                                             
     4  1  1.50      -546.0527   6.0000                                                             
     4  2  2.50      -325.7302  10.0000                                                             
     4  3  3.50       -81.1472  14.0000                                                             
     5  0  0.50      -108.3201   2.0000                                                             
     5  1  1.50       -59.7479   6.0000                                                             
     5  2  2.50        -6.8783  10.0000                                                             
     6  0  0.50        -5.7602   1.0000                                                             
     6  1  1.50        -6.8029   0.0000                                                             
     5  3  2.50        -1.3606   0.0000                                                             
   Description                                                                                      
     l       E           TYP  RCUT    TYP  RCUT                                                     
     2     -6.8782861     23  2.500                                                                 
     2     -8.2388687     23  2.500                                                                 
     0     -5.7601759     23  2.500                                                                 
     0     -0.8493231     23  2.500                                                                 
     1     -2.7211652     23  2.500                                                                 
     1     27.2116520     23  2.500                                                                 
     3     -1.3605826     23  2.500                                                                 
  local pseudopotential read in
  partial core-charges read in
  partial kinetic energy density read in
  atomic valenz-charges read in
  non local Contribution for L=           2  read in
    real space projection operators read in
  non local Contribution for L=           2  read in
    real space projection operators read in
  non local Contribution for L=           0  read in
    real space projection operators read in
  non local Contribution for L=           0  read in
    real space projection operators read in
  non local Contribution for L=           1  read in
    real space projection operators read in
  non local Contribution for L=           1  read in
    real space projection operators read in
    PAW grid and wavefunctions read in
 
   number of l-projection  operators is LMAX  =           6
   number of lm-projection operators is LMMAX =          18
 
 POTCAR:    PAW_PBE Ni 02Aug2007                  
   VRHFIN =Ni:                                                                                      
   LEXCH  = PE                                                                                      
   EATOM  =  1077.6739 eV,   79.2068 Ry                                                             
                                                                                                    
   TITEL  = PAW_PBE Ni 02Aug2007                                                                    
   LULTRA =        F    use ultrasoft PP ?                                                          
   IUNSCR =        1    unscreen: 0-lin 1-nonlin 2-no                                               
   RPACOR =    2.000    partial core radius                                                         
   POMASS =   58.690; ZVAL   =   10.000    mass and valenz                                          
   RCORE  =    2.300    outmost cutoff radius                                                       
   RWIGS  =    2.430; RWIGS  =    1.286    wigner-seitz radius (au A)                               
   ENMAX  =  269.532; ENMIN  =  202.149 eV                                                          
   RCLOC  =    1.201    cutoff for local pot                                                        
   LCOR   =        T    correct aug charges                                                         
   LPAW   =        T    paw PP                                                                      
   EAUG   =  544.565                                                                                
   DEXC   =    0.000                                                                                
   RMAX   =    2.357    core radius for proj-oper                                                   
   RAUG   =    1.300    factor for augmentation sphere                                              
   RDEP   =    2.390    radius for radial grids                                                     
   RDEPT  =    1.838    core radius for aug-charge                                                  
                                                                                                    
   Atomic configuration                                                                             
    9 entries                                                                                       
     n  l   j            E        occ.                                                              
     1  0  0.50     -8206.4253   2.0000                                                             
     2  0  0.50      -976.1748   2.0000                                                             
     2  1  1.50      -839.0571   6.0000                                                             
     3  0  0.50      -105.9991   2.0000                                                             
     3  1  1.50       -66.4603   6.0000                                                             
     3  2  2.50        -4.6458   9.0000                                                             
     4  0  0.50        -4.4926   1.0000                                                             
     4  1  1.50        -4.0817   0.0000                                                             
     4  3  2.50        -1.3606   0.0000                                                             
   Description                                                                                      
     l       E           TYP  RCUT    TYP  RCUT                                                     
     2     -4.6457903     23  2.300                                                                 
     2     -6.0063729     23  2.300                                                                 
     0     -4.4925590     23  2.300                                                                 
     0      5.0102601     23  2.300                                                                 
     1     -2.7211652     23  2.300                                                                 
     1     16.5183231     23  2.300                                                                 
  local pseudopotential read in
  partial core-charges read in
  partial kinetic energy density read in
  atomic valenz-charges read in
  non local Contribution for L=           2  read in
    real space projection operators read in
  non local Contribution for L=           2  read in
    real space projection operators read in
  non local Contribution for L=           0  read in
    real space projection operators read in
  non local Contribution for L=           0  read in
    real space projection operators read in
  non local Contribution for L=           1  read in
    real space projection operators read in
  non local Contribution for L=           1  read in
    real space projection operators read in
    PAW grid and wavefunctions read in
 
   number of l-projection  operators is LMAX  =           6
   number of lm-projection operators is LMMAX =          18
 
 POTCAR:    PAW_PBE O 08Apr2002                   
   VRHFIN =O: s2p4                                                                                  
   LEXCH  = PE                                                                                      
   EATOM  =   432.3788 eV,   31.7789 Ry                                                             
                                                                                                    
   TITEL  = PAW_PBE O 08Apr2002                                                                     
   LULTRA =        F    use ultrasoft PP ?                                                          
   IUNSCR =        1    unscreen: 0-lin 1-nonlin 2-no                                               
   RPACOR =    1.200    partial core radius                                                         
   POMASS =   16.000; ZVAL   =    6.000    mass and valenz                                          
   RCORE  =    1.520    outmost cutoff radius                                                       
   RWIGS  =    1.550; RWIGS  =    0.820    wigner-seitz radius (au A)                               
   ENMAX  =  400.000; ENMIN  =  300.000 eV                                                          
   ICORE  =        2    local potential                                                             
   LCOR   =        T    correct aug charges                                                         
   LPAW   =        T    paw PP                                                                      
   EAUG   =  605.392                                                                                
   DEXC   =    0.000                                                                                
   RMAX   =    1.553    core radius for proj-oper                                                   
   RAUG   =    1.300    factor for augmentation sphere                                              
   RDEP   =    1.550    radius for radial grids                                                     
   RDEPT  =    1.329    core radius for aug-charge                                                  
                                                                                                    
   Atomic configuration                                                                             
    4 entries                                                                                       
     n  l   j            E        occ.                                                              
     1  0  0.50      -514.6923   2.0000                                                             
     2  0  0.50       -23.9615   2.0000                                                             
     2  1  0.50        -9.0305   4.0000                                                             
     3  2  1.50        -9.5241   0.0000                                                             
   Description                                                                                      
     l       E           TYP  RCUT    TYP  RCUT                                                     
     0    -23.9615318     23  1.200                                                                 
     0     -9.5240782     23  1.200                                                                 
     1     -9.0304911     23  1.520                                                                 
     1      8.1634956     23  1.520                                                                 
     2     -9.5240782      7  1.500                                                                 
  local pseudopotential read in
  partial core-charges read in
  partial kinetic energy density read in
  kinetic energy density of atom read in
  atomic valenz-charges read in
  non local Contribution for L=           0  read in
    real space projection operators read in
  non local Contribution for L=           0  read in
    real space projection operators read in
  non local Contribution for L=           1  read in
    real space projection operators read in
  non local Contribution for L=           1  read in
    real space projection operators read in
    PAW grid and wavefunctions read in
 
   number of l-projection  operators is LMAX  =           4
   number of lm-projection operators is LMMAX =           8
 
 POTCAR:    PAW_PBE H 15Jun2001                   
   VRHFIN =H: ultrasoft test                                                                        
   LEXCH  = PE                                                                                      
   EATOM  =    12.4884 eV,    0.9179 Ry                                                             
                                                                                                    
   TITEL  = PAW_PBE H 15Jun2001                                                                     
   LULTRA =        F    use ultrasoft PP ?                                                          
   IUNSCR =        0    unscreen: 0-lin 1-nonlin 2-no                                               
   RPACOR =    0.000    partial core radius                                                         
   POMASS =    1.000; ZVAL   =    1.000    mass and valenz                                          
   RCORE  =    1.100    outmost cutoff radius                                                       
   RWIGS  =    0.700; RWIGS  =    0.370    wigner-seitz radius (au A)                               
   ENMAX  =  250.000; ENMIN  =  200.000 eV                                                          
   RCLOC  =    0.701    cutoff for local pot                                                        
   LCOR   =        T    correct aug charges                                                         
   LPAW   =        T    paw PP                                                                      
   EAUG   =  400.000                                                                                
   RMAX   =    1.123    core radius for proj-oper                                                   
   RAUG   =    1.200    factor for augmentation sphere                                              
   RDEP   =    1.112    radius for radial grids                                                     
   RDEPT  =    0.926    core radius for aug-charge                                                  
                                                                                                    
   Atomic configuration                                                                             
    2 entries                                                                                       
     n  l   j            E        occ.                                                              
     1  0  0.50        -6.4927   1.0000                                                             
     2  1  0.50        -3.4015   0.0000                                                             
   Description                                                                                      
     l       E           TYP  RCUT    TYP  RCUT                                                     
     0     -6.4927494     23  1.100                                                                 
     0      6.8029130     23  1.100                                                                 
     1     -4.0817478     23  1.100                                                                 
  local pseudopotential read in
  atomic valenz-charges read in
  non local Contribution for L=           0  read in
    real space projection operators read in
  non local Contribution for L=           0  read in
    real space projection operators read in
  non local Contribution for L=           1  read in
    real space projection operators read in
    PAW grid and wavefunctions read in
 
   number of l-projection  operators is LMAX  =           3
   number of lm-projection operators is LMMAX =           5
 
 Optimization of the real space projectors (new method)

 maximal supplied QI-value         = 15.12
 optimisation between [QCUT,QGAM] = [ 11.34, 22.83] = [ 36.00,145.93] Ry 
 Optimized for a Real-space Cutoff    1.39 Angstroem

   l    n(q)    QCUT    max X(q) W(low)/X(q) W(high)/X(q)  e(spline) 
   2      9    11.338    60.898    0.39E-03    0.42E-03    0.21E-06
   2      9    11.338    58.894    0.40E-03    0.42E-03    0.22E-06
   0      9    11.338   109.617    0.13E-03    0.20E-04    0.13E-06
   0      9    11.338    75.026    0.13E-03    0.20E-04    0.13E-06
   1      9    11.338    16.344    0.33E-04    0.24E-03    0.18E-06
   1      9    11.338    10.160    0.26E-04    0.19E-03    0.15E-06
 Optimization of the real space projectors (new method)

 maximal supplied QI-value         = 16.25
 optimisation between [QCUT,QGAM] = [ 11.38, 22.75] = [ 36.24,144.96] Ry 
 Optimized for a Real-space Cutoff    1.39 Angstroem

   l    n(q)    QCUT    max X(q) W(low)/X(q) W(high)/X(q)  e(spline) 
   2      8    11.376    60.317    0.19E-03    0.33E-04    0.13E-06
   2      8    11.376    55.921    0.20E-03    0.34E-04    0.14E-06
   0      9    11.376    51.690    0.82E-04    0.12E-03    0.20E-06
   0      9    11.376    30.015    0.74E-04    0.11E-03    0.18E-06
   1      9    11.376    18.849    0.39E-03    0.12E-03    0.13E-06
   1      9    11.376    14.624    0.33E-03    0.10E-03    0.11E-06
 Optimization of the real space projectors (new method)

 maximal supplied QI-value         = 24.76
 optimisation between [QCUT,QGAM] = [ 11.39, 22.77] = [ 36.31,145.25] Ry 
 Optimized for a Real-space Cutoff    1.00 Angstroem

   l    n(q)    QCUT    max X(q) W(low)/X(q) W(high)/X(q)  e(spline) 
   0      7    11.387    20.381    0.39E-03    0.13E-02    0.15E-06
   0      7    11.387    15.268    0.42E-03    0.14E-02    0.17E-06
   1      6    11.387     5.964    0.41E-03    0.11E-02    0.17E-06
   1      6    11.387     5.382    0.39E-03    0.87E-03    0.15E-06
 Optimization of the real space projectors (new method)

 maximal supplied QI-value         = 34.20
 optimisation between [QCUT,QGAM] = [ 11.29, 22.57] = [ 35.68,142.71] Ry 
 Optimized for a Real-space Cutoff    1.16 Angstroem

   l    n(q)    QCUT    max X(q) W(low)/X(q) W(high)/X(q)  e(spline) 
   0      8    11.287    19.460    0.40E-03    0.73E-03    0.16E-06
   0      8    11.287    12.209    0.38E-03    0.70E-03    0.15E-06
   1      7    11.287     4.655    0.22E-03    0.25E-04    0.22E-06
  PAW_PBE Au 04Oct2007                  :
 energy of atom  1       EATOM= -926.0867
 kinetic energy error for atom=    0.0042 (will be added to EATOM!!)
  PAW_PBE Ni 02Aug2007                  :
 energy of atom  2       EATOM=-1077.6739
 kinetic energy error for atom=    0.0030 (will be added to EATOM!!)
  PAW_PBE O 08Apr2002                   :
 energy of atom  3       EATOM= -432.3788
 kinetic energy error for atom=    0.0224 (will be added to EATOM!!)
  PAW_PBE H 15Jun2001                   :
 energy of atom  4       EATOM=  -12.4884
 kinetic energy error for atom=    0.0020 (will be added to EATOM!!)
 
 
 POSCAR: Au-Ni-OH
  positions in direct lattice
  velocities in cartesian coordinates
 exchange correlation table for  LEXCH =        8
   RHO(1)=    0.500       N(1)  =     2000
   RHO(2)=  100.500       N(2)  =     4000

 VTST: version 3.2, (02/03/18)

 CHAIN: initializing optimizer
 
 OPT: Using VASP Conjugate-Gradient optimizer
 CHAIN: Read ICHAIN            0
 
 POSCAR: Au-Ni-OH
  positions in direct lattice
  velocities in cartesian coordinates
 


--------------------------------------------------------------------------------------------------------


 ion  position               nearest neighbor table
   1  0.000  0.000  0.238-  16 2.94  12 2.94   6 2.94   8 2.94   7 2.94   3 2.94  10 2.94   4 2.94
                             2 2.94
   2  0.333  0.000  0.238-   9 2.94  11 2.94  17 2.94  10 2.94   8 2.94   4 2.94   5 2.94   1 2.94
                             3 2.94
   3  0.667  0.000  0.238-   7 2.94  18 2.94  12 2.94   1 2.94  11 2.94   5 2.94   6 2.94   9 2.94
                             2 2.94
   4  0.000  0.333  0.238-  10 2.94   6 2.94   5 2.94  13 2.94   2 2.94  15 2.94   9 2.94   1 2.94
                             7 2.94
   5  0.333  0.333  0.238-  13 2.94   7 2.94  11 2.94   4 2.94   2 2.94  14 2.94   3 2.94   8 2.94
                             6 2.94
   6  0.667  0.333  0.238-  15 2.94  14 2.94   1 2.94  12 2.94   4 2.94   9 2.94   8 2.94   3 2.94
                             5 2.94
   7  0.000  0.667  0.238-  18 2.94   3 2.94  16 2.94   5 2.94   1 2.94  13 2.94   8 2.94   4 2.94
                             9 2.94
   8  0.333  0.667  0.238-   9 2.94  17 2.94   1 2.94   2 2.94  14 2.94  16 2.94   6 2.94   7 2.94
                             5 2.94
   9  0.667  0.667  0.238-   2 2.94   8 2.94  17 2.94   6 2.94  15 2.94   4 2.94   3 2.94  18 2.94
                             7 2.94
  10  0.111  0.111  0.346-  20 2.93  26 2.93  19 2.93  11 2.94  17 2.94   2 2.94   4 2.94   1 2.94
                            12 2.94  16 2.94  13 2.94  15 2.94
  11  0.444  0.111  0.346-  20 2.92  21 2.92  27 2.93  13 2.94   2 2.94  10 2.94  17 2.94   5 2.94
                             3 2.94  18 2.94  14 2.94  12 2.94
  12  0.778  0.111  0.346-  21 2.93  25 2.93  19 2.93  16 2.94  18 2.94   1 2.94  14 2.94  15 2.94
                             3 2.94   6 2.94  10 2.94  11 2.94
  13  0.111  0.444  0.346-  23 2.92  20 2.92  22 2.93   5 2.94  18 2.94  11 2.94   7 2.94   4 2.94
                            16 2.94  10 2.94  14 2.94  15 2.94
  14  0.444  0.444  0.346-  21 2.92  23 2.92  24 2.93  15 2.94   6 2.94  12 2.94   8 2.94  17 2.94
                             5 2.94  16 2.94  13 2.94  11 2.94
  15  0.778  0.444  0.346-  24 2.92  22 2.92  19 2.93  14 2.94   6 2.94  17 2.94  12 2.94   9 2.94
                             4 2.94  10 2.94  13 2.94  18 2.94
  16  0.111  0.778  0.346-  23 2.93  25 2.93  26 2.93  18 2.94  12 2.94   7 2.94   1 2.94   8 2.94
                            13 2.94  10 2.94  14 2.94  17 2.94
  17  0.444  0.778  0.346-  27 2.92  24 2.92  26 2.93   9 2.94  15 2.94   2 2.94  10 2.94  11 2.94
                             8 2.94  14 2.94  16 2.94  18 2.94
  18  0.778  0.778  0.346-  22 2.92  27 2.92  25 2.93  16 2.94   7 2.94  13 2.94  12 2.94   3 2.94
                            11 2.94   9 2.94  15 2.94  17 2.94
  19  0.889  0.222  0.454-  10 2.93  12 2.93  15 2.93  26 2.93  25 2.93  24 2.94  22 2.94  21 2.95
                            20 2.95  28 2.95  32 2.96  31 2.96
  20  0.223  0.223  0.453-  36 2.70  29 2.91  31 2.91  11 2.92  13 2.92  23 2.92  21 2.92  10 2.93
                            27 2.95  22 2.95  26 2.95  19 2.95
  21  0.554  0.223  0.453-  36 2.70  30 2.91  32 2.91  14 2.92  11 2.92  20 2.92  23 2.92  12 2.93
                            27 2.95  24 2.95  25 2.95  19 2.95
  22  0.888  0.556  0.453-  18 2.92  15 2.92  24 2.92  27 2.92  13 2.93  25 2.94  19 2.94  33 2.94
                            31 2.94  23 2.95  20 2.95  35 2.96
  23  0.223  0.554  0.453-  36 2.70  33 2.91  34 2.91  13 2.92  14 2.92  20 2.92  21 2.92  16 2.93
                            22 2.95  24 2.95  25 2.95  26 2.95
  24  0.556  0.556  0.453-  15 2.92  17 2.92  27 2.92  22 2.92  14 2.93  26 2.94  19 2.94  32 2.94
                            34 2.94  21 2.95  23 2.95  35 2.96
  25  0.889  0.889  0.454-  16 2.93  12 2.93  18 2.93  19 2.93  26 2.93  22 2.94  27 2.94  23 2.95
                            21 2.95  28 2.95  33 2.96  30 2.96
  26  0.222  0.889  0.454-  10 2.93  16 2.93  17 2.93  19 2.93  25 2.93  27 2.94  24 2.94  20 2.95
                            23 2.95  28 2.95  29 2.96  34 2.96
  27  0.556  0.888  0.453-  17 2.92  18 2.92  24 2.92  22 2.92  11 2.93  26 2.94  25 2.94  29 2.94
                            30 2.94  20 2.95  21 2.95  35 2.96
  28  0.000  0.000  0.563-  25 2.95  19 2.95  26 2.95  34 2.97  32 2.97  33 2.97  30 2.97  31 2.97
                            29 2.97
  29  0.334  0.007  0.561-  30 2.87  31 2.88  36 2.89  20 2.91  27 2.94  26 2.96  35 2.97  28 2.97
                            34 3.06
  30  0.660  0.007  0.561-  29 2.87  32 2.88  36 2.89  21 2.91  27 2.94  25 2.96  35 2.97  28 2.97
                            33 3.06
  31  0.007  0.334  0.561-  33 2.87  29 2.88  36 2.89  20 2.91  22 2.94  19 2.96  35 2.97  28 2.97
                            32 3.06
  32  0.660  0.334  0.561-  34 2.87  30 2.88  36 2.89  21 2.91  24 2.94  19 2.96  35 2.97  28 2.97
                            31 3.06
  33  0.007  0.660  0.561-  31 2.87  34 2.88  36 2.89  23 2.91  22 2.94  25 2.96  35 2.97  28 2.97
                            30 3.06
  34  0.334  0.660  0.561-  32 2.87  33 2.88  36 2.89  23 2.91  24 2.94  26 2.96  35 2.97  28 2.97
                            29 3.06
  35  0.667  0.667  0.563-  24 2.96  27 2.96  22 2.96  29 2.97  34 2.97  32 2.97  31 2.97  30 2.97
                            33 2.97
  36  0.333  0.333  0.548-  37 1.81  20 2.70  23 2.70  21 2.70  33 2.89  31 2.89  29 2.89  30 2.89
                            34 2.89  32 2.89
  37  0.333  0.333  0.629-  38 0.97  36 1.81
  38  0.333  0.333  0.673-  37 0.97
 
  LATTYP: Found a hexagonal cell.
 ALAT       =     8.8135128021
 C/A-ratio  =     2.5184286595
  
  Lattice vectors:
  
 A1 = (  -4.4067569092,  -7.6327256898,   0.0000000000)
 A2 = (   8.8135128021,   0.0000000000,   0.0000000000)
 A3 = (   0.0000000000,   0.0000000000,  22.1962032318)


Analysis of symmetry for initial positions (statically):
=====================================================================
 Subroutine PRICEL returns:
 Original cell was already a primitive cell.
 

 Routine SETGRP: Setting up the symmetry group for a 
 hexagonal supercell.


 Subroutine GETGRP returns: Found  6 space group operations
 (whereof  6 operations were pure point group operations)
 out of a pool of 24 trial point group operations.


The static configuration has the point symmetry C_3v.


Analysis of symmetry for dynamics (positions and initial velocities):
=====================================================================
 Subroutine PRICEL returns:
 Original cell was already a primitive cell.
 

 Routine SETGRP: Setting up the symmetry group for a 
 hexagonal supercell.


 Subroutine GETGRP returns: Found  6 space group operations
 (whereof  6 operations were pure point group operations)
 out of a pool of 24 trial point group operations.


The dynamic configuration has the point symmetry C_3v.


Analysis of constrained symmetry for selective dynamics:
=====================================================================
 Subroutine PRICEL returns:
 Original cell was already a primitive cell.
 

 Routine SETGRP: Setting up the symmetry group for a 
 hexagonal supercell.


 Subroutine GETGRP returns: Found  6 space group operations
 (whereof  6 operations were pure point group operations)
 out of a pool of 24 trial point group operations.


The constrained configuration has the point symmetry C_3v.


 Subroutine INISYM returns: Found  6 space group operations
 (whereof  6 operations are pure point group operations),
 and found     1 'primitive' translations


----------------------------------------------------------------------------------------

                                     Primitive cell                                     

  volume of cell :    1493.1636

  direct lattice vectors                    reciprocal lattice vectors
     8.813512802  0.000000000  0.000000000     0.113462137 -0.065507406  0.000000000
     4.406756909  7.632725690  0.000000000     0.000000000  0.131014796  0.000000000
     0.000000000  0.000000000 22.196203232     0.000000000  0.000000000  0.045052750

  length of vectors
     8.813512802  8.813512802 22.196203232     0.131014796  0.131014796  0.045052750

  position of ions in fractional coordinates (direct lattice)
     0.000000000  0.000000000  0.237895638
     0.333333343  0.000000000  0.237895638
     0.666666687  0.000000000  0.237895638
     1.000000000  0.333333343  0.237895638
     0.333333313  0.333333343  0.237895638
     0.666666687  0.333333343  0.237895638
     1.000000000  0.666666687  0.237895638
     0.333333343  0.666666687  0.237895638
     0.666666627  0.666666687  0.237895638
     0.111111119  0.111111112  0.345965207
     0.444444418  0.111111112  0.345965207
     0.777777791  0.111111112  0.345965207
     0.111111127  0.444444448  0.345965207
     0.444444478  0.444444448  0.345965207
     0.777777731  0.444444448  0.345965207
     0.111111090  0.777777791  0.345965207
     0.444444448  0.777777791  0.345965207
     0.777777851  0.777777791  0.345965207
     0.889034572  0.221930873  0.453705800
     0.222892879  0.222892864  0.453161960
     0.554214302  0.222892864  0.453161960
     0.887576566  0.556211747  0.453206016
     0.222892834  0.554214302  0.453161960
     0.556211747  0.556211747  0.453206016
     0.889034572  0.889034572  0.453705800
     0.221930903  0.889034572  0.453705800
     0.556211687  0.887576566  0.453206016
     0.000000000  0.000000000  0.562643426
     0.333602496  0.006773743  0.561295001
     0.659623791  0.006773743  0.561295001
     0.006773743  0.333602496  0.561295001
     0.659623791  0.333602496  0.561295001
     0.006773743  0.659623791  0.561295001
     0.333602496  0.659623791  0.561295001
     0.666666627  0.666666687  0.562800356
     0.333333313  0.333333343  0.547908350
     0.333333313  0.333333343  0.629391186
     0.333333313  0.333333343  0.672888798

  ion indices of the primitive-cell ions
   primitive index   ion index
                 1           1
                 2           2
                 3           3
                 4           4
                 5           5
                 6           6
                 7           7
                 8           8
                 9           9
                10          10
                11          11
                12          12
                13          13
                14          14
                15          15
                16          16
                17          17
                18          18
                19          19
                20          20
                21          21
                22          22
                23          23
                24          24
                25          25
                26          26
                27          27
                28          28
                29          29
                30          30
                31          31
                32          32
                33          33
                34          34
                35          35
                36          36
                37          37
                38          38

----------------------------------------------------------------------------------------

 
 
 KPOINTS: Automatic mesh                          

Automatic generation of k-mesh.
 Grid dimensions read from file:
 generate k-points for:    8    8    1

 Generating k-lattice:

  Cartesian coordinates                     Fractional coordinates (reciprocal lattice)
     0.014182767 -0.008188426  0.000000000     0.125000000 -0.000000000  0.000000000
     0.000000000  0.016376850  0.000000000     0.000000000  0.125000000  0.000000000
     0.000000000  0.000000000  0.045052750     0.000000000  0.000000000  1.000000000

  Length of vectors
     0.016376850  0.016376850  0.045052750

  Shift w.r.t. Gamma in fractional coordinates (k-lattice)
     0.000000000  0.000000000  0.000000000

 TETIRR: Found     36 inequivalent tetrahedra from      384
 
 Subroutine IBZKPT returns following result:
 ===========================================
 
 Found     10 irreducible k-points:
 
 Following reciprocal coordinates:
            Coordinates               Weight
  0.000000  0.000000  0.000000      1.000000
  0.125000 -0.000000  0.000000      6.000000
  0.250000 -0.000000  0.000000      6.000000
  0.375000  0.000000  0.000000      6.000000
  0.500000 -0.000000  0.000000      3.000000
  0.250000  0.125000  0.000000      6.000000
  0.375000  0.125000  0.000000     12.000000
  0.500000  0.125000  0.000000     12.000000
  0.500000  0.250000  0.000000      6.000000
 -0.375000  0.250000  0.000000      6.000000
 
 Following cartesian coordinates:
            Coordinates               Weight
  0.000000  0.000000  0.000000      1.000000
  0.014183 -0.008188  0.000000      6.000000
  0.028366 -0.016377  0.000000      6.000000
  0.042548 -0.024565  0.000000      6.000000
  0.056731 -0.032754  0.000000      3.000000
  0.028366 -0.000000  0.000000      6.000000
  0.042548 -0.008188  0.000000     12.000000
  0.056731 -0.016377  0.000000     12.000000
  0.056731 -0.000000  0.000000      6.000000
 -0.042548  0.057319  0.000000      6.000000
 


--------------------------------------------------------------------------------------------------------




 Dimension of arrays:
   k-points           NKPTS =     10   k-points in BZ     NKDIM =     10   number of bands    NBANDS=    252
   number of dos      NEDOS =    301   number of ions     NIONS =     38
   non local maximal  LDIM  =      6   non local SUM 2l+1 LMDIM =     18
   total plane-waves  NPLWV = 290304
   max r-space proj   IRMAX =   2236   max aug-charges    IRDMAX=  12088
   dimension x,y,z NGX =    48 NGY =   48 NGZ =  126
   dimension x,y,z NGXF=    96 NGYF=   96 NGZF=  252
   support grid    NGXF=    96 NGYF=   96 NGZF=  252
   ions per type =              35   1   1   1
   NGX,Y,Z   is equivalent  to a cutoff of   9.05,  9.05,  9.44 a.u.
   NGXF,Y,Z  is equivalent  to a cutoff of  18.11, 18.11, 18.87 a.u.

 SYSTEM =  unknown system                          
 POSCAR =  Au-Ni-OH                                

 Startparameter for this run:
   NWRITE =      2    write-flag & timer
   PREC   = normal    normal or accurate (medium, high low for compatibility)
   ISTART =      0    job   : 0-new  1-cont  2-samecut
   ICHARG =     11    charge: 1-file 2-atom 10-const
   ISPIN  =      1    spin polarized calculation?
   LNONCOLLINEAR =      F non collinear calculations
   LSORBIT =      F    spin-orbit coupling
   INIWAV =      1    electr: 0-lowe 1-rand  2-diag
   LASPH  =      F    aspherical Exc in radial PAW
   METAGGA=      F    non-selfconsistent MetaGGA calc.

 Electronic Relaxation 1
   ENCUT  =  500.0 eV  36.75 Ry    6.06 a.u.  16.07 16.07 40.47*2*pi/ulx,y,z
   ENINI  =  500.0     initial cutoff
   ENAUG  =  605.4 eV  augmentation charge cutoff
   NELM   =    150;   NELMIN=  2; NELMDL= -5     # of ELM steps 
   EDIFF  = 0.1E-04   stopping-criterion for ELM
   LREAL  =      T    real-space projection
   NLSPLINE    = F    spline interpolate recip. space projectors
   LCOMPAT=      F    compatible to vasp.4.4
   GGA_COMPAT  = T    GGA compatible to vasp.4.4-vasp.4.6
   LMAXPAW     = -100 max onsite density
   LMAXMIX     =    2 max onsite mixed and CHGCAR
   VOSKOWN=      0    Vosko Wilk Nusair interpolation
   ROPT   =   -0.00050  -0.00050  -0.00050  -0.00050
 Ionic relaxation
   EDIFFG = -.1E-01   stopping-criterion for IOM
   NSW    =      0    number of steps for IOM
   NBLOCK =      1;   KBLOCK =      1    inner block; outer block 
   IBRION =     -1    ionic relax: 0-MD 1-quasi-New 2-CG
   NFREE  =      1    steps in history (QN), initial steepest desc. (CG)
   ISIF   =      2    stress and relaxation
   IWAVPR =     10    prediction:  0-non 1-charg 2-wave 3-comb
   ISYM   =      2    0-nonsym 1-usesym 2-fastsym
   LCORR  =      T    Harris-Foulkes like correction to forces

   POTIM  = 0.5000    time-step for ionic-motion
   TEIN   =    0.0    initial temperature
   TEBEG  =    0.0;   TEEND  =   0.0 temperature during run
   SMASS  =  -3.00    Nose mass-parameter (am)
   estimated Nose-frequenzy (Omega)   =  0.10E-29 period in steps = 0.13E+47 mass=  -0.178E-26a.u.
   SCALEE = 1.0000    scale energy and forces
   NPACO  =    256;   APACO  = 16.0  distance and # of slots for P.C.
   PSTRESS=    0.0 pullay stress

  Mass of Ions in am
   POMASS = 196.97 58.69 16.00  1.00
  Ionic Valenz
   ZVAL   =  11.00 10.00  6.00  1.00
  Atomic Wigner-Seitz radii
   RWIGS  =  -1.00 -1.00 -1.00 -1.00
  virtual crystal weights 
   VCA    =   1.00  1.00  1.00  1.00
   NELECT =     402.0000    total number of electrons
   NUPDOWN=      -1.0000    fix difference up-down

 DOS related values:
   EMIN   =  10.00;   EMAX   =-10.00  energy-range for DOS
   EFERMI =   0.00
   ISMEAR =    -5;   SIGMA  =   0.10  broadening in eV -4-tet -1-fermi 0-gaus

 Electronic relaxation 2 (details)
   IALGO  =     68    algorithm
   LDIAG  =      T    sub-space diagonalisation (order eigenvalues)
   LSUBROT=      F    optimize rotation matrix (better conditioning)
   TURBO    =      0    0=normal 1=particle mesh
   IRESTART =      0    0=no restart 2=restart with 2 vectors
   NREBOOT  =      0    no. of reboots
   NMIN     =      0    reboot dimension
   EREF     =   0.00    reference energy to select bands
   IMIX   =      4    mixing-type and parameters
     AMIX     =   0.40;   BMIX     =  1.00
     AMIX_MAG =   1.60;   BMIX_MAG =  1.00
     AMIN     =   0.10
     WC   =   100.;   INIMIX=   1;  MIXPRE=   1;  MAXMIX= -45

 Intra band minimization:
   WEIMIN = 0.0000     energy-eigenvalue tresh-hold
   EBREAK =  0.99E-08  absolut break condition
   DEPER  =   0.30     relativ break condition  

   TIME   =   0.40     timestep for ELM

  volume/ion in A,a.u.               =      39.29       265.17
  Fermi-wavevector in a.u.,A,eV,Ry     =   1.057096  1.997622 15.203854  1.117452
  Thomas-Fermi vector in A             =   2.192356
 
 Write flags
   LWAVE        =      F    write WAVECAR
   LDOWNSAMPLE  =      F    k-point downsampling of WAVECAR
   LCHARG       =      F    write CHGCAR
   LVTOT        =      F    write LOCPOT, total local potential
   LVHAR        =      F    write LOCPOT, Hartree potential only
   LELF         =      F    write electronic localiz. function (ELF)
   LORBIT       =     10    0 simple, 1 ext, 2 COOP (PROOUT), +10 PAW based schemes


 Dipole corrections
   LMONO  =      F    monopole corrections only (constant potential shift)
   LDIPOL =      F    correct potential (dipole corrections)
   IDIPOL =      0    1-x, 2-y, 3-z, 4-all directions 
   EPSILON=  1.0000000 bulk dielectric constant

 Exchange correlation treatment:
   GGA     =    --    GGA type
   LEXCH   =     8    internal setting for exchange type
   VOSKOWN=      0    Vosko Wilk Nusair interpolation
   LHFCALC =     F    Hartree Fock is set to
   LHFONE  =     F    Hartree Fock one center treatment
   AEXX    =    0.0000 exact exchange contribution

 Linear response parameters
   LEPSILON=     F    determine dielectric tensor
   LRPA    =     F    only Hartree local field effects (RPA)
   LNABLA  =     F    use nabla operator in PAW spheres
   LVEL    =     F    velocity operator in full k-point grid
   LINTERFAST=   F  fast interpolation
   KINTER  =     0    interpolate to denser k-point grid
   CSHIFT  =0.1000    complex shift for real part using Kramers Kronig
   OMEGAMAX=  -1.0    maximum frequency
   DEG_THRESHOLD= 0.2000000E-02 threshold for treating states as degnerate
   RTIME   =   -0.100 relaxation time in fs
  (WPLASMAI=    0.000 imaginary part of plasma frequency in eV, 0.658/RTIME)
   DFIELD  = 0.0000000 0.0000000 0.0000000 field for delta impulse in time
 
 Orbital magnetization related:
   ORBITALMAG=     F  switch on orbital magnetization
   LCHIMAG   =     F  perturbation theory with respect to B field
   DQ        =  0.001000  dq finite difference perturbation B field
   LLRAUG    =     F  two centre corrections for induced B field



--------------------------------------------------------------------------------------------------------


 Static calculation
 charge density and potential remain constant during run
 non-spin polarized calculation
 RMM-DIIS sequential band-by-band and
  variant of blocked Davidson during initial phase
 perform sub-space diagonalisation
    before iterative eigenvector-optimisation
 no mixing
 using additional bands           51
 real space projection scheme for non local part
 use partial core corrections
 calculate Harris-corrections to forces 
   (improved forces if not selfconsistent)
 use gradient corrections 
 WARNING: stress and forces are not correct
  (second derivative of E(xc) not defined)
 use of overlap-Matrix (Vanderbilt PP)
 Fermi weights with tetrahedron method with Bloechl corrections


--------------------------------------------------------------------------------------------------------


  energy-cutoff  :      500.00
  volume of cell :     1493.16
      direct lattice vectors                 reciprocal lattice vectors
     8.813512802  0.000000000  0.000000000     0.113462137 -0.065507406  0.000000000
     4.406756909  7.632725690  0.000000000     0.000000000  0.131014796  0.000000000
     0.000000000  0.000000000 22.196203232     0.000000000  0.000000000  0.045052750

  length of vectors
     8.813512802  8.813512802 22.196203232     0.131014796  0.131014796  0.045052750


 
 k-points in units of 2pi/SCALE and weight: Automatic mesh                          
   0.00000000  0.00000000  0.00000000       0.016
   0.01418277 -0.00818843  0.00000000       0.094
   0.02836553 -0.01637685  0.00000000       0.094
   0.04254830 -0.02456528  0.00000000       0.094
   0.05673107 -0.03275370  0.00000000       0.047
   0.02836553 -0.00000000  0.00000000       0.094
   0.04254830 -0.00818843  0.00000000       0.188
   0.05673107 -0.01637685  0.00000000       0.188
   0.05673107 -0.00000000  0.00000000       0.094
  -0.04254830  0.05731898  0.00000000       0.094
 
 k-points in reciprocal lattice and weights: Automatic mesh                          
   0.00000000  0.00000000  0.00000000       0.016
   0.12500000 -0.00000000  0.00000000       0.094
   0.25000000 -0.00000000  0.00000000       0.094
   0.37500000  0.00000000  0.00000000       0.094
   0.50000000 -0.00000000  0.00000000       0.047
   0.25000000  0.12500000  0.00000000       0.094
   0.37500000  0.12500000  0.00000000       0.188
   0.50000000  0.12500000  0.00000000       0.188
   0.50000000  0.25000000  0.00000000       0.094
  -0.37500000  0.25000000  0.00000000       0.094
 
 position of ions in fractional coordinates (direct lattice) 
   0.00000000  0.00000000  0.23789564
   0.33333334  0.00000000  0.23789564
   0.66666669  0.00000000  0.23789564
   0.00000000  0.33333334  0.23789564
   0.33333331  0.33333334  0.23789564
   0.66666669  0.33333334  0.23789564
   0.00000000  0.66666669  0.23789564
   0.33333334  0.66666669  0.23789564
   0.66666663  0.66666669  0.23789564
   0.11111112  0.11111111  0.34596521
   0.44444442  0.11111111  0.34596521
   0.77777779  0.11111111  0.34596521
   0.11111113  0.44444445  0.34596521
   0.44444448  0.44444445  0.34596521
   0.77777773  0.44444445  0.34596521
   0.11111109  0.77777779  0.34596521
   0.44444445  0.77777779  0.34596521
   0.77777785  0.77777779  0.34596521
   0.88903457  0.22193087  0.45370580
   0.22289288  0.22289286  0.45316196
   0.55421430  0.22289286  0.45316196
   0.88757657  0.55621175  0.45320602
   0.22289283  0.55421430  0.45316196
   0.55621175  0.55621175  0.45320602
   0.88903457  0.88903457  0.45370580
   0.22193090  0.88903457  0.45370580
   0.55621169  0.88757657  0.45320602
   0.00000000  0.00000000  0.56264343
   0.33360250  0.00677374  0.56129500
   0.65962379  0.00677374  0.56129500
   0.00677374  0.33360250  0.56129500
   0.65962379  0.33360250  0.56129500
   0.00677374  0.65962379  0.56129500
   0.33360250  0.65962379  0.56129500
   0.66666663  0.66666669  0.56280036
   0.33333331  0.33333334  0.54790835
   0.33333331  0.33333334  0.62939119
   0.33333331  0.33333334  0.67288880
 
 position of ions in cartesian coordinates  (Angst):
   0.00000000  0.00000000  5.28037993
   2.93783769  0.00000000  5.28037993
   5.87567538  0.00000000  5.28037993
   1.46891901  2.54424197  5.28037993
   4.40675643  2.54424197  5.28037993
   7.34459439  2.54424197  5.28037993
   2.93783803  5.08848395  5.28037993
   5.87567571  5.08848395  5.28037993
   8.81351288  5.08848395  5.28037993
   1.46891893  0.84808064  7.67911405
   4.40675623  0.84808064  7.67911405
   7.34459418  0.84808064  7.67911405
   2.93783798  3.39232256  7.67911405
   5.87567574  3.39232256  7.67911405
   8.81351263  3.39232256  7.67911405
   4.40675667  5.93656453  7.67911405
   7.34459449  5.93656453  7.67911405
  10.28243270  5.93656453  7.67911405
   8.81351299  1.69393747 10.07054615
   2.94670391  1.70128009 10.05847497
   5.86680951  1.70128009 10.05847497
  10.27375739  4.24541169 10.05945283
   4.40675655  4.23016574 10.05847497
   7.35326931  4.24541169 10.05945283
  11.75327682  6.78575701 10.07054615
   5.87375009  6.78575701 10.07054615
   8.81351299  6.77462846 10.05945283
   0.00000000  0.00000000 12.48854784
   2.97006011  0.05170212 12.45861791
   5.84345296  0.05170212 12.45861791
   1.52980557  2.54629634 12.45861791
   7.28370783  2.54629634 12.45861791
   2.96650217  5.03472745 12.45861791
   5.84701157  5.03472745 12.45861791
   8.81351288  5.08848395 12.49203108
   4.40675643  2.54424197 12.16148509
   4.40675643  2.54424197 13.97009467
   4.40675643  2.54424197 14.93557651
 


--------------------------------------------------------------------------------------------------------


 k-point   1 :   0.0000 0.0000 0.0000  plane waves:   37827
 k-point   2 :   0.1250-0.0000 0.0000  plane waves:   37876
 k-point   3 :   0.2500-0.0000 0.0000  plane waves:   37924
 k-point   4 :   0.3750 0.0000 0.0000  plane waves:   37904
 k-point   5 :   0.5000-0.0000 0.0000  plane waves:   37912
 k-point   6 :   0.2500 0.1250 0.0000  plane waves:   37858
 k-point   7 :   0.3750 0.1250 0.0000  plane waves:   37928
 k-point   8 :   0.5000 0.1250 0.0000  plane waves:   37924
 k-point   9 :   0.5000 0.2500 0.0000  plane waves:   37926
 k-point  10 :  -0.3750 0.2500 0.0000  plane waves:   37916

 maximum and minimum number of plane-waves per node :     37928    37827

 maximum number of plane-waves:     37928
 maximum index in each direction: 
   IXMAX=   16   IYMAX=   16   IZMAX=   40
   IXMIN=  -16   IYMIN=  -16   IZMIN=  -40


 serial   3D FFT for wavefunctions
 parallel 3D FFT for charge:
    minimum data exchange during FFTs selected (reduces bandwidth)


 total amount of memory used by VASP MPI-rank0   122750. kBytes
=======================================================================

   base      :      30000. kBytes
   nonlr-proj:      13570. kBytes
   fftplans  :       4330. kBytes
   grid      :      18659. kBytes
   one-center:        590. kBytes
   wavefun   :      55601. kBytes
 
     INWAV:  cpu time    0.0000: real time    0.0000
 initial charge density was supplied:
 number of electron     402.0000040 magnetization 
 keeping initial charge density in first step


--------------------------------------------------------------------------------------------------------


 Maximum index for non-local projection operator         2122
 Maximum index for augmentation-charges          854 (set IRDMAX)


--------------------------------------------------------------------------------------------------------


 First call to EWALD:  gamma=   0.155
 Maximum number of real-space cells 4x 4x 2
 Maximum number of reciprocal cells 2x 2x 5

    FEWALD:  cpu time    0.0013: real time    0.0013


--------------------------------------- Iteration      1(   1)  ---------------------------------------


    POTLOK:  cpu time    0.0433: real time    0.0437
    SETDIJ:  cpu time    0.0048: real time    0.0049
     EDDAV:  cpu time    7.1224: real time    7.1242
 BZINTS: Fermi energy:   11.554970;  402.000000 electrons
         Band energy: 0.162632E+04;  BLOECHL correction:   -0.006497
       DOS:  cpu time    0.0107: real time    0.0107
    --------------------------------------------
      LOOP:  cpu time    7.1812: real time    7.1836

 eigenvalue-minimisations  :  5040
 total energy-change (2. order) : 0.2687732E+04  (-0.1826510E+05)
 number of electron     402.0000040 magnetization 
 augmentation part      402.0000040 magnetization 

 Free energy of the ion-electron system (eV)
  ---------------------------------------------------
  alpha Z        PSCENC =      1018.42230215
  Ewald energy   TEWEN  =     97918.17824038
  -Hartree energ DENC   =   -133049.87626497
  -exchange      EXHF   =         0.00000000
  -V(xc)+E(xc)   XCENC  =       579.09343899
  PAW double counting   =     36759.00001515   -36098.80977751
  entropy T*S    EENTRO =         0.00000000
  eigenvalues    EBANDS =      1626.32450414
  atomic energy  EATOM  =     33935.39997878
  Solvation  Ediel_sol  =         0.00000000
  ---------------------------------------------------
  free energy    TOTEN  =      2687.73243711 eV

  energy without entropy =     2687.73243711  energy(sigma->0) =     2687.73243711


--------------------------------------------------------------------------------------------------------




--------------------------------------- Iteration      1(   2)  ---------------------------------------


     EDDAV:  cpu time    7.7213: real time    7.7216
 BZINTS: Fermi energy:    1.664000;  402.000000 electrons
         Band energy:-0.103881E+04;  BLOECHL correction:   -0.031537
       DOS:  cpu time    0.0099: real time    0.0099
    --------------------------------------------
      LOOP:  cpu time    7.7312: real time    7.7315

 eigenvalue-minimisations  :  5600
 total energy-change (2. order) :-0.2665130E+04  (-0.2468498E+04)
 number of electron     402.0000040 magnetization 
 augmentation part      402.0000040 magnetization 

 Free energy of the ion-electron system (eV)
  ---------------------------------------------------
  alpha Z        PSCENC =      1018.42230215
  Ewald energy   TEWEN  =     97918.17824038
  -Hartree energ DENC   =   -133049.87626497
  -exchange      EXHF   =         0.00000000
  -V(xc)+E(xc)   XCENC  =       579.09343899
  PAW double counting   =     36759.00001515   -36098.80977751
  entropy T*S    EENTRO =         0.00000000
  eigenvalues    EBANDS =     -1038.80552961
  atomic energy  EATOM  =     33935.39997878
  Solvation  Ediel_sol  =         0.00000000
  ---------------------------------------------------
  free energy    TOTEN  =        22.60240336 eV

  energy without entropy =       22.60240336  energy(sigma->0) =       22.60240336


--------------------------------------------------------------------------------------------------------




--------------------------------------- Iteration      1(   3)  ---------------------------------------


     EDDAV:  cpu time    7.9291: real time    7.9293
 BZINTS: Fermi energy:    0.799620;  402.000000 electrons
         Band energy:-0.117934E+04;  BLOECHL correction:   -0.047678
       DOS:  cpu time    0.0102: real time    0.0102
    --------------------------------------------
      LOOP:  cpu time    7.9394: real time    7.9395

 eigenvalue-minimisations  :  5768
 total energy-change (2. order) :-0.1405373E+03  (-0.1359384E+03)
 number of electron     402.0000040 magnetization 
 augmentation part      402.0000040 magnetization 

 Free energy of the ion-electron system (eV)
  ---------------------------------------------------
  alpha Z        PSCENC =      1018.42230215
  Ewald energy   TEWEN  =     97918.17824038
  -Hartree energ DENC   =   -133049.87626497
  -exchange      EXHF   =         0.00000000
  -V(xc)+E(xc)   XCENC  =       579.09343899
  PAW double counting   =     36759.00001515   -36098.80977751
  entropy T*S    EENTRO =         0.00000000
  eigenvalues    EBANDS =     -1179.34286522
  atomic energy  EATOM  =     33935.39997878
  Solvation  Ediel_sol  =         0.00000000
  ---------------------------------------------------
  free energy    TOTEN  =      -117.93493225 eV

  energy without entropy =     -117.93493225  energy(sigma->0) =     -117.93493225


--------------------------------------------------------------------------------------------------------




--------------------------------------- Iteration      1(   4)  ---------------------------------------


     EDDAV:  cpu time    7.6438: real time    7.6439
 BZINTS: Fermi energy:    0.773957;  402.000000 electrons
         Band energy:-0.118244E+04;  BLOECHL correction:   -0.048547
       DOS:  cpu time    0.0103: real time    0.0103
    --------------------------------------------
      LOOP:  cpu time    7.6541: real time    7.6542

 eigenvalue-minimisations  :  5516
 total energy-change (2. order) :-0.3099923E+01  (-0.3093435E+01)
 number of electron     402.0000040 magnetization 
 augmentation part      402.0000040 magnetization 

 Free energy of the ion-electron system (eV)
  ---------------------------------------------------
  alpha Z        PSCENC =      1018.42230215
  Ewald energy   TEWEN  =     97918.17824038
  -Hartree energ DENC   =   -133049.87626497
  -exchange      EXHF   =         0.00000000
  -V(xc)+E(xc)   XCENC  =       579.09343899
  PAW double counting   =     36759.00001515   -36098.80977751
  entropy T*S    EENTRO =         0.00000000
  eigenvalues    EBANDS =     -1182.44278823
  atomic energy  EATOM  =     33935.39997878
  Solvation  Ediel_sol  =         0.00000000
  ---------------------------------------------------
  free energy    TOTEN  =      -121.03485526 eV

  energy without entropy =     -121.03485526  energy(sigma->0) =     -121.03485526


--------------------------------------------------------------------------------------------------------




--------------------------------------- Iteration      1(   5)  ---------------------------------------


     EDDAV:  cpu time    8.7911: real time    8.7912
 BZINTS: Fermi energy:    0.773410;  402.000000 electrons
         Band energy:-0.118254E+04;  BLOECHL correction:   -0.048554
       DOS:  cpu time    0.0103: real time    0.0103
    --------------------------------------------
      LOOP:  cpu time    8.8015: real time    8.8016

 eigenvalue-minimisations  :  6524
 total energy-change (2. order) :-0.9625044E-01  (-0.9624184E-01)
 number of electron     402.0000040 magnetization 
 augmentation part      402.0000040 magnetization 

 Free energy of the ion-electron system (eV)
  ---------------------------------------------------
  alpha Z        PSCENC =      1018.42230215
  Ewald energy   TEWEN  =     97918.17824038
  -Hartree energ DENC   =   -133049.87626497
  -exchange      EXHF   =         0.00000000
  -V(xc)+E(xc)   XCENC  =       579.09343899
  PAW double counting   =     36759.00001515   -36098.80977751
  entropy T*S    EENTRO =         0.00000000
  eigenvalues    EBANDS =     -1182.53903867
  atomic energy  EATOM  =     33935.39997878
  Solvation  Ediel_sol  =         0.00000000
  ---------------------------------------------------
  free energy    TOTEN  =      -121.13110570 eV

  energy without entropy =     -121.13110570  energy(sigma->0) =     -121.13110570


--------------------------------------------------------------------------------------------------------




--------------------------------------- Iteration      1(   6)  ---------------------------------------


    EDDIAG:  cpu time    1.4023: real time    1.4025
  RMM-DIIS:  cpu time    3.9103: real time    3.9103
    ORTHCH:  cpu time    0.2612: real time    0.2612
 BZINTS: Fermi energy:    0.773408;  402.000000 electrons
         Band energy:-0.118254E+04;  BLOECHL correction:   -0.048554
       DOS:  cpu time    0.0098: real time    0.0098
    --------------------------------------------
      LOOP:  cpu time    5.5836: real time    5.5839

 eigenvalue-minimisations  :  5087
 total energy-change (2. order) :-0.2089787E-02  (-0.2089991E-02)
 number of electron     402.0000040 magnetization 
 augmentation part      402.0000040 magnetization 

 Free energy of the ion-electron system (eV)
  ---------------------------------------------------
  alpha Z        PSCENC =      1018.42230215
  Ewald energy   TEWEN  =     97918.17824038
  -Hartree energ DENC   =   -133049.87626497
  -exchange      EXHF   =         0.00000000
  -V(xc)+E(xc)   XCENC  =       579.09343899
  PAW double counting   =     36759.00001515   -36098.80977751
  entropy T*S    EENTRO =         0.00000000
  eigenvalues    EBANDS =     -1182.54112846
  atomic energy  EATOM  =     33935.39997878
  Solvation  Ediel_sol  =         0.00000000
  ---------------------------------------------------
  free energy    TOTEN  =      -121.13319549 eV

  energy without entropy =     -121.13319549  energy(sigma->0) =     -121.13319549


--------------------------------------------------------------------------------------------------------




--------------------------------------- Iteration      1(   7)  ---------------------------------------


    EDDIAG:  cpu time    1.4032: real time    1.4033
  RMM-DIIS:  cpu time    5.3598: real time    5.3599
    ORTHCH:  cpu time    0.2609: real time    0.2609
 BZINTS: Fermi energy:    0.773407;  402.000000 electrons
         Band energy:-0.118254E+04;  BLOECHL correction:   -0.048554
       DOS:  cpu time    0.0099: real time    0.0099
    --------------------------------------------
      LOOP:  cpu time    7.0338: real time    7.0340

 eigenvalue-minimisations  :  7045
 total energy-change (2. order) :-0.7111926E-03  (-0.7021529E-03)
 number of electron     402.0000040 magnetization 
 augmentation part      402.0000040 magnetization 

 Free energy of the ion-electron system (eV)
  ---------------------------------------------------
  alpha Z        PSCENC =      1018.42230215
  Ewald energy   TEWEN  =     97918.17824038
  -Hartree energ DENC   =   -133049.87626497
  -exchange      EXHF   =         0.00000000
  -V(xc)+E(xc)   XCENC  =       579.09343899
  PAW double counting   =     36759.00001515   -36098.80977751
  entropy T*S    EENTRO =         0.00000000
  eigenvalues    EBANDS =     -1182.54183965
  atomic energy  EATOM  =     33935.39997878
  Solvation  Ediel_sol  =         0.00000000
  ---------------------------------------------------
  free energy    TOTEN  =      -121.13390668 eV

  energy without entropy =     -121.13390668  energy(sigma->0) =     -121.13390668


--------------------------------------------------------------------------------------------------------




--------------------------------------- Iteration      1(   8)  ---------------------------------------


    EDDIAG:  cpu time    1.4047: real time    1.4048
  RMM-DIIS:  cpu time    4.2019: real time    4.2019
    ORTHCH:  cpu time    0.2612: real time    0.2612
 BZINTS: Fermi energy:    0.773407;  402.000000 electrons
         Band energy:-0.118254E+04;  BLOECHL correction:   -0.048554
       DOS:  cpu time    0.0103: real time    0.0103
    --------------------------------------------
      LOOP:  cpu time    5.8781: real time    5.8783

 eigenvalue-minimisations  :  5336
 total energy-change (2. order) :-0.3769717E-04  (-0.3744917E-04)
 number of electron     402.0000040 magnetization 
 augmentation part      402.0000040 magnetization 

 Free energy of the ion-electron system (eV)
  ---------------------------------------------------
  alpha Z        PSCENC =      1018.42230215
  Ewald energy   TEWEN  =     97918.17824038
  -Hartree energ DENC   =   -133049.87626497
  -exchange      EXHF   =         0.00000000
  -V(xc)+E(xc)   XCENC  =       579.09343899
  PAW double counting   =     36759.00001515   -36098.80977751
  entropy T*S    EENTRO =         0.00000000
  eigenvalues    EBANDS =     -1182.54187735
  atomic energy  EATOM  =     33935.39997878
  Solvation  Ediel_sol  =         0.00000000
  ---------------------------------------------------
  free energy    TOTEN  =      -121.13394438 eV

  energy without entropy =     -121.13394438  energy(sigma->0) =     -121.13394438


--------------------------------------------------------------------------------------------------------




--------------------------------------- Iteration      1(   9)  ---------------------------------------


    EDDIAG:  cpu time    1.4038: real time    1.4070
  RMM-DIIS:  cpu time    3.9070: real time    3.9071
    ORTHCH:  cpu time    0.2608: real time    0.2608
 BZINTS: Fermi energy:    0.773407;  402.000000 electrons
         Band energy:-0.118254E+04;  BLOECHL correction:   -0.048554
       DOS:  cpu time    0.0103: real time    0.0103
    --------------------------------------------
      LOOP:  cpu time    5.5820: real time    5.5852

 eigenvalue-minimisations  :  4436
 total energy-change (2. order) :-0.9780022E-05  (-0.9647530E-05)
 number of electron     402.0000040 magnetization 
 augmentation part      402.0000040 magnetization 

 Free energy of the ion-electron system (eV)
  ---------------------------------------------------
  alpha Z        PSCENC =      1018.42230215
  Ewald energy   TEWEN  =     97918.17824038
  -Hartree energ DENC   =   -133049.87626497
  -exchange      EXHF   =         0.00000000
  -V(xc)+E(xc)   XCENC  =       579.09343899
  PAW double counting   =     36759.00001515   -36098.80977751
  entropy T*S    EENTRO =         0.00000000
  eigenvalues    EBANDS =     -1182.54188713
  atomic energy  EATOM  =     33935.39997878
  Solvation  Ediel_sol  =         0.00000000
  ---------------------------------------------------
  free energy    TOTEN  =      -121.13395416 eV

  energy without entropy =     -121.13395416  energy(sigma->0) =     -121.13395416


--------------------------------------------------------------------------------------------------------




 average (electrostatic) potential at core
  the test charge radii are     1.2098  0.9791  0.7215  0.5201
  (the norm of the test charge is              1.0000)
       1 -72.2670       2 -72.2314       3 -72.2313       4 -72.2314       5 -72.2345
       6 -72.2311       7 -72.2313       8 -72.2311       9 -72.2436      10 -72.5884
      11 -72.5674      12 -72.5881      13 -72.5674      14 -72.5670      15 -72.5886
      16 -72.5881      17 -72.5886      18 -72.5887      19 -72.5317      20 -72.5977
      21 -72.5974      22 -72.5599      23 -72.5973      24 -72.5596      25 -72.5317
      26 -72.5317      27 -72.5599      28 -72.1511      29 -72.1301      30 -72.1301
      31 -72.1301      32 -72.1298      33 -72.1301      34 -72.1298      35 -72.1424
      36 -90.1099      37 -74.2931      38 -38.8329
 
 
 
 E-fermi :   0.7734     XC(G=0):  -6.1520     alpha+bet : -5.7545

 Fermi energy:         0.7734071664

 k-point     1 :       0.0000    0.0000    0.0000
  band No.  band energies     occupation 
      1     -17.8922      2.00000
      2      -8.0315      2.00000
      3      -6.9054      2.00000
      4      -6.4949      2.00000
      5      -5.8960      2.00000
      6      -5.8660      2.00000
      7      -5.8659      2.00000
      8      -5.8610      2.00000
      9      -5.8542      2.00000
     10      -5.8426      2.00000
     11      -5.8426      2.00000
     12      -5.6508      2.00000
     13      -5.3857      2.00000
     14      -5.3753      2.00000
     15      -5.3753      2.00000
     16      -5.3532      2.00000
     17      -5.3531      2.00000
     18      -5.3359      2.00000
     19      -4.9978      2.00000
     20      -4.9978      2.00000
     21      -4.9837      2.00000
     22      -4.9665      2.00000
     23      -4.9543      2.00000
     24      -4.9543      2.00000
     25      -4.8232      2.00000
     26      -4.8231      2.00000
     27      -4.8133      2.00000
     28      -4.7877      2.00000
     29      -4.7877      2.00000
     30      -4.7597      2.00000
     31      -4.6588      2.00000
     32      -4.6588      2.00000
     33      -4.6370      2.00000
     34      -4.6370      2.00000
     35      -4.6276      2.00000
     36      -4.6157      2.00000
     37      -4.6157      2.00000
     38      -4.6097      2.00000
     39      -4.6056      2.00000
     40      -4.4207      2.00000
     41      -4.4207      2.00000
     42      -4.4092      2.00000
     43      -4.1491      2.00000
     44      -4.1491      2.00000
     45      -4.1015      2.00000
     46      -4.0875      2.00000
     47      -4.0874      2.00000
     48      -4.0623      2.00000
     49      -4.0622      2.00000
     50      -4.0432      2.00000
     51      -4.0017      2.00000
     52      -4.0016      2.00000
     53      -3.9961      2.00000
     54      -3.9855      2.00000
     55      -3.9431      2.00000
     56      -3.9065      2.00000
     57      -3.5586      2.00000
     58      -3.5501      2.00000
     59      -3.5350      2.00000
     60      -3.5349      2.00000
     61      -3.5105      2.00000
     62      -3.5105      2.00000
     63      -3.4968      2.00000
     64      -3.4829      2.00000
     65      -3.4829      2.00000
     66      -3.4294      2.00000
     67      -3.4294      2.00000
     68      -3.3818      2.00000
     69      -3.3818      2.00000
     70      -3.3670      2.00000
     71      -3.3174      2.00000
     72      -3.3174      2.00000
     73      -3.3146      2.00000
     74      -3.2898      2.00000
     75      -3.2870      2.00000
     76      -3.2869      2.00000
     77      -3.2742      2.00000
     78      -3.2742      2.00000
     79      -3.2697      2.00000
     80      -3.2538      2.00000
     81      -3.2537      2.00000
     82      -3.2181      2.00000
     83      -3.2181      2.00000
     84      -3.1954      2.00000
     85      -3.1658      2.00000
     86      -3.1658      2.00000
     87      -3.1614      2.00000
     88      -3.1345      2.00000
     89      -3.1345      2.00000
     90      -3.0633      2.00000
     91      -3.0633      2.00000
     92      -3.0602      2.00000
     93      -2.9046      2.00000
     94      -2.9046      2.00000
     95      -2.8790      2.00000
     96      -2.8790      2.00000
     97      -2.8724      2.00000
     98      -2.8724      2.00000
     99      -2.8427      2.00000
    100      -2.8427      2.00000
    101      -2.6913      2.00000
    102      -2.6913      2.00000
    103      -2.6784      2.00000
    104      -2.6598      2.00000
    105      -2.6598      2.00000
    106      -2.6333      2.00000
    107      -2.4869      2.00000
    108      -2.4684      2.00000
    109      -2.4684      2.00000
    110      -2.4533      2.00000
    111      -2.4517      2.00000
    112      -2.4517      2.00000
    113      -2.4357      2.00000
    114      -2.3980      2.00000
    115      -2.3980      2.00000
    116      -2.3620      2.00000
    117      -2.3538      2.00000
    118      -2.3047      2.00000
    119      -2.3047      2.00000
    120      -2.2171      2.00000
    121      -2.1715      2.00000
    122      -2.1715      2.00000
    123      -2.1508      2.00000
    124      -2.1148      2.00000
    125      -2.1148      2.00000
    126      -2.0905      2.00000
    127      -2.0905      2.00000
    128      -2.0264      2.00000
    129      -2.0264      2.00000
    130      -2.0146      2.00000
    131      -2.0145      2.00000
    132      -1.9256      2.00000
    133      -1.9256      2.00000
    134      -1.9161      2.00000
    135      -1.9099      2.00000
    136      -1.9054      2.00000
    137      -1.9054      2.00000
    138      -1.8858      2.00000
    139      -1.8456      2.00000
    140      -1.8456      2.00000
    141      -1.7734      2.00000
    142      -1.7734      2.00000
    143      -1.7534      2.00000
    144      -1.6651      2.00000
    145      -1.6650      2.00000
    146      -1.6500      2.00000
    147      -1.6500      2.00000
    148      -1.6492      2.00000
    149      -1.6302      2.00000
    150      -1.6301      2.00000
    151      -1.6107      2.00000
    152      -1.6085      2.00000
    153      -1.6084      2.00000
    154      -1.5988      2.00000
    155      -1.5816      2.00000
    156      -1.4866      2.00000
    157      -1.4866      2.00000
    158      -1.4689      2.00000
    159      -1.4529      2.00000
    160      -1.4513      2.00000
    161      -1.4512      2.00000
    162      -1.4435      2.00000
    163      -1.4384      2.00000
    164      -1.4276      2.00000
    165      -1.4275      2.00000
    166      -1.3870      2.00000
    167      -1.3870      2.00000
    168      -1.3743      2.00000
    169      -1.3743      2.00000
    170      -1.3603      2.00000
    171      -1.3603      2.00000
    172      -1.3371      2.00000
    173      -1.3323      2.00000
    174      -1.3308      2.00000
    175      -1.3308      2.00000
    176      -1.3235      2.00000
    177      -1.2718      2.00000
    178      -1.2718      2.00000
    179      -1.2479      2.00000
    180      -1.2370      2.00000
    181      -1.2363      2.00000
    182      -1.2349      2.00000
    183      -1.2348      2.00000
    184      -1.1928      2.00000
    185      -1.1928      2.00000
    186      -1.1861      2.00000
    187      -1.0777      2.00000
    188      -1.0777      2.00000
    189      -1.0315      2.00000
    190      -1.0314      2.00000
    191      -0.9954      2.00000
    192      -0.9796      2.00000
    193      -0.9408      2.00000
    194      -0.9407      2.00000
    195      -0.2305      2.00000
    196      -0.0942      2.00000
    197       0.0534      2.00000
    198       0.0534      2.00000
    199       0.2092      2.00000
    200       0.2092      2.00000
    201       0.2396      2.00000
    202       0.3202      2.00000
    203       0.3203      2.00000
    204       0.6562      2.00000
    205       0.6562      2.78723
    206       1.0081      0.00000
    207       1.4129      0.00000
    208       2.3808      0.00000
    209       2.4284      0.00000
    210       2.4284      0.00000
    211       2.4888      0.00000
    212       2.4888      0.00000
    213       2.8907      0.00000
    214       3.5660      0.00000
    215       3.5660      0.00000
    216       3.5946      0.00000
    217       3.5946      0.00000
    218       3.6629      0.00000
    219       3.7759      0.00000
    220       4.2718      0.00000
    221       4.6720      0.00000
    222       5.2730      0.00000
    223       5.3787      0.00000
    224       5.3787      0.00000
    225       5.4220      0.00000
    226       5.4967      0.00000
    227       5.4967      0.00000
    228       5.4970      0.00000
    229       5.5101      0.00000
    230       5.5101      0.00000
    231       5.6678      0.00000
    232       5.6678      0.00000
    233       5.7765      0.00000
    234       6.2818      0.00000
    235       6.4707      0.00000
    236       6.8356      0.00000
    237       6.9265      0.00000
    238       7.0201      0.00000
    239       7.0205      0.00000
    240       7.1164      0.00000
    241       7.1168      0.00000
    242       7.1524      0.00000
    243       7.1838      0.00000
    244       7.1859      0.00000
    245       7.2280      0.00000
    246       7.3518      0.00000
    247       7.3698      0.00000
    248       7.4271      0.00000
    249       7.4603      0.00000
    250       7.4805      0.00000
    251       7.5453      0.00000
    252       7.5726      0.00000

 k-point     2 :       0.1250   -0.0000    0.0000
  band No.  band energies     occupation 
      1     -17.8922      2.00000
      2      -7.9807      2.00000
      3      -6.8648      2.00000
      4      -6.4878      2.00000
      5      -6.1056      2.00000
      6      -5.9311      2.00000
      7      -5.9311      2.00000
      8      -5.8453      2.00000
      9      -5.7477      2.00000
     10      -5.7395      2.00000
     11      -5.7245      2.00000
     12      -5.6133      2.00000
     13      -5.4109      2.00000
     14      -5.3820      2.00000
     15      -5.3560      2.00000
     16      -5.3511      2.00000
     17      -5.3296      2.00000
     18      -5.3124      2.00000
     19      -5.0453      2.00000
     20      -4.9905      2.00000
     21      -4.9898      2.00000
     22      -4.9494      2.00000
     23      -4.9326      2.00000
     24      -4.9286      2.00000
     25      -4.8754      2.00000
     26      -4.8273      2.00000
     27      -4.8208      2.00000
     28      -4.7721      2.00000
     29      -4.7588      2.00000
     30      -4.7231      2.00000
     31      -4.7085      2.00000
     32      -4.7029      2.00000
     33      -4.6907      2.00000
     34      -4.6870      2.00000
     35      -4.6010      2.00000
     36      -4.5835      2.00000
     37      -4.5779      2.00000
     38      -4.5154      2.00000
[...]
  0.000   0.000   0.000   0.000   0.000   0.000   0.000   0.000   0.000   0.000   0.000   0.000   0.000   0.000   0.000   0.000
  0.000   0.000   0.000   0.000   0.000   0.000   0.000   0.000   0.000   0.000   0.000   0.000   0.000   0.000   0.000   0.000
  0.000   0.000   0.000   0.000   0.000   0.000   0.000   0.000   0.000   0.000   1.000   0.000   0.000   0.000   0.000   0.000
  0.000   0.000   0.000   0.000   0.000   0.000   0.000   0.000   0.000   0.000   0.000   0.000   0.000   0.000   0.000   0.000
  0.000   0.000   0.000   0.000   0.000   0.000   0.000   0.000   0.000   0.000   0.000   0.000   0.000   0.000   0.000   0.000
  0.000   0.000   0.000   0.000   0.000   0.000   0.000   0.000   0.000   0.000   0.000   0.000   0.000   0.000   0.000   0.000
  0.000   0.000   0.000   0.000   0.000   0.000   0.000   0.000   0.000   0.000   0.000   0.000   0.000   0.000   0.000   0.000
  0.000   0.000   0.000   0.000   0.000   0.000   0.000   0.000   0.000   0.000   0.000   0.000   0.000   0.000   0.000   0.000
  0.000   0.000   0.000   0.000   0.000   0.000   0.000   0.000   0.000   0.000   0.000   0.000   0.000   0.000   0.000   0.000
  0.000   0.000   0.000   0.000   0.000   0.000   0.000   0.000   0.000   0.000   0.000   0.000   0.000   0.000   0.000   0.000


------------------------ aborting loop because EDIFF is reached ----------------------------------------





 total charge

# of ion       s       p       d       tot
------------------------------------------
    1        0.543   0.239   8.771   9.553
    2        0.545   0.240   8.766   9.551
    3        0.545   0.240   8.766   9.551
    4        0.545   0.240   8.766   9.551
    5        0.542   0.241   8.765   9.548
    6        0.545   0.240   8.766   9.551
    7        0.545   0.240   8.766   9.551
    8        0.545   0.240   8.766   9.551
    9        0.542   0.241   8.765   9.548
   10        0.520   0.308   8.772   9.600
   11        0.520   0.308   8.775   9.603
   12        0.520   0.308   8.772   9.600
   13        0.520   0.308   8.775   9.603
   14        0.520   0.308   8.775   9.603
   15        0.516   0.308   8.778   9.602
   16        0.520   0.308   8.772   9.600
   17        0.516   0.308   8.778   9.602
   18        0.516   0.308   8.778   9.602
   19        0.513   0.304   8.773   9.590
   20        0.535   0.325   8.759   9.619
   21        0.535   0.325   8.759   9.619
   22        0.515   0.308   8.776   9.599
   23        0.535   0.325   8.759   9.619
   24        0.515   0.308   8.776   9.599
   25        0.513   0.304   8.773   9.590
   26        0.513   0.304   8.773   9.590
   27        0.515   0.308   8.776   9.599
   28        0.543   0.225   8.768   9.536
   29        0.535   0.228   8.778   9.540
   30        0.535   0.228   8.778   9.540
   31        0.535   0.228   8.778   9.540
   32        0.535   0.228   8.778   9.540
   33        0.535   0.228   8.778   9.540
   34        0.535   0.228   8.778   9.540
   35        0.541   0.227   8.764   9.532
   36        0.364   0.392   8.318   9.075
   37        1.547   3.519   0.000   5.066
   38        0.608   0.127   0.000   0.736
--------------------------------------------------
tot         21.071  13.598 315.313 349.981
 
    CHARGE:  cpu time    0.3356: real time    0.3357
    FORLOC:  cpu time    0.0109: real time    0.0109
    FORNL :  cpu time    1.4495: real time    1.4497
    STRESS:  cpu time    4.3342: real time    4.3345
    FORCOR:  cpu time    0.0531: real time    0.0533
    FORHAR:  cpu time    0.0175: real time    0.0176
    OFIELD:  cpu time    0.0002: real time    0.0002

  FORCE on cell =-STRESS in cart. coord.  units (eV):
  Direction    XX          YY          ZZ          XY          YZ          ZX
  --------------------------------------------------------------------------------------
  Alpha Z  1018.42230  1018.42230  1018.42230
  Ewald  120718.99612120718.99658************    -0.00031    -0.00008    -0.00011
  Hartree129752.77752129752.77754************     0.00001    -0.00003    -0.00002
  E(xc)   -1816.09815 -1816.09816 -1821.72472     0.00001    -0.00000    -0.00000
  Local  ************************262681.76644     0.00227     0.00001    -0.00004
  n-local  -121.37462   -72.06740   -76.90118    22.04149    -1.22987     1.24873
  augment  2554.82201  2554.82375  2558.69677    -0.00150     0.00003     0.00006
  Kinetic  5571.43482  5584.68897  5590.66669     5.74650     0.17062     0.40755
  Fock        0.00000     0.00000     0.00000     0.00000     0.00000     0.00000
  -------------------------------------------------------------------------------------
  Total     -20.14608   -20.14607     1.87690    -0.00000     0.00000     0.00000
  in kB     -21.61691   -21.61691     2.01393    -0.00000     0.00000     0.00000
  external pressure =      -13.74 kB  Pullay stress =        0.00 kB


 VOLUME and BASIS-vectors are now :
 -----------------------------------------------------------------------------
  energy-cutoff  :      500.00
  volume of cell :     1493.16
      direct lattice vectors                 reciprocal lattice vectors
     8.813512802  0.000000000  0.000000000     0.113462137 -0.065507406  0.000000000
     4.406756909  7.632725690  0.000000000     0.000000000  0.131014796  0.000000000
     0.000000000  0.000000000 22.196203232     0.000000000  0.000000000  0.045052750

  length of vectors
     8.813512802  8.813512802 22.196203232     0.131014796  0.131014796  0.045052750


 FORCES acting on ions
    electron-ion (+dipol)            ewald-force                    non-local-force                 convergence-correction
 -----------------------------------------------------------------------------------------------
   -.195E-04 -.162E-04 0.251E+04   0.519E-04 0.434E-04 -.251E+04   0.301E-17 -.487E-18 -.903E+00   -.261E-03 -.164E-03 -.677E+00
   0.505E+00 0.526E+00 0.251E+04   -.595E+00 -.592E+00 -.251E+04   0.266E-01 0.505E-01 -.347E+00   0.611E-01 0.240E-01 -.639E+00
   -.505E+00 0.526E+00 0.251E+04   0.595E+00 -.592E+00 -.251E+04   -.266E-01 0.505E-01 -.347E+00   -.608E-01 0.260E-01 -.638E+00
   0.708E+00 0.174E+00 0.251E+04   -.810E+00 -.219E+00 -.251E+04   0.571E-01 -.222E-02 -.347E+00   0.514E-01 0.409E-01 -.639E+00
   0.968E-05 -.226E-04 0.251E+04   0.951E-04 0.172E-05 -.251E+04   -.158E-17 0.177E-18 -.267E+00   0.434E-02 0.264E-02 -.535E+00
   -.708E+00 0.174E+00 0.251E+04   0.810E+00 -.219E+00 -.251E+04   -.571E-01 -.222E-02 -.347E+00   -.530E-01 0.418E-01 -.638E+00
   0.203E+00 -.700E+00 0.251E+04   -.215E+00 0.811E+00 -.251E+04   0.305E-01 -.483E-01 -.347E+00   -.782E-02 -.656E-01 -.638E+00
   -.203E+00 -.700E+00 0.251E+04   0.215E+00 0.811E+00 -.251E+04   -.305E-01 -.483E-01 -.347E+00   0.970E-02 -.668E-01 -.638E+00
   0.193E-04 -.416E-04 0.251E+04   0.166E-03 -.201E-04 -.251E+04   0.114E-17 0.119E-17 -.547E+00   -.462E-02 -.239E-02 -.676E+00
   0.497E+01 0.287E+01 0.871E+03   -.472E+01 -.273E+01 -.870E+03   -.233E+00 -.134E+00 -.602E+00   0.221E-01 0.126E-01 -.628E-01
   0.151E-04 0.677E+01 0.881E+03   0.147E-03 -.681E+01 -.880E+03   -.212E-09 -.318E-02 -.339E+00   0.417E-02 0.284E-01 -.691E-01
   -.497E+01 0.287E+01 0.871E+03   0.472E+01 -.273E+01 -.870E+03   0.233E+00 -.134E+00 -.602E+00   -.238E-01 0.142E-01 -.622E-01
   0.586E+01 -.338E+01 0.881E+03   -.590E+01 0.341E+01 -.880E+03   -.275E-02 0.159E-02 -.339E+00   0.269E-01 -.103E-01 -.691E-01
   -.586E+01 -.338E+01 0.881E+03   0.590E+01 0.341E+01 -.880E+03   0.275E-02 0.159E-02 -.339E+00   -.189E-01 -.111E-01 -.689E-01
   0.307E-04 0.176E+01 0.872E+03   0.237E-03 -.172E+01 -.871E+03   -.874E-09 -.131E-01 -.494E+00   -.262E-02 -.380E-01 -.154E+00
   -.219E-04 -.574E+01 0.871E+03   0.163E-03 0.545E+01 -.870E+03   0.179E-07 0.269E+00 -.602E+00   0.190E-03 -.277E-01 -.622E-01
   0.153E+01 -.882E+00 0.872E+03   -.149E+01 0.861E+00 -.871E+03   -.114E-01 0.656E-02 -.494E+00   -.339E-01 0.171E-01 -.154E+00
   -.153E+01 -.882E+00 0.872E+03   0.149E+01 0.861E+00 -.871E+03   0.114E-01 0.656E-02 -.494E+00   0.342E-01 0.195E-01 -.154E+00
   -.390E-04 0.339E+01 -.805E+03   0.526E-04 -.348E+01 0.804E+03   0.976E-08 0.147E+00 0.696E+00   -.460E-02 -.430E-01 0.351E+00
   0.440E+02 0.254E+02 -.742E+03   -.435E+02 -.251E+02 0.742E+03   -.718E+00 -.415E+00 -.713E+00   0.181E+00 0.104E+00 0.582E+00
   -.440E+02 0.254E+02 -.742E+03   0.435E+02 -.251E+02 0.742E+03   0.718E+00 -.415E+00 -.713E+00   -.179E+00 0.106E+00 0.582E+00
   0.164E+02 -.947E+01 -.790E+03   -.167E+02 0.962E+01 0.789E+03   0.213E+00 -.123E+00 0.552E+00   0.901E-01 -.548E-01 0.401E+00
   -.142E-04 -.508E+02 -.742E+03   0.145E-03 0.502E+02 0.742E+03   0.552E-07 0.829E+00 -.713E+00   0.193E-02 -.207E+00 0.582E+00
   -.164E+02 -.947E+01 -.790E+03   0.167E+02 0.962E+01 0.789E+03   -.213E+00 -.123E+00 0.552E+00   -.969E-01 -.559E-01 0.401E+00
   -.294E+01 -.169E+01 -.805E+03   0.302E+01 0.174E+01 0.804E+03   -.127E+00 -.733E-01 0.696E+00   0.344E-01 0.198E-01 0.351E+00
   0.294E+01 -.169E+01 -.805E+03   -.302E+01 0.174E+01 0.804E+03   0.127E+00 -.733E-01 0.696E+00   -.393E-01 0.176E-01 0.351E+00
   0.111E-04 0.189E+02 -.790E+03   0.196E-03 -.192E+02 0.789E+03   0.164E-07 0.246E+00 0.552E+00   -.297E-02 0.105E+00 0.401E+00
   -.127E-04 -.146E-04 -.247E+04   0.301E-04 0.357E-04 0.247E+04   0.594E-17 0.271E-17 0.422E+00   -.220E-03 -.146E-03 0.499E+00
   0.452E+02 0.755E+02 -.244E+04   -.453E+02 -.758E+02 0.244E+04   -.112E+00 -.647E-01 0.103E+01   0.496E-01 0.100E+00 0.422E+00
   -.452E+02 0.755E+02 -.244E+04   0.453E+02 -.758E+02 0.244E+04   0.112E+00 -.647E-01 0.103E+01   -.490E-01 0.102E+00 0.422E+00
   0.880E+02 0.142E+01 -.244E+04   -.883E+02 -.132E+01 0.244E+04   -.112E+00 -.648E-01 0.103E+01   0.112E+00 -.728E-02 0.422E+00
   -.880E+02 0.142E+01 -.244E+04   0.883E+02 -.132E+01 0.244E+04   0.112E+00 -.648E-01 0.103E+01   -.113E+00 -.656E-02 0.421E+00
   0.428E+02 -.769E+02 -.244E+04   -.430E+02 0.771E+02 0.244E+04   0.446E-04 0.130E+00 0.103E+01   0.643E-01 -.936E-01 0.422E+00
   -.428E+02 -.769E+02 -.244E+04   0.430E+02 0.771E+02 0.244E+04   -.446E-04 0.130E+00 0.103E+01   -.624E-01 -.950E-01 0.421E+00
   0.339E-04 -.267E-04 -.247E+04   0.143E-03 -.511E-04 0.247E+04   0.840E-17 -.472E-17 0.372E+00   -.463E-02 -.238E-02 0.513E+00
   -.467E-04 -.205E-04 -.189E+04   0.105E-03 0.985E-05 0.189E+04   -.978E-18 -.188E-17 -.168E+01   0.105E-01 0.639E-02 -.791E-01
   0.195E-03 -.940E-04 -.164E+04   0.234E-04 0.155E-05 0.162E+04   -.106E-17 -.737E-18 0.223E+02   0.395E-02 0.241E-02 -.491E+00
   0.757E-05 -.133E-04 -.322E+03   0.131E-05 0.116E-06 0.331E+03   -.427E-19 -.103E-18 -.837E+01   0.218E-03 0.133E-03 0.512E-01
 -----------------------------------------------------------------------------------------------
   -.535E-03 -.868E-03 -.126E+02   0.123E-12 -.706E-13 0.762E-11   0.598E-16 0.481E-16 0.127E+02   0.401E-02 0.331E-02 0.451E+00
 
 
 POSITION                                       TOTAL-FORCE (eV/Angst)
 -----------------------------------------------------------------------------------
      0.00000      0.00000      5.28038         0.000000     -0.000000     -0.058118
      2.93784      0.00000      5.28038        -0.002012      0.009365     -0.052326
      5.87568      0.00000      5.28038         0.002012      0.009365     -0.052326
      1.46892      2.54424      5.28038         0.007104     -0.006425     -0.052326
      4.40676      2.54424      5.28038         0.000000     -0.000000     -0.065438
      7.34459      2.54424      5.28038        -0.007104     -0.006425     -0.052326
      2.93784      5.08848      5.28038         0.009116     -0.002940     -0.052326
      5.87568      5.08848      5.28038        -0.009116     -0.002940     -0.052326
      8.81351      5.08848      5.28038         0.000000     -0.000000     -0.066686
      1.46892      0.84808      7.67911         0.035894      0.020724      0.119157
      4.40676      0.84808      7.67911        -0.000000     -0.021664      0.046270
      7.34459      0.84808      7.67911        -0.035894      0.020724      0.119157
      2.93784      3.39232      7.67911        -0.018761      0.010832      0.046270
      5.87568      3.39232      7.67911         0.018761      0.010832      0.046270
      8.81351      3.39232      7.67911        -0.000000     -0.009623      0.089340
      4.40676      5.93656      7.67911        -0.000000     -0.041447      0.119157
      7.34459      5.93656      7.67911        -0.008334      0.004811      0.089340
     10.28243      5.93656      7.67911         0.008334      0.004811      0.089340
      8.81351      1.69394     10.07055         0.000000      0.010466      0.021129
      2.94670      1.70128     10.05847         0.023237      0.013416     -0.049749
      5.86681      1.70128     10.05847        -0.023237      0.013416     -0.049749
     10.27376      4.24541     10.05945         0.048999     -0.028289      0.001878
      4.40676      4.23017     10.05847        -0.000000     -0.026832     -0.049749
      7.35327      4.24541     10.05945        -0.048999     -0.028289      0.001878
     11.75328      6.78576     10.07055        -0.009064     -0.005233      0.021129
      5.87375      6.78576     10.07055         0.009064     -0.005233      0.021129
      8.81351      6.77463     10.05945         0.000000      0.056579      0.001878
      0.00000      0.00000     12.48855         0.000000     -0.000000     -0.015468
      2.97006      0.05170     12.45862        -0.122039     -0.249535     -0.109897
      5.84345      0.05170     12.45862         0.122039     -0.249535     -0.109897
      1.52981      2.54630     12.45862        -0.277123      0.019079     -0.109897
      7.28371      2.54630     12.45862         0.277123      0.019079     -0.109897
      2.96650      5.03473     12.45862        -0.155084      0.230456     -0.109897
      5.84701      5.03473     12.45862         0.155084      0.230456     -0.109897
      8.81351      5.08848     12.49203         0.000000     -0.000000      0.007001
      4.40676      2.54424     12.16149         0.000000     -0.000000      0.521068
      4.40676      2.54424     13.97009         0.000000     -0.000000      0.035425
      4.40676      2.54424     14.93558         0.000000     -0.000000     -0.068525
 -----------------------------------------------------------------------------------
    total drift:                                0.003475      0.002443      0.614236


--------------------------------------------------------------------------------------------------------



  FREE ENERGIE OF THE ION-ELECTRON SYSTEM (eV)
  ---------------------------------------------------
  free  energy   TOTEN  =      -121.13395416 eV

  energy  without entropy=     -121.13395416  energy(sigma->0) =     -121.13395416
 


--------------------------------------------------------------------------------------------------------


    POTLOK:  cpu time    0.0462: real time    0.0462


--------------------------------------------------------------------------------------------------------


 stress matrix after NEB project (eV)
    -20.14608     -0.00000      0.00000
     -0.00000    -20.14607      0.00000
     -0.00000      0.00000      1.87690
  FORCES: max atom, RMS     0.068525    0.012514
  FORCE total and by dimension    0.077140    0.068525
  Stress total and by dimension   28.552608   20.146076
     LOOP+:  cpu time   69.6803: real time   69.6914
 -----------------------------------------------------------------------------
|                                                                             |
|           W    W    AA    RRRRR   N    N  II  N    N   GGGG   !!!           |
|           W    W   A  A   R    R  NN   N  II  NN   N  G    G  !!!           |
|           W    W  A    A  R    R  N N  N  II  N N  N  G       !!!           |
|           W WW W  AAAAAA  RRRRR   N  N N  II  N  N N  G  GGG   !            |
|           WW  WW  A    A  R   R   N   NN  II  N   NN  G    G                |
|           W    W  A    A  R    R  N    N  II  N    N   GGGG   !!!           |
|                                                                             |
|     Tetrahedron method does not include variations of the Fermi             |
|     occupations, so forces and stress will be inaccurate. We suggest        |
|     using a different smearing scheme ISMEAR = 1 or 2 for metals in         |
|     relaxations.                                                            |
|                                                                             |
 -----------------------------------------------------------------------------

    4ORBIT:  cpu time    0.0000: real time    0.0000



 total charge

# of ion       s       p       d       tot
------------------------------------------
    1        0.543   0.239   8.771   9.553
    2        0.545   0.240   8.766   9.551
    3        0.545   0.240   8.766   9.551
    4        0.545   0.240   8.766   9.551
    5        0.542   0.241   8.765   9.548
    6        0.545   0.240   8.766   9.551
    7        0.545   0.240   8.766   9.551
    8        0.545   0.240   8.766   9.551
    9        0.542   0.241   8.765   9.548
   10        0.520   0.308   8.772   9.600
   11        0.520   0.308   8.775   9.603
   12        0.520   0.308   8.772   9.600
   13        0.520   0.308   8.775   9.603
   14        0.520   0.308   8.775   9.603
   15        0.516   0.308   8.778   9.602
   16        0.520   0.308   8.772   9.600
   17        0.516   0.308   8.778   9.602
   18        0.516   0.308   8.778   9.602
   19        0.513   0.304   8.773   9.590
   20        0.535   0.325   8.759   9.619
   21        0.535   0.325   8.759   9.619
   22        0.515   0.308   8.776   9.599
   23        0.535   0.325   8.759   9.619
   24        0.515   0.308   8.776   9.599
   25        0.513   0.304   8.773   9.590
   26        0.513   0.304   8.773   9.590
   27        0.515   0.308   8.776   9.599
   28        0.543   0.225   8.768   9.536
   29        0.535   0.228   8.778   9.540
   30        0.535   0.228   8.778   9.540
   31        0.535   0.228   8.778   9.540
   32        0.535   0.228   8.778   9.540
   33        0.535   0.228   8.778   9.540
   34        0.535   0.228   8.778   9.540
   35        0.541   0.227   8.764   9.532
   36        0.364   0.392   8.318   9.075
   37        1.547   3.519   0.000   5.066
   38        0.608   0.127   0.000   0.736
--------------------------------------------------
tot         21.071  13.598 315.313 349.981
 
 BZINTS: Fermi energy:    0.773407;  402.000000 electrons
         Band energy:-0.118254E+04;  BLOECHL correction:   -0.048554

 total amount of memory used by VASP MPI-rank0   122750. kBytes
=======================================================================

   base      :      30000. kBytes
   nonlr-proj:      13570. kBytes
   fftplans  :       4330. kBytes
   grid      :      18659. kBytes
   one-center:        590. kBytes
   wavefun   :      55601. kBytes
 
  
  
 General timing and accounting informations for this job:
 ========================================================
  
                  Total CPU time used (sec):       77.064
                            User time (sec):       74.141
                          System time (sec):        2.923
                         Elapsed time (sec):       77.328
  
                   Maximum memory used (kb):      380940.
                   Average memory used (kb):          N/A
  
                          Minor page faults:        73856
                          Major page faults:            0
                 Voluntary context switches:        14297
