PROCAR new format
# of k-points:   10         # of bands:  252         # of ions:   38

 k-point     1 :    0.00000000 0.00000000 0.00000000     weight = 0.01562500

band     1 # energy  -17.89220970 # occ.  2.00000000
 
ion      s      p      d    tot
    1  0.000  0.000  0.000  0.000
    2  0.000  0.000  0.000  0.000
    3  0.000  0.000  0.000  0.000
    4  0.000  0.000  0.000  0.000
    5  0.000  0.000  0.000  0.000
    6  0.000  0.000  0.000  0.000
    7  0.000  0.000  0.000  0.000
    8  0.000  0.000  0.000  0.000
    9  0.000  0.000  0.000  0.000
   10  0.000  0.000  0.000  0.000
   11  0.000  0.000  0.000  0.000
   12  0.000  0.000  0.000  0.000
   13  0.000  0.000  0.000  0.000
   14  0.000  0.000  0.000  0.000
   15  0.000  0.000  0.000  0.000
   16  0.000  0.000  0.000  0.000
   17  0.000  0.000  0.000  0.000
   18  0.000  0.000  0.000  0.000
   19  0.000  0.000  0.000  0.000
   20  0.000  0.000  0.000  0.000
   21  0.000  0.000  0.000  0.000
   22  0.000  0.000  0.000  0.000
   23  0.000  0.000  0.000  0.000
   24  0.000  0.000  0.000  0.000
   25  0.000  0.000  0.000  0.000
   26  0.000  0.000  0.000  0.000
   27  0.000  0.000  0.000  0.000
   28  0.000  0.000  0.000  0.000
   29  0.000  0.000  0.000  0.000
   30  0.000  0.000  0.000  0.000
   31  0.000  0.000  0.000  0.000
   32  0.000  0.000  0.000  0.000
   33  0.000  0.000  0.000  0.000
   34  0.000  0.000  0.000  0.000
   35  0.000  0.000  0.000  0.000
   36  0.009  0.011  0.010  0.029
   37  0.736  0.017  0.000  0.753
   38  0.119  0.024  0.000  0.143
tot    0.864  0.053  0.010  0.926
 
band     2 # energy   -8.03149386 # occ.  2.00000000
 
ion      s      p      d    tot
    1  0.007  0.001  0.000  0.007
    2  0.006  0.001  0.000  0.007
    3  0.006  0.001  0.000  0.007
    4  0.006  0.001  0.000  0.007
    5  0.006  0.001  0.000  0.007
    6  0.006  0.001  0.000  0.007
    7  0.006  0.001  0.000  0.007
    8  0.006  0.001  0.000  0.007
    9  0.007  0.001  0.000  0.007
   10  0.026  0.000  0.000  0.027
   11  0.027  0.000  0.000  0.027
   12  0.026  0.000  0.000  0.027
   13  0.027  0.000  0.000  0.027
   14  0.027  0.000  0.000  0.027
   15  0.027  0.000  0.000  0.027
   16  0.026  0.000  0.000  0.027
   17  0.027  0.000  0.000  0.027
   18  0.027  0.000  0.000  0.027
   19  0.024  0.000  0.000  0.024
   20  0.025  0.000  0.000  0.026
   21  0.025  0.000  0.000  0.026
   22  0.025  0.000  0.000  0.025
   23  0.025  0.000  0.000  0.026
   24  0.025  0.000  0.000  0.025
   25  0.024  0.000  0.000  0.024
   26  0.024  0.000  0.000  0.024
   27  0.025  0.000  0.000  0.025
   28  0.005  0.000  0.000  0.005
   29  0.005  0.000  0.000  0.005
   30  0.005  0.000  0.000  0.005
   31  0.005  0.000  0.000  0.005
   32  0.005  0.000  0.000  0.005
   33  0.005  0.000  0.000  0.005
   34  0.005  0.000  0.000  0.005
   35  0.005  0.000  0.000  0.005
   36  0.006  0.000  0.000  0.006
   37  0.000  0.003  0.000  0.003
   38  0.001  0.000  0.000  0.001
tot    0.565  0.014  0.004  0.582
 
band     3 # energy   -6.90544618 # occ.  2.00000000
 
ion      s      p      d    tot
    1  0.013  0.000  0.001  0.015
    2  0.014  0.000  0.001  0.015
    3  0.014  0.000  0.001  0.015
    4  0.014  0.000  0.001  0.015
    5  0.013  0.000  0.001  0.015
    6  0.014  0.000  0.001  0.015
    7  0.014  0.000  0.001  0.015
    8  0.014  0.000  0.001  0.015
    9  0.014  0.000  0.001  0.015
   10  0.009  0.001  0.002  0.013
   11  0.009  0.001  0.002  0.012
   12  0.009  0.001  0.002  0.013
   13  0.009  0.001  0.002  0.012
   14  0.009  0.001  0.002  0.012
   15  0.010  0.001  0.002  0.013
   16  0.009  0.001  0.002  0.013
   17  0.010  0.001  0.002  0.013
   18  0.010  0.001  0.002  0.013
   19  0.009  0.001  0.002  0.012
   20  0.013  0.001  0.003  0.017
   21  0.013  0.001  0.003  0.017
   22  0.009  0.001  0.002  0.012
   23  0.013  0.001  0.003  0.017
   24  0.009  0.001  0.002  0.012
   25  0.009  0.001  0.002  0.012
   26  0.009  0.001  0.002  0.012
   27  0.009  0.001  0.002  0.012
   28  0.011  0.000  0.001  0.011
   29  0.013  0.000  0.001  0.014
   30  0.013  0.000  0.001  0.014
   31  0.013  0.000  0.001  0.014
   32  0.013  0.000  0.001  0.014
   33  0.013  0.000  0.001  0.014
   34  0.013  0.000  0.001  0.014
   35  0.010  0.000  0.001  0.011
   36  0.034  0.003  0.011  0.047
   37  0.002  0.088  0.000  0.090
   38  0.031  0.003  0.000  0.034
tot    0.466  0.120  0.063  0.650
 
band     4 # energy   -6.49488369 # occ.  2.00000000
 
ion      s      p      d    tot
    1  0.005  0.000  0.000  0.006
    2  0.004  0.000  0.001  0.005
    3  0.004  0.000  0.001  0.005
    4  0.004  0.000  0.001  0.005
    5  0.004  0.000  0.001  0.005
    6  0.004  0.000  0.001  0.005
    7  0.004  0.000  0.001  0.005
    8  0.004  0.000  0.001  0.005
    9  0.003  0.000  0.001  0.004
   10  0.001  0.000  0.001  0.002
   11  0.001  0.000  0.001  0.002
   12  0.001  0.000  0.001  0.002
   13  0.001  0.000  0.001  0.002
   14  0.001  0.000  0.001  0.002
   15  0.000  0.001  0.001  0.002
   16  0.001  0.000  0.001  0.002
   17  0.000  0.001  0.001  0.002
   18  0.000  0.001  0.001  0.002
   19  0.008  0.000  0.003  0.012
   20  0.001  0.000  0.007  0.009
   21  0.001  0.000  0.007  0.009
   22  0.011  0.000  0.002  0.013
   23  0.001  0.000  0.007  0.009
   24  0.011  0.000  0.002  0.013
   25  0.008  0.000  0.003  0.012
   26  0.008  0.000  0.003  0.012
   27  0.011  0.000  0.002  0.013
   28  0.002  0.000  0.000  0.003
   29  0.000  0.001  0.003  0.003
   30  0.000  0.001  0.003  0.003
   31  0.000  0.001  0.003  0.003
   32  0.000  0.001  0.003  0.003
   33  0.000  0.001  0.003  0.003
   34  0.000  0.001  0.003  0.003
   35  0.003  0.000  0.000  0.003
   36  0.048  0.027  0.061  0.136
   37  0.018  0.364  0.000  0.382
   38  0.123  0.012  0.000  0.136
tot    0.302  0.415  0.126  0.843
 
band     5 # energy   -5.89603694 # occ.  2.00000000
 
ion      s      p      d    tot
    1  0.015  0.000  0.022  0.038
    2  0.019  0.000  0.019  0.038
    3  0.019  0.000  0.019  0.038
    4  0.019  0.000  0.019  0.038
    5  0.014  0.000  0.019  0.033
    6  0.019  0.000  0.019  0.038
    7  0.019  0.000  0.019  0.038
    8  0.019  0.000  0.019  0.038
    9  0.031  0.000  0.016  0.046
   10  0.010  0.001  0.023  0.034
   11  0.015  0.001  0.021  0.037
   12  0.010  0.001  0.023  0.034
   13  0.015  0.001  0.021  0.037
   14  0.015  0.001  0.021  0.037
   15  0.001  0.000  0.028  0.029
   16  0.010  0.001  0.023  0.034
   17  0.001  0.000  0.028  0.029
   18  0.001  0.000  0.028  0.029
   19  0.001  0.000  0.004  0.005
   20  0.001  0.001  0.005  0.007
   21  0.001  0.001  0.005  0.007
   22  0.002  0.001  0.002  0.005
   23  0.001  0.001  0.005  0.007
   24  0.002  0.001  0.002  0.005
   25  0.001  0.000  0.004  0.005
   26  0.001  0.000  0.004  0.005
   27  0.002  0.001  0.002  0.005
   28  0.003  0.000  0.000  0.003
   29  0.001  0.000  0.001  0.002
   30  0.001  0.000  0.001  0.002
   31  0.001  0.000  0.001  0.002
   32  0.001  0.000  0.001  0.002
   33  0.001  0.000  0.001  0.002
   34  0.001  0.000  0.001  0.002
   35  0.003  0.000  0.000  0.003
   36  0.000  0.000  0.000  0.000
   37  0.000  0.000  0.000  0.000
   38  0.000  0.000  0.000  0.000
tot    0.281  0.013  0.426  0.720
 
band     6 # energy   -5.86597335 # occ.  2.00000000
 
ion      s      p      d    tot
    1  0.000  0.000  0.003  0.003
    2  0.008  0.001  0.004  0.013
    3  0.003  0.001  0.003  0.006
    4  0.008  0.001  0.004  0.013
    5  0.000  0.001  0.010  0.011
    6  0.001  0.000  0.004  0.005
    7  0.003  0.001  0.003  0.006
    8  0.001  0.000  0.004  0.005
    9  0.000  0.001  0.004  0.004
   10  0.000  0.002  0.019  0.021
   11  0.043  0.002  0.014  0.059
   12  0.004  0.001  0.012  0.017
   13  0.044  0.002  0.014  0.059
   14  0.000  0.001  0.043  0.044
   15  0.022  0.001  0.014  0.037
   16  0.004  0.001  0.012  0.017
   17  0.022  0.001  0.014  0.037
   18  0.000  0.005  0.007  0.012
   19  0.001  0.001  0.010  0.012
   20  0.000  0.004  0.013  0.017
   21  0.026  0.001  0.013  0.041
   22  0.035  0.002  0.012  0.049
   23  0.026  0.001  0.013  0.041
   24  0.000  0.000  0.040  0.040
   25  0.000  0.002  0.011  0.013
   26  0.001  0.001  0.010  0.012
   27  0.035  0.002  0.013  0.049
   28  0.000  0.000  0.002  0.002
   29  0.001  0.000  0.002  0.004
   30  0.007  0.001  0.003  0.011
   31  0.001  0.000  0.002  0.004
   32  0.002  0.001  0.003  0.005
   33  0.007  0.001  0.003  0.011
   34  0.002  0.001  0.003  0.005
   35  0.000  0.001  0.007  0.008
   36  0.000  0.001  0.001  0.002
   37  0.000  0.000  0.000  0.000
   38  0.000  0.000  0.000  0.000
tot    0.306  0.042  0.346  0.694
 
band     7 # energy   -5.86591412 # occ.  2.00000000
 
ion      s      p      d    tot
    1  0.000  0.000  0.004  0.004
    2  0.000  0.000  0.003  0.003
    3  0.005  0.001  0.004  0.010
    4  0.000  0.000  0.003  0.003
    5  0.000  0.001  0.010  0.011
    6  0.007  0.001  0.003  0.011
    7  0.005  0.001  0.004  0.010
    8  0.007  0.001  0.003  0.011
    9  0.000  0.001  0.004  0.004
   10  0.005  0.001  0.009  0.015
   11  0.015  0.001  0.033  0.049
   12  0.001  0.002  0.017  0.020
   13  0.015  0.001  0.033  0.049
   14  0.058  0.002  0.004  0.064
   15  0.007  0.003  0.009  0.020
   16  0.001  0.002  0.017  0.020
   17  0.007  0.003  0.009  0.020
   18  0.030  0.000  0.016  0.046
   19  0.000  0.002  0.011  0.013
   20  0.035  0.000  0.014  0.049
   21  0.009  0.003  0.013  0.024
   22  0.012  0.001  0.031  0.043
   23  0.009  0.003  0.013  0.025
   24  0.046  0.002  0.003  0.052
   25  0.001  0.001  0.010  0.012
   26  0.000  0.002  0.011  0.013
   27  0.012  0.001  0.031  0.043
   28  0.000  0.000  0.002  0.002
   29  0.005  0.001  0.003  0.009
   30  0.000  0.000  0.002  0.003
   31  0.005  0.001  0.003  0.009
   32  0.005  0.001  0.002  0.008
   33  0.000  0.000  0.002  0.003
   34  0.005  0.001  0.002  0.008
   35  0.000  0.001  0.007  0.008
   36  0.000  0.001  0.001  0.002
   37  0.000  0.000  0.000  0.000
   38  0.000  0.000  0.000  0.000
tot    0.306  0.042  0.346  0.694
 
band     8 # energy   -5.86099111 # occ.  2.00000000
 
ion      s      p      d    tot
    1  0.019  0.002  0.001  0.021
    2  0.000  0.001  0.006  0.007
    3  0.000  0.001  0.006  0.007
    4  0.000  0.001  0.006  0.007
    5  0.001  0.000  0.003  0.005
    6  0.000  0.001  0.006  0.007
    7  0.000  0.001  0.006  0.007
    8  0.000  0.001  0.006  0.007
    9  0.003  0.001  0.001  0.004
   10  0.023  0.001  0.017  0.042
   11  0.004  0.000  0.027  0.031
   12  0.023  0.001  0.017  0.041
   13  0.004  0.000  0.027  0.031
   14  0.004  0.000  0.027  0.032
   15  0.018  0.003  0.006  0.027
   16  0.023  0.001  0.017  0.041
   17  0.018  0.003  0.006  0.027
   18  0.018  0.003  0.006  0.026
   19  0.017  0.003  0.006  0.026
   20  0.005  0.000  0.024  0.029
   21  0.004  0.000  0.024  0.029
   22  0.019  0.001  0.016  0.036
   23  0.004  0.000  0.024  0.029
   24  0.019  0.001  0.016  0.037
   25  0.017  0.003  0.006  0.026
   26  0.017  0.003  0.006  0.026
   27  0.019  0.001  0.016  0.036
   28  0.002  0.001  0.001  0.003
   29  0.000  0.000  0.004  0.005
   30  0.000  0.000  0.004  0.005
   31  0.000  0.000  0.004  0.005
   32  0.000  0.000  0.004  0.005
   33  0.000  0.000  0.004  0.005
   34  0.000  0.000  0.004  0.005
   35  0.013  0.001  0.000  0.014
   36  0.000  0.002  0.000  0.002
   37  0.000  0.005  0.000  0.005
   38  0.002  0.000  0.000  0.002
tot    0.299  0.047  0.353  0.698
 
band     9 # energy   -5.85420931 # occ.  2.00000000
 
ion      s      p      d    tot
    1  0.000  0.000  0.000  0.001
    2  0.001  0.001  0.006  0.008
    3  0.001  0.001  0.007  0.008
    4  0.001  0.001  0.006  0.008
    5  0.020  0.001  0.000  0.022
    6  0.001  0.001  0.007  0.008
    7  0.001  0.001  0.007  0.008
    8  0.001  0.001  0.007  0.008
    9  0.004  0.001  0.006  0.011
   10  0.006  0.002  0.017  0.025
   11  0.020  0.003  0.011  0.033
   12  0.006  0.002  0.017  0.025
   13  0.020  0.003  0.011  0.033
   14  0.020  0.003  0.011  0.034
   15  0.019  0.000  0.025  0.044
   16  0.006  0.002  0.017  0.025
   17  0.019  0.000  0.025  0.044
   18  0.020  0.000  0.025  0.045
   19  0.009  0.000  0.023  0.032
   20  0.027  0.003  0.003  0.033
   21  0.027  0.003  0.003  0.033
   22  0.000  0.001  0.020  0.022
   23  0.027  0.003  0.003  0.033
   24  0.000  0.001  0.020  0.022
   25  0.010  0.000  0.023  0.033
   26  0.009  0.000  0.023  0.032
   27  0.000  0.001  0.020  0.022
   28  0.011  0.001  0.000  0.012
   29  0.000  0.000  0.004  0.005
   30  0.000  0.000  0.004  0.005
   31  0.000  0.000  0.004  0.005
   32  0.000  0.000  0.004  0.005
   33  0.000  0.000  0.004  0.005
   34  0.000  0.000  0.004  0.005
   35  0.000  0.000  0.002  0.002
   36  0.001  0.003  0.000  0.004
   37  0.000  0.004  0.000  0.005
   38  0.002  0.000  0.000  0.002
tot    0.290  0.043  0.372  0.705
 
band    10 # energy   -5.84263242 # occ.  2.00000000
 
ion      s      p      d    tot
    1  0.000  0.001  0.009  0.010
    2  0.008  0.001  0.004  0.014
    3  0.003  0.001  0.003  0.007
    4  0.008  0.001  0.004  0.014
    5  0.000  0.000  0.001  0.002
    6  0.001  0.000  0.004  0.005
    7  0.003  0.001  0.003  0.007
    8  0.001  0.000  0.004  0.005
    9  0.000  0.000  0.009  0.009
   10  0.059  0.001  0.011  0.071
   11  0.001  0.003  0.007  0.011
   12  0.015  0.002  0.022  0.040
   13  0.001  0.003  0.007  0.011
   14  0.004  0.000  0.016  0.020
   15  0.009  0.001  0.033  0.042
   16  0.015  0.002  0.022  0.040
   17  0.009  0.001  0.033  0.042
   18  0.034  0.002  0.003  0.040
   19  0.013  0.002  0.024  0.038
   20  0.021  0.002  0.005  0.027
   21  0.005  0.001  0.024  0.030
   22  0.002  0.003  0.007  0.011
   23  0.005  0.001  0.024  0.030
   24  0.007  0.000  0.014  0.022
   25  0.051  0.001  0.007  0.059
   26  0.012  0.002  0.024  0.038
   27  0.002  0.003  0.007  0.011
   28  0.000  0.001  0.006  0.007
   29  0.001  0.000  0.002  0.003
   30  0.004  0.001  0.002  0.007
   31  0.001  0.000  0.002  0.003
   32  0.001  0.000  0.002  0.004
   33  0.004  0.001  0.002  0.007
   34  0.001  0.000  0.002  0.004
   35  0.000  0.000  0.001  0.001
   36  0.000  0.000  0.001  0.001
   37  0.000  0.000  0.000  0.000
   38  0.000  0.000  0.000  0.000
tot    0.301  0.042  0.349  0.693
 
band    11 # energy   -5.84256345 # occ.  2.00000000
 
ion      s      p      d    tot
    1  0.000  0.001  0.009  0.010
    2  0.000  0.000  0.003  0.004
    3  0.005  0.001  0.004  0.010
    4  0.000  0.000  0.003  0.004
    5  0.000  0.000  0.001  0.002
    6  0.007  0.001  0.004  0.012
    7  0.005  0.001  0.004  0.010
    8  0.007  0.001  0.004  0.012
    9  0.000  0.000  0.009  0.009
   10  0.000  0.003  0.026  0.029
   11  0.003  0.001  0.013  0.017
   12  0.044  0.001  0.015  0.061
   13  0.003  0.001  0.013  0.017
   14  0.000  0.004  0.004  0.008
   15  0.026  0.001  0.013  0.040
   16  0.044  0.001  0.015  0.060
   17  0.026  0.001  0.013  0.040
   18  0.000  0.000  0.043  0.043
   19  0.038  0.002  0.013  0.052
   20  0.000  0.000  0.030  0.030
   21  0.016  0.001  0.011  0.028
   22  0.005  0.001  0.012  0.018
   23  0.016  0.001  0.011  0.028
   24  0.000  0.004  0.004  0.008
   25  0.000  0.002  0.029  0.031
   26  0.038  0.002  0.012  0.052
   27  0.005  0.001  0.012  0.018
   28  0.000  0.001  0.006  0.007
   29  0.003  0.001  0.003  0.007
   30  0.000  0.000  0.002  0.002
   31  0.003  0.001  0.003  0.007
   32  0.003  0.001  0.002  0.006
   33  0.000  0.000  0.002  0.002
   34  0.003  0.001  0.002  0.006
   35  0.000  0.000  0.001  0.001
   36  0.000  0.000  0.001  0.001
   37  0.000  0.000  0.000  0.000
   38  0.000  0.000  0.000  0.000
tot    0.301  0.042  0.349  0.693
 
band    12 # energy   -5.65075363 # occ.  2.00000000
 
ion      s      p      d    tot
    1  0.001  0.000  0.000  0.001
    2  0.001  0.000  0.001  0.002
    3  0.001  0.000  0.001  0.002
    4  0.001  0.000  0.001  0.002
    5  0.003  0.000  0.000  0.003
    6  0.001  0.000  0.001  0.002
    7  0.001  0.000  0.001  0.002
    8  0.001  0.000  0.001  0.002
    9  0.000  0.000  0.001  0.002
   10  0.000  0.000  0.004  0.004
   11  0.001  0.001  0.001  0.003
   12  0.000  0.000  0.004  0.004
   13  0.001  0.001  0.001  0.003
   14  0.001  0.001  0.001  0.003
   15  0.004  0.000  0.004  0.008
   16  0.000  0.000  0.004  0.004
   17  0.004  0.000  0.004  0.008
   18  0.004  0.000  0.004  0.008
   19  0.002  0.001  0.016  0.020
   20  0.002  0.000  0.023  0.025
   21  0.002  0.000  0.023  0.025
   22  0.008  0.002  0.025  0.034
   23  0.002  0.000  0.023  0.025
   24  0.008  0.002  0.025  0.034
   25  0.002  0.001  0.016  0.020
   26  0.002  0.001  0.016  0.020
   27  0.008  0.002  0.025  0.034
   28  0.034  0.000  0.021  0.055
   29  0.023  0.000  0.022  0.045
   30  0.023  0.000  0.022  0.045
   31  0.023  0.000  0.022  0.045
   32  0.023  0.000  0.022  0.045
   33  0.023  0.000  0.022  0.045
   34  0.023  0.000  0.022  0.045
   35  0.032  0.000  0.023  0.055
   36  0.000  0.001  0.016  0.017
   37  0.002  0.019  0.000  0.021
   38  0.006  0.000  0.000  0.006
tot    0.272  0.035  0.417  0.725
 
band    13 # energy   -5.38566984 # occ.  2.00000000
 
ion      s      p      d    tot
    1  0.015  0.002  0.002  0.019
    2  0.000  0.001  0.009  0.010
    3  0.000  0.001  0.009  0.010
    4  0.000  0.001  0.009  0.010
    5  0.000  0.000  0.002  0.002
    6  0.000  0.001  0.009  0.010
    7  0.000  0.001  0.009  0.010
    8  0.000  0.001  0.009  0.010
    9  0.017  0.001  0.000  0.019
   10  0.010  0.002  0.012  0.024
   11  0.003  0.000  0.042  0.045
   12  0.010  0.002  0.012  0.024
   13  0.003  0.000  0.042  0.045
   14  0.003  0.000  0.042  0.045
   15  0.003  0.001  0.027  0.031
   16  0.010  0.002  0.012  0.024
   17  0.003  0.001  0.027  0.031
   18  0.003  0.001  0.027  0.031
   19  0.005  0.001  0.013  0.019
   20  0.001  0.000  0.045  0.047
   21  0.001  0.000  0.045  0.046
   22  0.011  0.001  0.019  0.032
   23  0.001  0.000  0.045  0.046
   24  0.011  0.001  0.019  0.032
   25  0.005  0.001  0.013  0.019
   26  0.005  0.001  0.013  0.019
   27  0.011  0.001  0.019  0.032
   28  0.009  0.001  0.001  0.012
   29  0.000  0.001  0.005  0.006
   30  0.000  0.001  0.005  0.006
   31  0.000  0.001  0.005  0.006
   32  0.000  0.001  0.005  0.006
   33  0.000  0.001  0.005  0.006
   34  0.000  0.001  0.005  0.006
   35  0.011  0.001  0.002  0.014
   36  0.000  0.000  0.001  0.001
   37  0.000  0.000  0.000  0.000
   38  0.000  0.000  0.000  0.000
tot    0.154  0.029  0.567  0.751
 
band    14 # energy   -5.37528107 # occ.  2.00000000
 
ion      s      p      d    tot
    1  0.000  0.001  0.004  0.005
    2  0.009  0.001  0.004  0.015
    3  0.001  0.000  0.004  0.006
    4  0.009  0.001  0.004  0.015
    5  0.000  0.001  0.012  0.013
    6  0.003  0.001  0.005  0.009
    7  0.002  0.000  0.004  0.006
    8  0.003  0.001  0.005  0.010
    9  0.000  0.000  0.008  0.008
   10  0.010  0.002  0.008  0.020
   11  0.005  0.000  0.040  0.045
   12  0.002  0.001  0.042  0.045
   13  0.004  0.000  0.040  0.045
   14  0.019  0.001  0.012  0.032
   15  0.000  0.001  0.014  0.015
   16  0.003  0.001  0.041  0.045
   17  0.000  0.001  0.013  0.015
   18  0.001  0.000  0.024  0.025
   19  0.003  0.001  0.017  0.021
   20  0.024  0.002  0.006  0.032
   21  0.006  0.000  0.051  0.057
   22  0.001  0.001  0.028  0.030
   23  0.006  0.000  0.050  0.056
   24  0.002  0.001  0.015  0.018
   25  0.012  0.000  0.021  0.033
   26  0.003  0.001  0.017  0.021
   27  0.001  0.001  0.028  0.030
   28  0.000  0.001  0.009  0.009
   29  0.009  0.001  0.004  0.014
   30  0.000  0.001  0.004  0.005
   31  0.009  0.001  0.004  0.014
   32  0.005  0.001  0.003  0.010
   33  0.000  0.001  0.004  0.005
   34  0.006  0.001  0.003  0.010
   35  0.000  0.000  0.004  0.004
   36  0.000  0.002  0.001  0.003
   37  0.000  0.000  0.000  0.000
   38  0.000  0.000  0.000  0.000
tot    0.160  0.032  0.556  0.747
 
band    15 # energy   -5.37527737 # occ.  2.00000000
 
ion      s      p      d    tot
    1  0.000  0.001  0.004  0.005
    2  0.000  0.000  0.005  0.006
    3  0.008  0.001  0.005  0.014
    4  0.000  0.000  0.005  0.006
    5  0.000  0.001  0.012  0.013
    6  0.006  0.001  0.004  0.011
    7  0.008  0.001  0.005  0.014
    8  0.006  0.001  0.004  0.011
    9  0.000  0.000  0.008  0.008
   10  0.000  0.001  0.053  0.054
   11  0.014  0.001  0.022  0.037
   12  0.008  0.002  0.018  0.028
   13  0.014  0.001  0.021  0.036
   14  0.000  0.000  0.049  0.049
   15  0.001  0.001  0.020  0.022
   16  0.007  0.002  0.019  0.028
   17  0.001  0.001  0.021  0.022
   18  0.000  0.001  0.010  0.012
   19  0.009  0.000  0.020  0.029
   20  0.000  0.000  0.065  0.065
   21  0.018  0.001  0.020  0.040
   22  0.002  0.001  0.019  0.022
   23  0.018  0.001  0.022  0.040
   24  0.000  0.001  0.033  0.034
   25  0.000  0.001  0.016  0.017
   26  0.009  0.000  0.020  0.029
   27  0.002  0.001  0.019  0.022
   28  0.000  0.001  0.009  0.009
   29  0.001  0.000  0.004  0.005
   30  0.009  0.001  0.003  0.014
   31  0.001  0.000  0.004  0.005
   32  0.004  0.001  0.004  0.010
   33  0.009  0.001  0.003  0.014
   34  0.004  0.001  0.004  0.010
   35  0.000  0.000  0.004  0.004
   36  0.000  0.002  0.001  0.003
   37  0.000  0.000  0.000  0.000
   38  0.000  0.000  0.000  0.000
tot    0.160  0.032  0.556  0.747
 
band    16 # energy   -5.35315519 # occ.  2.00000000
 
ion      s      p      d    tot
    1  0.000  0.001  0.014  0.015
    2  0.010  0.001  0.005  0.016
    3  0.002  0.000  0.005  0.008
    4  0.010  0.001  0.005  0.016
    5  0.000  0.000  0.005  0.005
    6  0.003  0.001  0.006  0.009
    7  0.003  0.000  0.005  0.008
    8  0.003  0.001  0.006  0.009
    9  0.000  0.001  0.008  0.010
   10  0.000  0.001  0.024  0.025
   11  0.001  0.001  0.020  0.022
   12  0.006  0.000  0.023  0.029
   13  0.001  0.001  0.020  0.022
   14  0.000  0.001  0.025  0.026
   15  0.012  0.002  0.022  0.036
   16  0.006  0.000  0.023  0.029
   17  0.013  0.002  0.021  0.036
   18  0.000  0.000  0.066  0.066
   19  0.011  0.001  0.020  0.032
   20  0.000  0.002  0.015  0.016
   21  0.001  0.000  0.020  0.022
   22  0.019  0.001  0.021  0.041
   23  0.001  0.000  0.020  0.022
   24  0.000  0.000  0.039  0.039
   25  0.000  0.000  0.064  0.065
   26  0.011  0.001  0.020  0.032
   27  0.019  0.001  0.021  0.041
   28  0.000  0.001  0.004  0.004
   29  0.006  0.001  0.004  0.011
   30  0.000  0.000  0.004  0.005
   31  0.006  0.001  0.004  0.011
   32  0.003  0.001  0.002  0.005
   33  0.001  0.000  0.004  0.005
   34  0.003  0.001  0.002  0.005
   35  0.000  0.001  0.008  0.009
   36  0.000  0.000  0.000  0.001
   37  0.000  0.000  0.000  0.000
   38  0.000  0.000  0.000  0.000
tot    0.150  0.029  0.573  0.752
 
band    17 # energy   -5.35313119 # occ.  2.00000000
 
ion      s      p      d    tot
    1  0.000  0.001  0.014  0.015
    2  0.000  0.000  0.005  0.006
    3  0.008  0.001  0.005  0.014
    4  0.000  0.000  0.005  0.006
    5  0.000  0.000  0.005  0.005
    6  0.008  0.001  0.005  0.013
    7  0.008  0.001  0.005  0.014
    8  0.008  0.001  0.005  0.013
    9  0.000  0.001  0.008  0.010
   10  0.008  0.000  0.022  0.030
   11  0.000  0.001  0.023  0.025
   12  0.002  0.001  0.024  0.027
   13  0.000  0.001  0.023  0.025
   14  0.002  0.001  0.018  0.021
   15  0.004  0.001  0.051  0.056
   16  0.002  0.001  0.024  0.027
   17  0.004  0.001  0.052  0.056
   18  0.017  0.002  0.007  0.026
   19  0.004  0.001  0.049  0.054
   20  0.001  0.000  0.022  0.023
   21  0.000  0.001  0.017  0.018
   22  0.006  0.000  0.033  0.039
   23  0.000  0.001  0.017  0.018
   24  0.025  0.001  0.015  0.041
   25  0.015  0.001  0.005  0.021
   26  0.004  0.001  0.049  0.054
   27  0.006  0.000  0.033  0.039
   28  0.000  0.001  0.004  0.004
   29  0.000  0.000  0.003  0.003
   30  0.006  0.001  0.003  0.009
   31  0.000  0.000  0.003  0.003
   32  0.003  0.001  0.005  0.009
   33  0.005  0.001  0.003  0.009
   34  0.003  0.001  0.005  0.009
   35  0.000  0.001  0.008  0.009
   36  0.000  0.000  0.000  0.001
   37  0.000  0.000  0.000  0.000
   38  0.000  0.000  0.000  0.000
tot    0.150  0.029  0.573  0.752
 
band    18 # energy   -5.33585525 # occ.  2.00000000
 
ion      s      p      d    tot
    1  0.010  0.000  0.001  0.011
    2  0.000  0.001  0.009  0.009
    3  0.000  0.001  0.009  0.009
    4  0.000  0.001  0.009  0.009
    5  0.018  0.002  0.001  0.020
    6  0.000  0.001  0.009  0.009
    7  0.000  0.001  0.009  0.009
    8  0.000  0.001  0.009  0.009
    9  0.002  0.000  0.002  0.004
   10  0.000  0.000  0.041  0.042
   11  0.006  0.001  0.014  0.021
   12  0.000  0.000  0.041  0.042
   13  0.006  0.001  0.014  0.021
   14  0.006  0.001  0.014  0.021
   15  0.005  0.001  0.025  0.031
   16  0.000  0.000  0.041  0.042
   17  0.005  0.001  0.025  0.031
   18  0.005  0.001  0.025  0.031
   19  0.008  0.000  0.048  0.056
   20  0.011  0.001  0.005  0.017
   21  0.011  0.001  0.005  0.017
   22  0.001  0.000  0.034  0.035
   23  0.011  0.001  0.005  0.017
   24  0.001  0.000  0.034  0.035
   25  0.008  0.000  0.048  0.056
   26  0.008  0.000  0.048  0.056
   27  0.001  0.000  0.034  0.035
   28  0.000  0.000  0.008  0.008
   29  0.001  0.000  0.005  0.006
   30  0.001  0.000  0.005  0.006
   31  0.001  0.000  0.005  0.006
   32  0.001  0.000  0.005  0.006
   33  0.001  0.000  0.005  0.006
   34  0.001  0.000  0.005  0.006
   35  0.001  0.000  0.001  0.002
   36  0.004  0.006  0.001  0.011
   37  0.001  0.009  0.000  0.010
   38  0.003  0.000  0.000  0.003
tot    0.134  0.037  0.598  0.769
 
band    19 # energy   -4.99777800 # occ.  2.00000000
 
ion      s      p      d    tot
    1  0.000  0.001  0.015  0.015
    2  0.011  0.001  0.012  0.024
    3  0.002  0.001  0.010  0.013
    4  0.011  0.001  0.012  0.024
    5  0.000  0.000  0.033  0.033
    6  0.004  0.000  0.016  0.020
    7  0.002  0.001  0.011  0.013
    8  0.003  0.000  0.016  0.020
    9  0.000  0.002  0.011  0.012
   10  0.000  0.000  0.006  0.006
   11  0.000  0.000  0.036  0.037
   12  0.000  0.000  0.015  0.015
   13  0.000  0.000  0.036  0.037
   14  0.000  0.000  0.039  0.039
   15  0.000  0.000  0.050  0.051
   16  0.000  0.000  0.015  0.015
   17  0.000  0.000  0.050  0.050
   18  0.000  0.000  0.040  0.040
   19  0.001  0.000  0.011  0.012
   20  0.000  0.000  0.018  0.018
   21  0.001  0.000  0.029  0.030
   22  0.000  0.000  0.042  0.042
   23  0.001  0.000  0.029  0.030
   24  0.000  0.000  0.034  0.034
   25  0.000  0.000  0.012  0.012
   26  0.001  0.000  0.011  0.012
   27  0.000  0.000  0.042  0.042
   28  0.000  0.000  0.015  0.015
   29  0.004  0.001  0.006  0.011
   30  0.010  0.001  0.010  0.020
   31  0.004  0.001  0.006  0.011
   32  0.001  0.000  0.010  0.011
   33  0.010  0.001  0.010  0.020
   34  0.001  0.000  0.010  0.011
   35  0.000  0.001  0.019  0.019
   36  0.000  0.002  0.001  0.002
   37  0.000  0.000  0.000  0.000
   38  0.000  0.000  0.000  0.000
tot    0.069  0.016  0.738  0.822
 
band    20 # energy   -4.99777576 # occ.  2.00000000
 
ion      s      p      d    tot
    1  0.000  0.001  0.015  0.015
    2  0.000  0.000  0.014  0.014
    3  0.009  0.001  0.016  0.025
    4  0.000  0.000  0.014  0.014
    5  0.000  0.000  0.033  0.033
    6  0.008  0.001  0.010  0.018
    7  0.009  0.001  0.016  0.025
    8  0.008  0.001  0.010  0.018
    9  0.000  0.002  0.011  0.012
   10  0.000  0.000  0.018  0.018
   11  0.000  0.000  0.038  0.038
   12  0.000  0.000  0.009  0.009
   13  0.000  0.000  0.038  0.038
   14  0.000  0.001  0.035  0.036
   15  0.000  0.000  0.043  0.043
   16  0.000  0.000  0.009  0.009
   17  0.000  0.000  0.043  0.043
   18  0.000  0.000  0.053  0.054
   19  0.000  0.000  0.012  0.012
   20  0.001  0.000  0.033  0.034
   21  0.000  0.000  0.022  0.022
   22  0.000  0.000  0.036  0.037
   23  0.000  0.000  0.022  0.022
   24  0.000  0.000  0.044  0.045
   25  0.001  0.000  0.011  0.012
   26  0.000  0.000  0.012  0.012
   27  0.000  0.000  0.036  0.037
   28  0.000  0.000  0.015  0.015
   29  0.006  0.000  0.011  0.017
   30  0.000  0.001  0.007  0.008
   31  0.006  0.000  0.011  0.017
   32  0.009  0.001  0.008  0.017
   33  0.000  0.001  0.007  0.008
   34  0.009  0.001  0.008  0.017
   35  0.000  0.001  0.019  0.019
   36  0.000  0.002  0.001  0.002
   37  0.000  0.000  0.000  0.000
   38  0.000  0.000  0.000  0.000
tot    0.069  0.016  0.738  0.822
 
band    21 # energy   -4.98367948 # occ.  2.00000000
 
ion      s      p      d    tot
    1  0.021  0.001  0.001  0.023
    2  0.000  0.001  0.019  0.020
    3  0.000  0.001  0.019  0.020
    4  0.000  0.001  0.019  0.020
    5  0.015  0.000  0.014  0.028
    6  0.000  0.001  0.019  0.020
    7  0.000  0.001  0.019  0.020
    8  0.000  0.001  0.019  0.020
    9  0.001  0.000  0.007  0.009
   10  0.000  0.000  0.030  0.031
   11  0.000  0.000  0.037  0.037
   12  0.000  0.000  0.030  0.031
   13  0.000  0.000  0.037  0.037
   14  0.000  0.000  0.037  0.037
   15  0.000  0.000  0.040  0.041
   16  0.000  0.000  0.030  0.031