PROCAR new format
# of k-points:   10         # of bands:  252         # of ions:   39

 k-point     1 :    0.00000000 0.00000000 0.00000000     weight = 0.01562500

band     1 # energy  -54.68530282 # occ.  2.00000000
 
ion      s      p      d    tot
    1  0.000  0.000  0.000  0.000
    2  0.000  0.000  0.000  0.000
    3  0.000  0.000  0.000  0.000
    4  0.000  0.000  0.000  0.000
    5  0.000  0.000  0.000  0.000
    6  0.000  0.000  0.000  0.000
    7  0.000  0.000  0.000  0.000
    8  0.000  0.000  0.000  0.000
    9  0.000  0.000  0.000  0.000
   10  0.000  0.000  0.000  0.000
   11  0.000  0.000  0.000  0.000
   12  0.000  0.000  0.000  0.000
   13  0.000  0.000  0.000  0.000
   14  0.000  0.000  0.000  0.000
   15  0.000  0.000  0.000  0.000
   16  0.000  0.000  0.000  0.000
   17  0.000  0.000  0.000  0.000
   18  0.000  0.000  0.000  0.000
   19  0.000  0.000  0.000  0.000
   20  0.000  0.000  0.000  0.000
   21  0.000  0.000  0.000  0.000
   22  0.000  0.000  0.000  0.000
   23  0.000  0.000  0.000  0.000
   24  0.000  0.000  0.000  0.000
   25  0.000  0.000  0.000  0.000
   26  0.000  0.000  0.000  0.000
   27  0.000  0.000  0.000  0.000
   28  0.000  0.000  0.000  0.000
   29  0.000  0.000  0.000  0.000
   30  0.000  0.000  0.000  0.000
   31  0.000  0.000  0.000  0.000
   32  0.000  0.000  0.000  0.000
   33  0.000  0.000  0.000  0.000
   34  0.000  0.000  0.000  0.000
   35  0.000  0.000  0.000  0.000
   36  0.992  0.000  0.000  0.992
   37  0.000  0.000  0.000  0.000
   38  0.000  0.000  0.000  0.000
   39  0.000  0.000  0.000  0.000
tot    0.992  0.000  0.000  0.993
 
band     2 # energy  -30.89558578 # occ.  2.00000000
 
ion      s      p      d    tot
    1  0.000  0.000  0.000  0.000
    2  0.000  0.000  0.000  0.000
    3  0.000  0.000  0.000  0.000
    4  0.000  0.000  0.000  0.000
    5  0.000  0.000  0.000  0.000
    6  0.000  0.000  0.000  0.000
    7  0.000  0.000  0.000  0.000
    8  0.000  0.000  0.000  0.000
    9  0.000  0.000  0.000  0.000
   10  0.000  0.000  0.000  0.000
   11  0.000  0.000  0.000  0.000
   12  0.000  0.000  0.000  0.000
   13  0.000  0.000  0.000  0.000
   14  0.000  0.000  0.000  0.000
   15  0.000  0.000  0.000  0.000
   16  0.000  0.000  0.000  0.000
   17  0.000  0.000  0.000  0.000
   18  0.000  0.000  0.000  0.000
   19  0.000  0.000  0.000  0.000
   20  0.000  0.000  0.000  0.000
   21  0.000  0.000  0.000  0.000
   22  0.000  0.000  0.000  0.000
   23  0.000  0.000  0.000  0.000
   24  0.000  0.000  0.000  0.000
   25  0.000  0.000  0.000  0.000
   26  0.000  0.000  0.000  0.000
   27  0.000  0.000  0.000  0.000
   28  0.000  0.000  0.000  0.000
   29  0.000  0.000  0.000  0.000
   30  0.000  0.000  0.000  0.001
   31  0.000  0.000  0.000  0.000
   32  0.000  0.000  0.000  0.000
   33  0.000  0.000  0.000  0.001
   34  0.000  0.000  0.000  0.000
   35  0.000  0.000  0.000  0.000
   36  0.000  0.970  0.000  0.970
   37  0.000  0.000  0.000  0.000
   38  0.000  0.000  0.000  0.000
   39  0.000  0.000  0.000  0.000
tot    0.001  0.972  0.001  0.973
 
band     3 # energy  -30.89557683 # occ.  2.00000000
 
ion      s      p      d    tot
    1  0.000  0.000  0.000  0.000
    2  0.000  0.000  0.000  0.000
    3  0.000  0.000  0.000  0.000
    4  0.000  0.000  0.000  0.000
    5  0.000  0.000  0.000  0.000
    6  0.000  0.000  0.000  0.000
    7  0.000  0.000  0.000  0.000
    8  0.000  0.000  0.000  0.000
    9  0.000  0.000  0.000  0.000
   10  0.000  0.000  0.000  0.000
   11  0.000  0.000  0.000  0.000
   12  0.000  0.000  0.000  0.000
   13  0.000  0.000  0.000  0.000
   14  0.000  0.000  0.000  0.000
   15  0.000  0.000  0.000  0.000
   16  0.000  0.000  0.000  0.000
   17  0.000  0.000  0.000  0.000
   18  0.000  0.000  0.000  0.000
   19  0.000  0.000  0.000  0.000
   20  0.000  0.000  0.000  0.000
   21  0.000  0.000  0.000  0.000
   22  0.000  0.000  0.000  0.000
   23  0.000  0.000  0.000  0.000
   24  0.000  0.000  0.000  0.000
   25  0.000  0.000  0.000  0.000
   26  0.000  0.000  0.000  0.000
   27  0.000  0.000  0.000  0.000
   28  0.000  0.000  0.000  0.000
   29  0.000  0.000  0.000  0.001
   30  0.000  0.000  0.000  0.000
   31  0.000  0.000  0.000  0.001
   32  0.000  0.000  0.000  0.001
   33  0.000  0.000  0.000  0.000
   34  0.000  0.000  0.000  0.001
   35  0.000  0.000  0.000  0.000
   36  0.000  0.970  0.000  0.970
   37  0.000  0.000  0.000  0.000
   38  0.000  0.000  0.000  0.000
   39  0.000  0.000  0.000  0.000
tot    0.001  0.972  0.001  0.973
 
band     4 # energy  -30.78752160 # occ.  2.00000000
 
ion      s      p      d    tot
    1  0.000  0.000  0.000  0.000
    2  0.000  0.000  0.000  0.000
    3  0.000  0.000  0.000  0.000
    4  0.000  0.000  0.000  0.000
    5  0.000  0.000  0.000  0.000
    6  0.000  0.000  0.000  0.000
    7  0.000  0.000  0.000  0.000
    8  0.000  0.000  0.000  0.000
    9  0.000  0.000  0.000  0.000
   10  0.000  0.000  0.000  0.000
   11  0.000  0.000  0.000  0.000
   12  0.000  0.000  0.000  0.000
   13  0.000  0.000  0.000  0.000
   14  0.000  0.000  0.000  0.000
   15  0.000  0.000  0.000  0.000
   16  0.000  0.000  0.000  0.000
   17  0.000  0.000  0.000  0.000
   18  0.000  0.000  0.000  0.000
   19  0.000  0.000  0.000  0.000
   20  0.000  0.000  0.000  0.000
   21  0.000  0.000  0.000  0.000
   22  0.000  0.000  0.000  0.000
   23  0.000  0.000  0.000  0.000
   24  0.000  0.000  0.000  0.000
   25  0.000  0.000  0.000  0.000
   26  0.000  0.000  0.000  0.000
   27  0.000  0.000  0.000  0.000
   28  0.000  0.000  0.000  0.000
   29  0.000  0.000  0.000  0.000
   30  0.000  0.000  0.000  0.000
   31  0.000  0.000  0.000  0.000
   32  0.000  0.000  0.000  0.000
   33  0.000  0.000  0.000  0.000
   34  0.000  0.000  0.000  0.000
   35  0.000  0.000  0.000  0.000
   36  0.000  0.962  0.000  0.962
   37  0.005  0.004  0.000  0.008
   38  0.000  0.000  0.000  0.000
   39  0.000  0.000  0.000  0.000
tot    0.005  0.966  0.001  0.972
 
band     5 # energy  -23.95429355 # occ.  2.00000000
 
ion      s      p      d    tot
    1  0.000  0.000  0.000  0.000
    2  0.000  0.000  0.000  0.000
    3  0.000  0.000  0.000  0.000
    4  0.000  0.000  0.000  0.000
    5  0.000  0.000  0.000  0.000
    6  0.000  0.000  0.000  0.000
    7  0.000  0.000  0.000  0.000
    8  0.000  0.000  0.000  0.000
    9  0.000  0.000  0.000  0.000
   10  0.000  0.000  0.000  0.000
   11  0.000  0.000  0.000  0.000
   12  0.000  0.000  0.000  0.000
   13  0.000  0.000  0.000  0.000
   14  0.000  0.000  0.000  0.000
   15  0.000  0.000  0.000  0.000
   16  0.000  0.000  0.000  0.000
   17  0.000  0.000  0.000  0.000
   18  0.000  0.000  0.000  0.000
   19  0.000  0.000  0.000  0.000
   20  0.000  0.000  0.000  0.000
   21  0.000  0.000  0.000  0.000
   22  0.000  0.000  0.000  0.000
   23  0.000  0.000  0.000  0.000
   24  0.000  0.000  0.000  0.000
   25  0.000  0.000  0.000  0.000
   26  0.000  0.000  0.000  0.000
   27  0.000  0.000  0.000  0.000
   28  0.000  0.000  0.000  0.000
   29  0.000  0.000  0.000  0.000
   30  0.000  0.000  0.000  0.000
   31  0.000  0.000  0.000  0.000
   32  0.000  0.000  0.000  0.000
   33  0.000  0.000  0.000  0.000
   34  0.000  0.000  0.000  0.000
   35  0.000  0.000  0.000  0.000
   36  0.000  0.000  0.000  0.000
   37  0.072  0.054  0.000  0.126
   38  0.728  0.005  0.000  0.733
   39  0.066  0.014  0.000  0.080
tot    0.866  0.073  0.000  0.939
 
band     6 # energy  -14.68717542 # occ.  2.00000000
 
ion      s      p      d    tot
    1  0.000  0.000  0.000  0.000
    2  0.000  0.000  0.000  0.000
    3  0.000  0.000  0.000  0.000
    4  0.000  0.000  0.000  0.000
    5  0.000  0.000  0.000  0.000
    6  0.000  0.000  0.000  0.000
    7  0.000  0.000  0.000  0.000
    8  0.000  0.000  0.000  0.000
    9  0.000  0.000  0.000  0.000
   10  0.000  0.000  0.000  0.000
   11  0.000  0.000  0.000  0.000
   12  0.000  0.000  0.000  0.000
   13  0.000  0.000  0.000  0.000
   14  0.000  0.000  0.000  0.000
   15  0.000  0.000  0.000  0.000
   16  0.000  0.000  0.000  0.000
   17  0.000  0.000  0.000  0.000
   18  0.000  0.000  0.000  0.000
   19  0.000  0.000  0.000  0.000
   20  0.000  0.000  0.000  0.000
   21  0.000  0.000  0.000  0.000
   22  0.000  0.000  0.000  0.000
   23  0.000  0.000  0.000  0.000
   24  0.000  0.000  0.000  0.000
   25  0.000  0.000  0.000  0.000
   26  0.000  0.000  0.000  0.000
   27  0.000  0.000  0.000  0.000
   28  0.000  0.000  0.000  0.000
   29  0.000  0.000  0.000  0.000
   30  0.000  0.000  0.000  0.000
   31  0.000  0.000  0.000  0.000
   32  0.000  0.000  0.000  0.000
   33  0.000  0.000  0.000  0.000
   34  0.000  0.000  0.000  0.000
   35  0.000  0.000  0.000  0.000
   36  0.001  0.001  0.001  0.003
   37  0.153  0.055  0.000  0.208
   38  0.013  0.528  0.000  0.541
   39  0.202  0.032  0.000  0.234
tot    0.369  0.615  0.001  0.985
 
band     7 # energy   -8.91141572 # occ.  2.00000000
 
ion      s      p      d    tot
    1  0.007  0.001  0.000  0.007
    2  0.007  0.001  0.000  0.007
    3  0.006  0.001  0.000  0.007
    4  0.007  0.001  0.000  0.007
    5  0.006  0.001  0.000  0.007
    6  0.006  0.001  0.000  0.007
    7  0.006  0.001  0.000  0.007
    8  0.006  0.001  0.000  0.007
    9  0.006  0.001  0.000  0.007
   10  0.025  0.000  0.000  0.025
   11  0.024  0.000  0.000  0.024
   12  0.025  0.000  0.000  0.025
   13  0.024  0.000  0.000  0.024
   14  0.024  0.000  0.000  0.024
   15  0.024  0.000  0.000  0.024
   16  0.025  0.000  0.000  0.025
   17  0.024  0.000  0.000  0.024
   18  0.024  0.000  0.000  0.024
   19  0.025  0.000  0.000  0.025
   20  0.024  0.000  0.000  0.025
   21  0.024  0.000  0.000  0.025
   22  0.024  0.000  0.000  0.024
   23  0.024  0.000  0.000  0.025
   24  0.024  0.000  0.000  0.024
   25  0.025  0.000  0.000  0.025
   26  0.025  0.000  0.000  0.025
   27  0.024  0.000  0.000  0.024
   28  0.007  0.001  0.000  0.008
   29  0.007  0.001  0.000  0.008
   30  0.007  0.001  0.000  0.008
   31  0.007  0.001  0.000  0.008
   32  0.007  0.001  0.000  0.008
   33  0.007  0.001  0.000  0.008
   34  0.007  0.001  0.000  0.008
   35  0.007  0.001  0.000  0.008
   36  0.004  0.000  0.000  0.005
   37  0.001  0.001  0.000  0.002
   38  0.000  0.000  0.000  0.001
   39  0.000  0.000  0.000  0.000
tot    0.559  0.017  0.001  0.577
 
band     8 # energy   -7.65440295 # occ.  2.00000000
 
ion      s      p      d    tot
    1  0.017  0.001  0.000  0.019
    2  0.017  0.001  0.000  0.018
    3  0.017  0.001  0.000  0.018
    4  0.017  0.001  0.000  0.018
    5  0.017  0.001  0.000  0.018
    6  0.017  0.001  0.000  0.018
    7  0.017  0.001  0.000  0.018
    8  0.017  0.001  0.000  0.018
    9  0.017  0.001  0.000  0.018
   10  0.010  0.002  0.001  0.013
   11  0.010  0.002  0.001  0.013
   12  0.010  0.002  0.001  0.013
   13  0.010  0.002  0.001  0.013
   14  0.010  0.002  0.001  0.013
   15  0.010  0.002  0.001  0.013
   16  0.010  0.002  0.001  0.013
   17  0.010  0.002  0.001  0.013
   18  0.010  0.002  0.001  0.013
   19  0.009  0.002  0.000  0.011
   20  0.009  0.002  0.001  0.011
   21  0.009  0.002  0.001  0.011
   22  0.009  0.002  0.000  0.011
   23  0.009  0.002  0.001  0.011
   24  0.009  0.002  0.000  0.011
   25  0.009  0.002  0.000  0.011
   26  0.009  0.002  0.000  0.011
   27  0.009  0.002  0.000  0.011
   28  0.018  0.001  0.001  0.020
   29  0.018  0.001  0.001  0.019
   30  0.018  0.001  0.001  0.019
   31  0.018  0.001  0.001  0.019
   32  0.018  0.001  0.001  0.019
   33  0.018  0.001  0.001  0.019
   34  0.018  0.001  0.001  0.019
   35  0.018  0.001  0.001  0.019
   36  0.014  0.000  0.002  0.016
   37  0.009  0.008  0.000  0.016
   38  0.001  0.003  0.000  0.004
   39  0.001  0.000  0.000  0.001
tot    0.495  0.061  0.019  0.574
 
band     9 # energy   -6.70057257 # occ.  2.00000000
 
ion      s      p      d    tot
    1  0.000  0.000  0.000  0.000
    2  0.000  0.000  0.000  0.000
    3  0.000  0.000  0.000  0.000
    4  0.000  0.000  0.000  0.000
    5  0.000  0.000  0.000  0.000
    6  0.000  0.000  0.000  0.000
    7  0.000  0.000  0.000  0.000
    8  0.000  0.000  0.000  0.000
    9  0.000  0.000  0.000  0.000
   10  0.000  0.000  0.000  0.000
   11  0.000  0.000  0.000  0.000
   12  0.000  0.000  0.000  0.000
   13  0.000  0.000  0.000  0.000
   14  0.000  0.000  0.000  0.000
   15  0.000  0.000  0.000  0.000
   16  0.000  0.000  0.000  0.000
   17  0.000  0.000  0.000  0.000
   18  0.000  0.000  0.000  0.000
   19  0.000  0.000  0.000  0.000
   20  0.000  0.000  0.000  0.000
   21  0.000  0.000  0.000  0.000
   22  0.000  0.000  0.000  0.000
   23  0.000  0.000  0.000  0.000
   24  0.000  0.000  0.000  0.000
   25  0.000  0.000  0.000  0.000
   26  0.000  0.000  0.000  0.000
   27  0.000  0.000  0.000  0.000
   28  0.000  0.000  0.000  0.000
   29  0.000  0.000  0.000  0.000
   30  0.000  0.000  0.000  0.000
   31  0.000  0.000  0.000  0.000
   32  0.000  0.000  0.000  0.000
   33  0.000  0.000  0.000  0.000
   34  0.000  0.000  0.000  0.000
   35  0.000  0.000  0.000  0.000
   36  0.000  0.000  0.006  0.007
   37  0.000  0.103  0.000  0.103
   38  0.000  0.555  0.000  0.555
   39  0.000  0.008  0.000  0.008
tot    0.001  0.667  0.008  0.675
 
band    10 # energy   -6.70047977 # occ.  2.00000000
 
ion      s      p      d    tot
    1  0.000  0.000  0.000  0.000
    2  0.000  0.000  0.000  0.000
    3  0.000  0.000  0.000  0.000
    4  0.000  0.000  0.000  0.000
    5  0.000  0.000  0.000  0.000
    6  0.000  0.000  0.000  0.000
    7  0.000  0.000  0.000  0.000
    8  0.000  0.000  0.000  0.000
    9  0.000  0.000  0.000  0.000
   10  0.000  0.000  0.000  0.000
   11  0.000  0.000  0.000  0.000
   12  0.000  0.000  0.000  0.000
   13  0.000  0.000  0.000  0.000
   14  0.000  0.000  0.000  0.000
   15  0.000  0.000  0.000  0.000
   16  0.000  0.000  0.000  0.000
   17  0.000  0.000  0.000  0.000
   18  0.000  0.000  0.000  0.000
   19  0.000  0.000  0.000  0.000
   20  0.000  0.000  0.000  0.000
   21  0.000  0.000  0.000  0.000
   22  0.000  0.000  0.000  0.000
   23  0.000  0.000  0.000  0.000
   24  0.000  0.000  0.000  0.000
   25  0.000  0.000  0.000  0.000
   26  0.000  0.000  0.000  0.000
   27  0.000  0.000  0.000  0.000
   28  0.000  0.000  0.000  0.000
   29  0.000  0.000  0.000  0.000
   30  0.000  0.000  0.000  0.001
   31  0.000  0.000  0.000  0.000
   32  0.000  0.000  0.000  0.000
   33  0.000  0.000  0.000  0.001
   34  0.000  0.000  0.000  0.000
   35  0.000  0.000  0.000  0.000
   36  0.000  0.000  0.006  0.007
   37  0.000  0.103  0.000  0.103
   38  0.000  0.555  0.000  0.555
   39  0.000  0.008  0.000  0.008
tot    0.001  0.667  0.008  0.675
 
band    11 # energy   -6.64443034 # occ.  2.00000000
 
ion      s      p      d    tot
    1  0.001  0.000  0.000  0.001
    2  0.001  0.000  0.000  0.002
    3  0.001  0.000  0.000  0.002
    4  0.001  0.000  0.000  0.002
    5  0.003  0.000  0.000  0.003
    6  0.001  0.000  0.000  0.002
    7  0.001  0.000  0.000  0.002
    8  0.001  0.000  0.000  0.002
    9  0.001  0.000  0.000  0.001
   10  0.000  0.001  0.000  0.001
   11  0.001  0.000  0.000  0.001
   12  0.000  0.001  0.000  0.001
   13  0.001  0.000  0.000  0.001
   14  0.001  0.000  0.000  0.001
   15  0.001  0.001  0.000  0.001
   16  0.000  0.001  0.000  0.001
   17  0.001  0.001  0.000  0.001
   18  0.001  0.001  0.000  0.001
   19  0.006  0.000  0.001  0.007
   20  0.002  0.003  0.005  0.010
   21  0.002  0.003  0.005  0.010
   22  0.005  0.001  0.001  0.006
   23  0.002  0.003  0.005  0.010
   24  0.005  0.001  0.001  0.006
   25  0.006  0.000  0.001  0.007
   26  0.006  0.000  0.001  0.007
   27  0.005  0.001  0.001  0.006
   28  0.004  0.001  0.000  0.004
   29  0.000  0.001  0.000  0.002
   30  0.000  0.001  0.000  0.002
   31  0.000  0.001  0.000  0.002
   32  0.000  0.001  0.000  0.002
   33  0.000  0.001  0.000  0.002
   34  0.000  0.001  0.000  0.002
   35  0.004  0.001  0.000  0.004
   36  0.038  0.017  0.125  0.180
   37  0.182  0.142  0.000  0.325
   38  0.014  0.041  0.000  0.055
   39  0.013  0.001  0.000  0.013
tot    0.311  0.225  0.151  0.687
 
band    12 # energy   -6.04170976 # occ.  2.00000000
 
ion      s      p      d    tot
    1  0.016  0.000  0.005  0.021
    2  0.015  0.000  0.005  0.020
    3  0.015  0.000  0.005  0.020
    4  0.015  0.000  0.005  0.020
    5  0.008  0.000  0.006  0.014
    6  0.015  0.000  0.005  0.020
    7  0.015  0.000  0.005  0.020
    8  0.015  0.000  0.005  0.020
    9  0.023  0.000  0.004  0.027
   10  0.003  0.003  0.002  0.009
   11  0.009  0.005  0.001  0.015
   12  0.003  0.003  0.002  0.009
   13  0.009  0.005  0.001  0.015
   14  0.009  0.005  0.001  0.015
   15  0.000  0.003  0.003  0.006
   16  0.003  0.003  0.002  0.009
   17  0.000  0.003  0.003  0.006
   18  0.000  0.003  0.003  0.006
   19  0.002  0.003  0.005  0.010
   20  0.018  0.004  0.003  0.024
   21  0.017  0.004  0.003  0.024
   22  0.001  0.004  0.004  0.008
   23  0.017  0.004  0.003  0.024
   24  0.001  0.004  0.004  0.008
   25  0.002  0.003  0.005  0.010
   26  0.002  0.003  0.005  0.010
   27  0.001  0.004  0.004  0.008
   28  0.021  0.000  0.006  0.027
   29  0.017  0.000  0.008  0.025
   30  0.017  0.000  0.008  0.025
   31  0.017  0.000  0.008  0.025
   32  0.017  0.000  0.008  0.025
   33  0.017  0.000  0.008  0.025
   34  0.017  0.000  0.008  0.025
   35  0.027  0.000  0.006  0.033
   36  0.002  0.000  0.009  0.012
   37  0.000  0.000  0.000  0.000
   38  0.000  0.000  0.000  0.000
   39  0.000  0.000  0.000  0.000
tot    0.385  0.067  0.170  0.623
 
band    13 # energy   -5.94289059 # occ.  2.00000000
 
ion      s      p      d    tot
    1  0.000  0.003  0.005  0.008
    2  0.007  0.002  0.002  0.011
    3  0.006  0.002  0.002  0.010
    4  0.007  0.002  0.002  0.011
    5  0.000  0.001  0.002  0.003
    6  0.000  0.001  0.002  0.003
    7  0.006  0.002  0.002  0.010
    8  0.000  0.001  0.002  0.003
    9  0.000  0.001  0.004  0.005
   10  0.051  0.002  0.006  0.058
   11  0.000  0.008  0.003  0.012
   12  0.013  0.007  0.008  0.027
   13  0.000  0.008  0.003  0.012
   14  0.002  0.001  0.005  0.007
   15  0.008  0.001  0.011  0.021
   16  0.012  0.007  0.008  0.027
   17  0.009  0.001  0.011  0.021
   18  0.034  0.004  0.002  0.041
   19  0.015  0.006  0.009  0.030
   20  0.034  0.005  0.003  0.041
   21  0.009  0.002  0.013  0.024
   22  0.001  0.009  0.003  0.013
   23  0.008  0.002  0.014  0.023
   24  0.004  0.000  0.006  0.010
   25  0.061  0.002  0.006  0.069
   26  0.016  0.006  0.009  0.031
   27  0.001  0.010  0.003  0.013
   28  0.000  0.004  0.006  0.011
   29  0.008  0.002  0.003  0.013
   30  0.013  0.003  0.004  0.019
   31  0.008  0.002  0.003  0.013
   32  0.001  0.001  0.003  0.005
   33  0.013  0.003  0.004  0.019
   34  0.001  0.001  0.003  0.005
   35  0.000  0.001  0.003  0.004
   36  0.000  0.000  0.006  0.006
   37  0.000  0.000  0.000  0.000
   38  0.000  0.000  0.000  0.000
   39  0.000  0.000  0.000  0.000
tot    0.346  0.113  0.180  0.638
 
band    14 # energy   -5.94271001 # occ.  2.00000000
 
ion      s      p      d    tot
    1  0.000  0.003  0.005  0.008
    2  0.002  0.001  0.002  0.005
    3  0.003  0.001  0.002  0.006
    4  0.002  0.001  0.002  0.005
    5  0.000  0.001  0.002  0.003
    6  0.009  0.002  0.002  0.013
    7  0.003  0.001  0.002  0.006
    8  0.009  0.002  0.002  0.013
    9  0.000  0.001  0.004  0.005
   10  0.000  0.008  0.008  0.017
   11  0.001  0.003  0.004  0.008
   12  0.038  0.004  0.006  0.047
   13  0.001  0.003  0.004  0.009
   14  0.000  0.011  0.003  0.013
   15  0.026  0.003  0.005  0.034
   16  0.038  0.004  0.006  0.048
   17  0.025  0.003  0.005  0.034
   18  0.000  0.000  0.014  0.015
   19  0.046  0.004  0.007  0.057
   20  0.000  0.001  0.017  0.018
   21  0.025  0.004  0.006  0.035
   22  0.003  0.004  0.005  0.011
   23  0.026  0.004  0.006  0.035
   24  0.000  0.013  0.002  0.014
   25  0.000  0.008  0.010  0.018
   26  0.045  0.004  0.007  0.056
   27  0.003  0.003  0.005  0.011
   28  0.000  0.004  0.006  0.011
   29  0.006  0.002  0.004  0.011
   30  0.001  0.001  0.003  0.006
   31  0.006  0.002  0.004  0.012
   32  0.013  0.003  0.003  0.020
   33  0.001  0.001  0.003  0.006
   34  0.013  0.003  0.003  0.020
   35  0.000  0.001  0.003  0.005
   36  0.000  0.000  0.006  0.006
   37  0.000  0.000  0.000  0.000
   38  0.000  0.000  0.000  0.000
   39  0.000  0.000  0.000  0.000
tot    0.346  0.113  0.180  0.638
 
band    15 # energy   -5.91702578 # occ.  2.00000000
 
ion      s      p      d    tot
    1  0.020  0.003  0.001  0.024
    2  0.000  0.002  0.004  0.006
    3  0.000  0.002  0.004  0.006
    4  0.000  0.002  0.004  0.006
    5  0.001  0.000  0.000  0.002
    6  0.000  0.002  0.004  0.006
    7  0.000  0.002  0.004  0.006
    8  0.000  0.002  0.004  0.006
    9  0.008  0.001  0.000  0.010
   10  0.029  0.006  0.006  0.040
   11  0.006  0.000  0.011  0.017
   12  0.030  0.006  0.006  0.041
   13  0.006  0.000  0.011  0.017
   14  0.005  0.000  0.011  0.017
   15  0.011  0.008  0.003  0.022
   16  0.030  0.006  0.006  0.041
   17  0.011  0.008  0.003  0.022
   18  0.011  0.008  0.004  0.022
   19  0.023  0.009  0.002  0.034
   20  0.000  0.002  0.011  0.013
   21  0.000  0.003  0.011  0.013
   22  0.025  0.002  0.009  0.036
   23  0.000  0.003  0.011  0.013
   24  0.024  0.002  0.009  0.035
   25  0.023  0.009  0.002  0.034
   26  0.023  0.009  0.002  0.034
   27  0.025  0.002  0.009  0.036
   28  0.020  0.003  0.000  0.023
   29  0.000  0.002  0.005  0.007
   30  0.000  0.002  0.005  0.007
   31  0.000  0.002  0.005  0.007
   32  0.000  0.002  0.005  0.007
   33  0.000  0.002  0.005  0.007
   34  0.000  0.002  0.005  0.007
   35  0.014  0.002  0.001  0.017
   36  0.000  0.000  0.000  0.000
   37  0.000  0.000  0.000  0.000
   38  0.000  0.000  0.000  0.000
   39  0.000  0.000  0.000  0.000
tot    0.345  0.114  0.181  0.640
 
band    16 # energy   -5.90555780 # occ.  2.00000000
 
ion      s      p      d    tot
    1  0.000  0.000  0.003  0.003
    2  0.008  0.002  0.002  0.012
    3  0.007  0.002  0.002  0.011
    4  0.007  0.002  0.002  0.012
    5  0.000  0.003  0.005  0.008
    6  0.000  0.001  0.002  0.003
    7  0.007  0.002  0.002  0.011
    8  0.000  0.001  0.002  0.003
    9  0.000  0.002  0.003  0.005
   10  0.000  0.004  0.010  0.014
   11  0.045  0.004  0.006  0.055
   12  0.006  0.003  0.005  0.015
   13  0.044  0.004  0.007  0.054
   14  0.000  0.002  0.015  0.017
   15  0.017  0.003  0.005  0.026
   16  0.007  0.003  0.005  0.015
   17  0.017  0.004  0.005  0.026
   18  0.000  0.013  0.002  0.015
   19  0.004  0.003  0.005  0.012
   20  0.000  0.014  0.003  0.017
   21  0.024  0.004  0.006  0.034
   22  0.044  0.004  0.006  0.054
   23  0.024  0.004  0.006  0.034
   24  0.000  0.001  0.016  0.018
   25  0.000  0.006  0.009  0.015
   26  0.004  0.004  0.005  0.012
   27  0.045  0.004  0.006  0.055
   28  0.000  0.000  0.003  0.003
   29  0.008  0.002  0.003  0.012
   30  0.009  0.003  0.004  0.015
   31  0.007  0.002  0.003  0.012
   32  0.000  0.001  0.003  0.004
   33  0.008  0.002  0.004  0.015
   34  0.000  0.001  0.003  0.004
   35  0.000  0.003  0.006  0.009
   36  0.000  0.002  0.004  0.006
   37  0.000  0.000  0.000  0.000
   38  0.000  0.000  0.000  0.000
   39  0.000  0.000  0.000  0.000
tot    0.342  0.114  0.180  0.636
 
band    17 # energy   -5.90539162 # occ.  2.00000000
 
ion      s      p      d    tot
    1  0.000  0.000  0.003  0.003
    2  0.002  0.001  0.002  0.005
    3  0.002  0.001  0.002  0.006
    4  0.002  0.001  0.002  0.005
    5  0.000  0.003  0.005  0.008
    6  0.010  0.002  0.002  0.014
    7  0.003  0.001  0.002  0.006
    8  0.010  0.002  0.002  0.014
    9  0.000  0.002  0.003  0.005
   10  0.009  0.003  0.003  0.015
   11  0.014  0.003  0.012  0.029
   12  0.002  0.004  0.008  0.014
   13  0.015  0.003  0.012  0.030
   14  0.059  0.004  0.004  0.067
   15  0.006  0.010  0.003  0.019
   16  0.002  0.004  0.008  0.014
   17  0.006  0.010  0.003  0.019
   18  0.022  0.000  0.006  0.029
   19  0.001  0.005  0.008  0.014
   20  0.032  0.000  0.007  0.040
   21  0.008  0.010  0.004  0.023
   22  0.015  0.002  0.013  0.030
   23  0.008  0.011  0.004  0.022
   24  0.060  0.005  0.003  0.068
   25  0.005  0.003  0.003  0.011
   26  0.001  0.005  0.008  0.014
   27  0.014  0.002  0.013  0.029
   28  0.000  0.000  0.003  0.003
   29  0.003  0.002  0.004  0.008
   30  0.002  0.001  0.003  0.006
   31  0.003  0.002  0.004  0.008
   32  0.011  0.003  0.003  0.017
   33  0.002  0.001  0.002  0.006
   34  0.011  0.003  0.003  0.017
   35  0.000  0.003  0.006  0.009
   36  0.000  0.002  0.004  0.006
   37  0.000  0.000  0.000  0.000
   38  0.000  0.000  0.000  0.000
   39  0.000  0.000  0.000  0.000
tot    0.342  0.114  0.180  0.636
 
band    18 # energy   -5.74749013 # occ.  2.00000000
 
ion      s      p      d    tot
    1  0.000  0.000  0.001  0.001
    2  0.001  0.002  0.006  0.010
    3  0.001  0.002  0.006  0.010
    4  0.001  0.002  0.006  0.010
    5  0.039  0.004  0.000  0.043
    6  0.001  0.002  0.006  0.010
    7  0.001  0.002  0.006  0.010
    8  0.001  0.002  0.006  0.010
    9  0.007  0.003  0.003  0.013
   10  0.002  0.004  0.009  0.016
   11  0.023  0.010  0.003  0.036
   12  0.002  0.004  0.009  0.016
   13  0.023  0.010  0.003  0.036
   14  0.023  0.010  0.003  0.036
   15  0.028  0.002  0.013  0.042
   16  0.002  0.004  0.009  0.016
   17  0.028  0.002  0.013  0.042
   18  0.028  0.002  0.013  0.042
   19  0.005  0.002  0.008  0.014
   20  0.015  0.003  0.009  0.027
   21  0.015  0.003  0.009  0.027
   22  0.006  0.006  0.005  0.017
   23  0.015  0.003  0.009  0.027
   24  0.006  0.006  0.005  0.017
   25  0.005  0.002  0.008  0.014
   26  0.005  0.002  0.008  0.014
   27  0.006  0.006  0.005  0.017
   28  0.001  0.000  0.003  0.004
   29  0.002  0.000  0.003  0.006
   30  0.002  0.000  0.003  0.006
   31  0.002  0.000  0.003  0.006
   32  0.002  0.000  0.003  0.006
   33  0.002  0.000  0.003  0.006
   34  0.002  0.000  0.003  0.006
   35  0.000  0.000  0.002  0.002
   36  0.000  0.005  0.013  0.018
   37  0.015  0.010  0.000  0.026
   38  0.001  0.003  0.000  0.004
   39  0.001  0.000  0.000  0.001
tot    0.321  0.117  0.218  0.656
 
band    19 # energy   -5.21531328 # occ.  2.00000000
 
ion      s      p      d    tot
    1  0.000  0.004  0.010  0.014
    2  0.004  0.002  0.005  0.010
    3  0.020  0.004  0.005  0.029
    4  0.003  0.002  0.005  0.010
    5  0.000  0.000  0.010  0.010
    6  0.007  0.002  0.005  0.013
    7  0.020  0.004  0.005  0.029
    8  0.007  0.002  0.005  0.014
    9  0.000  0.005  0.008  0.013
   10  0.011  0.001  0.006  0.018
   11  0.001  0.002  0.012  0.016
   12  0.003  0.004  0.014  0.021
   13  0.001  0.002  0.012  0.016
   14  0.004  0.001  0.007  0.012
   15  0.007  0.001  0.017  0.025
   16  0.003  0.004  0.014  0.021
   17  0.007  0.001  0.017  0.025
   18  0.027  0.005  0.005  0.037
   19  0.003  0.002  0.012  0.016
   20  0.000  0.001  0.010  0.012
   21  0.000  0.002  0.014  0.016
   22  0.002  0.002  0.022  0.026
   23  0.000  0.002  0.014  0.016
   24  0.008  0.003  0.003  0.013
   25  0.011  0.006  0.009  0.026
   26  0.003  0.002  0.012  0.017
   27  0.002  0.002  0.023  0.027
   28  0.000  0.005  0.008  0.013
   29  0.006  0.002  0.009  0.017
   30  0.027  0.003  0.010  0.040
   31  0.005  0.002  0.009  0.016
   32  0.008  0.002  0.009  0.019
   33  0.027  0.003  0.010  0.040
   34  0.008  0.002  0.009  0.019
   35  0.000  0.005  0.010  0.016
   36  0.000  0.000  0.015  0.015
   37  0.000  0.000  0.000  0.000
   38  0.000  0.000  0.000  0.000
   39  0.000  0.000  0.000  0.000
tot    0.234  0.093  0.369  0.696
 
band    20 # energy   -5.21528815 # occ.  2.00000000
 
ion      s      p      d    tot
    1  0.000  0.004  0.010  0.014
    2  0.017  0.003  0.005  0.025
    3  0.000  0.001  0.005  0.006
    4  0.017  0.003  0.005  0.025
    5  0.000  0.000  0.010  0.010
    6  0.013  0.003  0.005  0.022
    7  0.000  0.001  0.005  0.006
    8  0.013  0.003  0.005  0.021
    9  0.000  0.005  0.008  0.013
   10  0.000  0.005  0.017  0.022
   11  0.003  0.002  0.009  0.014
   12  0.008  0.002  0.009  0.019
   13  0.003  0.002  0.009  0.014
   14  0.000  0.003  0.014  0.017
   15  0.021  0.004  0.009  0.033
   16  0.008  0.002  0.009  0.019
   17  0.020  0.004  0.009  0.033
   18  0.000  0.000  0.021  0.021
   19  0.008  0.005  0.010  0.023
   20  0.000  0.002  0.016  0.018
   21  0.000  0.001  0.012  0.013
   22  0.006  0.003  0.009  0.018
   23  0.000  0.001  0.012  0.013
   24  0.000  0.002  0.029  0.031
   25  0.000  0.000  0.013  0.013
   26  0.008  0.005  0.010  0.023
   27  0.006  0.003  0.009  0.018
   28  0.000  0.004  0.008  0.013
   29  0.021  0.003  0.009  0.034
   30  0.000  0.002  0.008  0.010
   31  0.022  0.003  0.009  0.034
   32  0.019  0.003  0.009  0.031
   33  0.000  0.002  0.008  0.010
   34  0.019  0.003  0.009  0.031
   35  0.000  0.005  0.010  0.016
   36  0.000  0.000  0.015  0.015
   37  0.000  0.000  0.000  0.000
   38  0.000  0.000  0.000  0.000
   39  0.000  0.000  0.000  0.000