 vasp.6.2.0 18Jan21 (build Jun 12 2021 23:27:24) complex                        
  
 executed on             LinuxIFC date 2022.05.26  19:18:48
 running on   28 total cores
 distrk:  each k-point on   28 cores,    1 groups
 distr:  one band on NCORE=   1 cores,   28 groups


--------------------------------------------------------------------------------------------------------


 INCAR:
   ISMEAR = -5
   SIGMA = 0.1
   ISPIN = 1
   EDIFF = 1.d-5
   EDIFFG = -0.01
   NSW = 0
   NELM = 150
   ENCUT = 500
   ISIF = 2
   IBRION = 2
   LREAL = Auto
   ALGO = Fast
   ICHARG = 11
   LORBIT = 10
   LCHARG = .F.
   LWAVE = .F.

 POTCAR:    PAW_PBE Au 04Oct2007                  
 POTCAR:    PAW_PBE Cr 06Sep2000                  
 POTCAR:    PAW_PBE N 08Apr2002                   
 -----------------------------------------------------------------------------
|                                                                             |
|           W    W    AA    RRRRR   N    N  II  N    N   GGGG   !!!           |
|           W    W   A  A   R    R  NN   N  II  NN   N  G    G  !!!           |
|           W    W  A    A  R    R  N N  N  II  N N  N  G       !!!           |
|           W WW W  AAAAAA  RRRRR   N  N N  II  N  N N  G  GGG   !            |
|           WW  WW  A    A  R   R   N   NN  II  N   NN  G    G                |
|           W    W  A    A  R    R  N    N  II  N    N   GGGG   !!!           |
|                                                                             |
|     For optimal performance we recommend to set                             |
|       NCORE = 2 up to number-of-cores-per-socket                            |
|     NCORE specifies how many cores store one orbital (NPAR=cpu/NCORE).      |
|     This setting can greatly improve the performance of VASP for DFT.       |
|     The default, NCORE=1 might be grossly inefficient on modern             |
|     multi-core architectures or massively parallel machines. Do your        |
|     own testing! More info at https://www.vasp.at/wiki/index.php/NCORE      |
|     Unfortunately you need to use the default for GW and RPA                |
|     calculations (for HF NCORE is supported but not extensively tested      |
|     yet).                                                                   |
|                                                                             |
 -----------------------------------------------------------------------------

 POTCAR:    PAW_PBE Au 04Oct2007                  
   VRHFIN =Au: s1d10                                                                                
   LEXCH  = PE                                                                                      
   EATOM  =   926.0867 eV,   68.0654 Ry                                                             
                                                                                                    
   TITEL  = PAW_PBE Au 04Oct2007                                                                    
   LULTRA =        F    use ultrasoft PP ?                                                          
   IUNSCR =        1    unscreen: 0-lin 1-nonlin 2-no                                               
   RPACOR =    2.330    partial core radius                                                         
   POMASS =  196.966; ZVAL   =   11.000    mass and valenz                                          
   RCORE  =    2.500    outmost cutoff radius                                                       
   RWIGS  =    2.840; RWIGS  =    1.503    wigner-seitz radius (au A)                               
   ENMAX  =  229.943; ENMIN  =  172.457 eV                                                          
   ICORE  =        3    local potential                                                             
   LCOR   =        T    correct aug charges                                                         
   LPAW   =        T    paw PP                                                                      
   EAUG   =  356.670                                                                                
   DEXC   =    0.000                                                                                
   RMAX   =    2.562    core radius for proj-oper                                                   
   RAUG   =    1.300    factor for augmentation sphere                                              
   RDEP   =    2.598    radius for radial grids                                                     
   RDEPT  =    2.193    core radius for aug-charge                                                  
                                                                                                    
   Atomic configuration                                                                             
   16 entries                                                                                       
     n  l   j            E        occ.                                                              
     1  0  0.50    -80748.5001   2.0000                                                             
     2  0  0.50    -14244.7466   2.0000                                                             
     2  1  1.50    -12310.9591   6.0000                                                             
     3  0  0.50     -3362.1768   2.0000                                                             
     3  1  1.50     -2801.5463   6.0000                                                             
     3  2  2.50     -2203.8206  10.0000                                                             
     4  0  0.50      -729.8168   2.0000                                                             
     4  1  1.50      -546.0527   6.0000                                                             
     4  2  2.50      -325.7302  10.0000                                                             
     4  3  3.50       -81.1472  14.0000                                                             
     5  0  0.50      -108.3201   2.0000                                                             
     5  1  1.50       -59.7479   6.0000                                                             
     5  2  2.50        -6.8783  10.0000                                                             
     6  0  0.50        -5.7602   1.0000                                                             
     6  1  1.50        -6.8029   0.0000                                                             
     5  3  2.50        -1.3606   0.0000                                                             
   Description                                                                                      
     l       E           TYP  RCUT    TYP  RCUT                                                     
     2     -6.8782861     23  2.500                                                                 
     2     -8.2388687     23  2.500                                                                 
     0     -5.7601759     23  2.500                                                                 
     0     -0.8493231     23  2.500                                                                 
     1     -2.7211652     23  2.500                                                                 
     1     27.2116520     23  2.500                                                                 
     3     -1.3605826     23  2.500                                                                 
  local pseudopotential read in
  partial core-charges read in
  partial kinetic energy density read in
  atomic valenz-charges read in
  non local Contribution for L=           2  read in
    real space projection operators read in
  non local Contribution for L=           2  read in
    real space projection operators read in
  non local Contribution for L=           0  read in
    real space projection operators read in
  non local Contribution for L=           0  read in
    real space projection operators read in
  non local Contribution for L=           1  read in
    real space projection operators read in
  non local Contribution for L=           1  read in
    real space projection operators read in
    PAW grid and wavefunctions read in
 
   number of l-projection  operators is LMAX  =           6
   number of lm-projection operators is LMMAX =          18
 
 POTCAR:    PAW_PBE Cr 06Sep2000                  
   VRHFIN =Cr : d5 s1                                                                               
   LEXCH  = PE                                                                                      
   EATOM  =   276.8859 eV,   20.3505 Ry                                                             
                                                                                                    
   TITEL  = PAW_PBE Cr 06Sep2000                                                                    
   LULTRA =        F    use ultrasoft PP ?                                                          
   IUNSCR =        1    unscreen: 0-lin 1-nonlin 2-no                                               
   RPACOR =    2.080    partial core radius                                                         
   POMASS =   51.996; ZVAL   =    6.000    mass and valenz                                          
   RCORE  =    2.500    outmost cutoff radius                                                       
   RWIGS  =    2.500; RWIGS  =    1.323    wigner-seitz radius (au A)                               
   ENMAX  =  227.080; ENMIN  =  170.310 eV                                                          
   RCLOC  =    1.721    cutoff for local pot                                                        
   LCOR   =        T    correct aug charges                                                         
   LPAW   =        T    paw PP                                                                      
   EAUG   =  402.108                                                                                
   DEXC   =    0.000                                                                                
   RMAX   =    2.552    core radius for proj-oper                                                   
   RAUG   =    1.300    factor for augmentation sphere                                              
   RDEP   =    2.609    radius for radial grids                                                     
   RDEPT  =    2.065    core radius for aug-charge                                                  
                                                                                                    
   Atomic configuration                                                                             
    9 entries                                                                                       
     n  l   j            E        occ.                                                              
     1  0  0.50     -5880.4963   2.0000                                                             
     2  0  0.50      -667.0865   2.0000                                                             
     2  1  1.50      -560.6250   6.0000                                                             
     3  0  0.50       -73.9860   2.0000                                                             
     3  1  1.50       -45.4378   6.0000                                                             
     3  2  2.50        -2.9137   5.0000                                                             
     4  0  0.50        -4.0071   1.0000                                                             
     4  1  0.50        -1.2789   0.0000                                                             
     4  3  2.50        -1.3606   0.0000                                                             
   Description                                                                                      
     l       E           TYP  RCUT    TYP  RCUT                                                     
     2     -2.9136677     23  2.500                                                                 
     2     -4.2742503     23  2.500                                                                 
     0     -4.0071322     23  2.500                                                                 
     0      9.4498801     23  2.500                                                                 
     1     -5.4423304     23  2.500                                                                 
     1     27.2116520     23  2.500                                                                 
  local pseudopotential read in
  partial core-charges read in
  partial kinetic energy density read in
  atomic valenz-charges read in
  non local Contribution for L=           2  read in
    real space projection operators read in
  non local Contribution for L=           2  read in
    real space projection operators read in
  non local Contribution for L=           0  read in
    real space projection operators read in
  non local Contribution for L=           0  read in
    real space projection operators read in
  non local Contribution for L=           1  read in
    real space projection operators read in
  non local Contribution for L=           1  read in
    real space projection operators read in
    PAW grid and wavefunctions read in
 
   number of l-projection  operators is LMAX  =           6
   number of lm-projection operators is LMMAX =          18
 
 POTCAR:    PAW_PBE N 08Apr2002                   
   VRHFIN =N: s2p3                                                                                  
   LEXCH  = PE                                                                                      
   EATOM  =   264.5486 eV,   19.4438 Ry                                                             
                                                                                                    
   TITEL  = PAW_PBE N 08Apr2002                                                                     
   LULTRA =        F    use ultrasoft PP ?                                                          
   IUNSCR =        1    unscreen: 0-lin 1-nonlin 2-no                                               
   RPACOR =    1.200    partial core radius                                                         
   POMASS =   14.001; ZVAL   =    5.000    mass and valenz                                          
   RCORE  =    1.500    outmost cutoff radius                                                       
   RWIGS  =    1.400; RWIGS  =    0.741    wigner-seitz radius (au A)                               
   ENMAX  =  400.000; ENMIN  =  300.000 eV                                                          
   ICORE  =        2    local potential                                                             
   LCOR   =        T    correct aug charges                                                         
   LPAW   =        T    paw PP                                                                      
   EAUG   =  627.112                                                                                
   DEXC   =    0.000                                                                                
   RMAX   =    1.529    core radius for proj-oper                                                   
   RAUG   =    1.300    factor for augmentation sphere                                              
   RDEP   =    1.514    radius for radial grids                                                     
   RDEPT  =    1.338    core radius for aug-charge                                                  
                                                                                                    
   Atomic configuration                                                                             
    4 entries                                                                                       
     n  l   j            E        occ.                                                              
     1  0  0.50      -384.7179   2.0000                                                             
     2  0  0.50       -18.5828   2.0000                                                             
     2  1  0.50        -7.0898   3.0000                                                             
     3  2  1.50        -6.8029   0.0000                                                             
   Description                                                                                      
     l       E           TYP  RCUT    TYP  RCUT                                                     
     0    -18.5828119     23  1.200                                                                 
     0    -13.5018863     23  1.200                                                                 
     1     -7.0897853     23  1.500                                                                 
     1      9.5240782     23  1.500                                                                 
     2     -6.8029130      7  1.500                                                                 
  local pseudopotential read in
  partial core-charges read in
  partial kinetic energy density read in
  atomic valenz-charges read in
  non local Contribution for L=           0  read in
    real space projection operators read in
  non local Contribution for L=           0  read in
    real space projection operators read in
  non local Contribution for L=           1  read in
    real space projection operators read in
  non local Contribution for L=           1  read in
    real space projection operators read in
    PAW grid and wavefunctions read in
 
   number of l-projection  operators is LMAX  =           4
   number of lm-projection operators is LMMAX =           8
 
 Optimization of the real space projectors (new method)

 maximal supplied QI-value         = 15.12
 optimisation between [QCUT,QGAM] = [ 11.34, 22.83] = [ 36.00,145.93] Ry 
 Optimized for a Real-space Cutoff    1.39 Angstroem

   l    n(q)    QCUT    max X(q) W(low)/X(q) W(high)/X(q)  e(spline) 
   2      9    11.338    60.898    0.39E-03    0.42E-03    0.21E-06
   2      9    11.338    58.894    0.40E-03    0.42E-03    0.22E-06
   0      9    11.338   109.617    0.13E-03    0.20E-04    0.13E-06
   0      9    11.338    75.026    0.13E-03    0.20E-04    0.13E-06
   1      9    11.338    16.344    0.33E-04    0.24E-03    0.18E-06
   1      9    11.338    10.160    0.26E-04    0.19E-03    0.15E-06
 Optimization of the real space projectors (new method)

 maximal supplied QI-value         = 15.12
 optimisation between [QCUT,QGAM] = [ 11.34, 22.83] = [ 36.00,145.93] Ry 
 Optimized for a Real-space Cutoff    1.43 Angstroem

   l    n(q)    QCUT    max X(q) W(low)/X(q) W(high)/X(q)  e(spline) 
   2      9    11.338    94.395    0.18E-03    0.10E-02    0.64E-06
   2      9    11.338    88.078    0.18E-03    0.10E-02    0.65E-06
   0     10    11.338    50.173    0.13E-03    0.16E-03    0.96E-07
   0     10    11.338    24.906    0.12E-03    0.14E-03    0.88E-07
   1      9    11.338    12.133    0.13E-03    0.15E-03    0.24E-06
   1      9    11.338     7.290    0.10E-03    0.10E-03    0.18E-06
 Optimization of the real space projectors (new method)

 maximal supplied QI-value         = 25.13
 optimisation between [QCUT,QGAM] = [ 11.31, 22.87] = [ 35.82,146.48] Ry 
 Optimized for a Real-space Cutoff    1.27 Angstroem

   l    n(q)    QCUT    max X(q) W(low)/X(q) W(high)/X(q)  e(spline) 
   0      9    11.310    79.467    0.75E-04    0.16E-03    0.36E-06
   0      9    11.310    66.151    0.74E-04    0.16E-03    0.36E-06
   1      8    11.310    17.416    0.35E-03    0.12E-03    0.95E-06
   1      8    11.310    12.382    0.37E-03    0.13E-03    0.98E-06
  PAW_PBE Au 04Oct2007                  :
 energy of atom  1       EATOM= -926.0867
 kinetic energy error for atom=    0.0042 (will be added to EATOM!!)
  PAW_PBE Cr 06Sep2000                  :
 energy of atom  2       EATOM= -276.8859
 kinetic energy error for atom=    0.0012 (will be added to EATOM!!)
  PAW_PBE N 08Apr2002                   :
 energy of atom  3       EATOM= -264.5486
 kinetic energy error for atom=    0.0138 (will be added to EATOM!!)
 
 
 POSCAR: Au-Cr-N
  positions in direct lattice
  velocities in cartesian coordinates
 exchange correlation table for  LEXCH =        8
   RHO(1)=    0.500       N(1)  =     2000
   RHO(2)=  100.500       N(2)  =     4000

 VTST: version 3.2, (02/03/18)

 CHAIN: initializing optimizer
 
 OPT: Using VASP Conjugate-Gradient optimizer
 CHAIN: Read ICHAIN            0
 
 POSCAR: Au-Cr-N
  positions in direct lattice
  velocities in cartesian coordinates
 


--------------------------------------------------------------------------------------------------------


 ion  position               nearest neighbor table
   1  0.000  0.000  0.238-  16 2.94  12 2.94   6 2.94   8 2.94   7 2.94   3 2.94  10 2.94   4 2.94
                             2 2.94
   2  0.333  0.000  0.238-   9 2.94  11 2.94  17 2.94  10 2.94   8 2.94   4 2.94   5 2.94   1 2.94
                             3 2.94
   3  0.667  0.000  0.238-   7 2.94  18 2.94  12 2.94   1 2.94  11 2.94   5 2.94   6 2.94   9 2.94
                             2 2.94
   4  0.000  0.333  0.238-  10 2.94   6 2.94   5 2.94  13 2.94   2 2.94  15 2.94   9 2.94   1 2.94
                             7 2.94
   5  0.333  0.333  0.238-  13 2.94   7 2.94  11 2.94   4 2.94   2 2.94  14 2.94   3 2.94   8 2.94
                             6 2.94
   6  0.667  0.333  0.238-  15 2.94  14 2.94   1 2.94  12 2.94   4 2.94   9 2.94   8 2.94   3 2.94
                             5 2.94
   7  0.000  0.667  0.238-  18 2.94   3 2.94  16 2.94   5 2.94   1 2.94  13 2.94   8 2.94   4 2.94
                             9 2.94
   8  0.333  0.667  0.238-   9 2.94  17 2.94   1 2.94   2 2.94  14 2.94  16 2.94   6 2.94   7 2.94
                             5 2.94
   9  0.667  0.667  0.238-   2 2.94   8 2.94  17 2.94   6 2.94  15 2.94   4 2.94   3 2.94  18 2.94
                             7 2.94
  10  0.111  0.111  0.346-  20 2.92  26 2.94  19 2.94  11 2.94  17 2.94   2 2.94   4 2.94   1 2.94
                            12 2.94  16 2.94  13 2.94  15 2.94
  11  0.444  0.111  0.346-  20 2.91  21 2.91  27 2.93  13 2.94   2 2.94  10 2.94  17 2.94   5 2.94
                             3 2.94  18 2.94  14 2.94  12 2.94
  12  0.778  0.111  0.346-  21 2.92  25 2.94  19 2.94  16 2.94  18 2.94   1 2.94  14 2.94  15 2.94
                             3 2.94   6 2.94  10 2.94  11 2.94
  13  0.111  0.444  0.346-  23 2.91  20 2.91  22 2.93   5 2.94  18 2.94  11 2.94   7 2.94   4 2.94
                            16 2.94  10 2.94  14 2.94  15 2.94
  14  0.444  0.444  0.346-  21 2.91  23 2.91  24 2.93  15 2.94   6 2.94  12 2.94   8 2.94  17 2.94
                             5 2.94  16 2.94  13 2.94  11 2.94
  15  0.778  0.444  0.346-  24 2.92  22 2.92  19 2.94  14 2.94   6 2.94  17 2.94  12 2.94   9 2.94
                             4 2.94  10 2.94  13 2.94  18 2.94
  16  0.111  0.778  0.346-  23 2.92  25 2.94  26 2.94  18 2.94  12 2.94   7 2.94   1 2.94   8 2.94
                            13 2.94  10 2.94  14 2.94  17 2.94
  17  0.444  0.778  0.346-  27 2.92  24 2.92  26 2.94   9 2.94  15 2.94   2 2.94  10 2.94  11 2.94
                             8 2.94  14 2.94  16 2.94  18 2.94
  18  0.778  0.778  0.346-  22 2.92  27 2.92  25 2.94  16 2.94   7 2.94  13 2.94  12 2.94   3 2.94
                            11 2.94   9 2.94  15 2.94  17 2.94
  19  0.889  0.222  0.454-  10 2.94  12 2.94  15 2.94  26 2.94  25 2.94  24 2.94  22 2.94  28 2.95
                            21 2.95  20 2.95  32 3.00  31 3.00
  20  0.223  0.223  0.453-  36 2.71  11 2.91  13 2.91  23 2.91  21 2.91  29 2.92  31 2.92  10 2.92
                            26 2.95  19 2.95  27 2.96  22 2.96
  21  0.553  0.223  0.453-  36 2.71  14 2.91  11 2.91  20 2.91  23 2.91  30 2.92  32 2.92  12 2.92
                            25 2.95  19 2.95  27 2.96  24 2.96
  22  0.886  0.557  0.453-  24 2.90  27 2.90  18 2.92  15 2.92  13 2.93  25 2.94  19 2.94  23 2.96
                            20 2.96  35 2.96  33 2.96  31 2.96
  23  0.223  0.553  0.453-  36 2.71  13 2.91  14 2.91  20 2.91  21 2.91  33 2.92  34 2.92  16 2.92
                            25 2.95  26 2.95  22 2.96  24 2.96
  24  0.557  0.557  0.453-  27 2.90  22 2.90  15 2.92  17 2.92  14 2.93  26 2.94  19 2.94  21 2.96
                            23 2.96  35 2.96  32 2.96  34 2.96
  25  0.889  0.889  0.454-  16 2.94  12 2.94  18 2.94  19 2.94  26 2.94  22 2.94  27 2.94  28 2.95
                            23 2.95  21 2.95  33 3.00  30 3.00
  26  0.222  0.889  0.454-  10 2.94  16 2.94  17 2.94  19 2.94  25 2.94  27 2.94  24 2.94  28 2.95
                            20 2.95  23 2.95  29 3.00  34 3.00
  27  0.557  0.886  0.453-  24 2.90  22 2.90  17 2.92  18 2.92  11 2.93  26 2.94  25 2.94  20 2.96
                            21 2.96  35 2.96  29 2.96  30 2.96
  28  0.000  0.000  0.563-  25 2.95  19 2.95  26 2.95  34 2.99  32 2.99  33 2.99  30 2.99  31 2.99
                            29 2.99
  29  0.334  0.011  0.562-  30 2.84  31 2.84  36 2.86  20 2.92  27 2.96  35 2.99  28 2.99  26 3.00
                            34 3.13
  30  0.655  0.011  0.562-  29 2.84  32 2.84  36 2.86  21 2.92  27 2.96  35 2.99  28 2.99  25 3.00
                            33 3.13
  31  0.011  0.334  0.562-  33 2.84  29 2.84  36 2.86  20 2.92  22 2.96  35 2.99  28 2.99  19 3.00
                            32 3.13
  32  0.655  0.334  0.562-  34 2.84  30 2.84  36 2.86  21 2.92  24 2.96  35 2.99  28 2.99  19 3.00
                            31 3.13
  33  0.011  0.655  0.562-  31 2.84  34 2.84  36 2.86  23 2.92  22 2.96  35 2.99  28 2.99  25 3.00
                            30 3.13
  34  0.334  0.655  0.562-  32 2.84  33 2.84  36 2.86  23 2.92  24 2.96  35 2.99  28 2.99  26 3.00
                            29 3.13
  35  0.667  0.667  0.563-  24 2.96  27 2.96  22 2.96  29 2.99  34 2.99  32 2.99  31 2.99  30 2.99
                            33 2.99
  36  0.333  0.333  0.549-  37 1.59  20 2.71  23 2.71  21 2.71  33 2.86  31 2.86  29 2.86  30 2.86
                            34 2.86  32 2.86
  37  0.333  0.333  0.620-  36 1.59
 
  LATTYP: Found a hexagonal cell.
 ALAT       =     8.8135128021
 C/A-ratio  =     2.5184286595
  
  Lattice vectors:
  
 A1 = (  -4.4067569092,  -7.6327256898,   0.0000000000)
 A2 = (   8.8135128021,   0.0000000000,   0.0000000000)
 A3 = (   0.0000000000,   0.0000000000,  22.1962032318)


Analysis of symmetry for initial positions (statically):
=====================================================================
 Subroutine PRICEL returns:
 Original cell was already a primitive cell.
 

 Routine SETGRP: Setting up the symmetry group for a 
 hexagonal supercell.


 Subroutine GETGRP returns: Found  6 space group operations
 (whereof  6 operations were pure point group operations)
 out of a pool of 24 trial point group operations.


The static configuration has the point symmetry C_3v.


Analysis of symmetry for dynamics (positions and initial velocities):
=====================================================================
 Subroutine PRICEL returns:
 Original cell was already a primitive cell.
 

 Routine SETGRP: Setting up the symmetry group for a 
 hexagonal supercell.


 Subroutine GETGRP returns: Found  6 space group operations
 (whereof  6 operations were pure point group operations)
 out of a pool of 24 trial point group operations.


The dynamic configuration has the point symmetry C_3v.


Analysis of constrained symmetry for selective dynamics:
=====================================================================
 Subroutine PRICEL returns:
 Original cell was already a primitive cell.
 

 Routine SETGRP: Setting up the symmetry group for a 
 hexagonal supercell.


 Subroutine GETGRP returns: Found  6 space group operations
 (whereof  6 operations were pure point group operations)
 out of a pool of 24 trial point group operations.


The constrained configuration has the point symmetry C_3v.


 Subroutine INISYM returns: Found  6 space group operations
 (whereof  6 operations are pure point group operations),
 and found     1 'primitive' translations


----------------------------------------------------------------------------------------

                                     Primitive cell                                     

  volume of cell :    1493.1636

  direct lattice vectors                    reciprocal lattice vectors
     8.813512802  0.000000000  0.000000000     0.113462137 -0.065507406  0.000000000
     4.406756909  7.632725690  0.000000000     0.000000000  0.131014796  0.000000000
     0.000000000  0.000000000 22.196203232     0.000000000  0.000000000  0.045052750

  length of vectors
     8.813512802  8.813512802 22.196203232     0.131014796  0.131014796  0.045052750

  position of ions in fractional coordinates (direct lattice)
     0.000000000  0.000000000  0.237895638
     0.333333343  0.000000000  0.237895638
     0.666666687  0.000000000  0.237895638
     1.000000000  0.333333343  0.237895638
     0.333333313  0.333333343  0.237895638
     0.666666687  0.333333343  0.237895638
     1.000000000  0.666666687  0.237895638
     0.333333343  0.666666687  0.237895638
     0.666666627  0.666666687  0.237895638
     0.111111119  0.111111112  0.345965207
     0.444444418  0.111111112  0.345965207
     0.777777791  0.111111112  0.345965207
     0.111111127  0.444444448  0.345965207
     0.444444478  0.444444448  0.345965207
     0.777777731  0.444444448  0.345965207
     0.111111090  0.777777791  0.345965207
     0.444444448  0.777777791  0.345965207
     0.777777851  0.777777791  0.345965207
     0.888912079  0.222175858  0.453907099
     0.223298761  0.223298746  0.452721921
     0.553402538  0.223298746  0.452721921
     0.886292395  0.556853833  0.453134346
     0.223298716  0.553402538  0.452721921
     0.556853833  0.556853833  0.453134346
     0.888912079  0.888912079  0.453907099
     0.222175888  0.888912079  0.453907099
     0.556853773  0.886292395  0.453134346
     0.000000000  0.000000000  0.562617735
     0.333652727  0.010952029  0.562327009
     0.655395274  0.010952029  0.562327009
     0.010952029  0.333652727  0.562327009
     0.655395274  0.333652727  0.562327009
     0.010952029  0.655395274  0.562327009
     0.333652727  0.655395274  0.562327009
     0.666666627  0.666666687  0.562970372
     0.333333313  0.333333343  0.548569679
     0.333333313  0.333333343  0.620113323

  ion indices of the primitive-cell ions
   primitive index   ion index
                 1           1
                 2           2
                 3           3
                 4           4
                 5           5
                 6           6
                 7           7
                 8           8
                 9           9
                10          10
                11          11
                12          12
                13          13
                14          14
                15          15
                16          16
                17          17
                18          18
                19          19
                20          20
                21          21
                22          22
                23          23
                24          24
                25          25
                26          26
                27          27
                28          28
                29          29
                30          30
                31          31
                32          32
                33          33
                34          34
                35          35
                36          36
                37          37

----------------------------------------------------------------------------------------

 
 
 KPOINTS: Automatic mesh                          

Automatic generation of k-mesh.
 Grid dimensions read from file:
 generate k-points for:    8    8    1

 Generating k-lattice:

  Cartesian coordinates                     Fractional coordinates (reciprocal lattice)
     0.014182767 -0.008188426  0.000000000     0.125000000 -0.000000000  0.000000000
     0.000000000  0.016376850  0.000000000     0.000000000  0.125000000  0.000000000
     0.000000000  0.000000000  0.045052750     0.000000000  0.000000000  1.000000000

  Length of vectors
     0.016376850  0.016376850  0.045052750

  Shift w.r.t. Gamma in fractional coordinates (k-lattice)
     0.000000000  0.000000000  0.000000000

 TETIRR: Found     36 inequivalent tetrahedra from      384
 
 Subroutine IBZKPT returns following result:
 ===========================================
 
 Found     10 irreducible k-points:
 
 Following reciprocal coordinates:
            Coordinates               Weight
  0.000000  0.000000  0.000000      1.000000
  0.125000 -0.000000  0.000000      6.000000
  0.250000 -0.000000  0.000000      6.000000
  0.375000  0.000000  0.000000      6.000000
  0.500000 -0.000000  0.000000      3.000000
  0.250000  0.125000  0.000000      6.000000
  0.375000  0.125000  0.000000     12.000000
  0.500000  0.125000  0.000000     12.000000
  0.500000  0.250000  0.000000      6.000000
 -0.375000  0.250000  0.000000      6.000000
 
 Following cartesian coordinates:
            Coordinates               Weight
  0.000000  0.000000  0.000000      1.000000
  0.014183 -0.008188  0.000000      6.000000
  0.028366 -0.016377  0.000000      6.000000
  0.042548 -0.024565  0.000000      6.000000
  0.056731 -0.032754  0.000000      3.000000
  0.028366 -0.000000  0.000000      6.000000
  0.042548 -0.008188  0.000000     12.000000
  0.056731 -0.016377  0.000000     12.000000
  0.056731 -0.000000  0.000000      6.000000
 -0.042548  0.057319  0.000000      6.000000
 


--------------------------------------------------------------------------------------------------------




 Dimension of arrays:
   k-points           NKPTS =     10   k-points in BZ     NKDIM =     10   number of bands    NBANDS=    252
   number of dos      NEDOS =    301   number of ions     NIONS =     37
   non local maximal  LDIM  =      6   non local SUM 2l+1 LMDIM =     18
   total plane-waves  NPLWV = 290304
   max r-space proj   IRMAX =   2438   max aug-charges    IRDMAX=  12088
   dimension x,y,z NGX =    48 NGY =   48 NGZ =  126
   dimension x,y,z NGXF=    96 NGYF=   96 NGZF=  252
   support grid    NGXF=    96 NGYF=   96 NGZF=  252
   ions per type =              35   1   1
   NGX,Y,Z   is equivalent  to a cutoff of   9.05,  9.05,  9.44 a.u.
   NGXF,Y,Z  is equivalent  to a cutoff of  18.11, 18.11, 18.87 a.u.

 SYSTEM =  unknown system                          
 POSCAR =  Au-Cr-N                                 

 Startparameter for this run:
   NWRITE =      2    write-flag & timer
   PREC   = normal    normal or accurate (medium, high low for compatibility)
   ISTART =      0    job   : 0-new  1-cont  2-samecut
   ICHARG =     11    charge: 1-file 2-atom 10-const
   ISPIN  =      1    spin polarized calculation?
   LNONCOLLINEAR =      F non collinear calculations
   LSORBIT =      F    spin-orbit coupling
   INIWAV =      1    electr: 0-lowe 1-rand  2-diag
   LASPH  =      F    aspherical Exc in radial PAW
   METAGGA=      F    non-selfconsistent MetaGGA calc.

 Electronic Relaxation 1
   ENCUT  =  500.0 eV  36.75 Ry    6.06 a.u.  16.07 16.07 40.47*2*pi/ulx,y,z
   ENINI  =  500.0     initial cutoff
   ENAUG  =  627.1 eV  augmentation charge cutoff
   NELM   =    150;   NELMIN=  2; NELMDL= -5     # of ELM steps 
   EDIFF  = 0.1E-04   stopping-criterion for ELM
   LREAL  =      T    real-space projection
   NLSPLINE    = F    spline interpolate recip. space projectors
   LCOMPAT=      F    compatible to vasp.4.4
   GGA_COMPAT  = T    GGA compatible to vasp.4.4-vasp.4.6
   LMAXPAW     = -100 max onsite density
   LMAXMIX     =    2 max onsite mixed and CHGCAR
   VOSKOWN=      0    Vosko Wilk Nusair interpolation
   ROPT   =   -0.00050  -0.00050  -0.00050
 Ionic relaxation
   EDIFFG = -.1E-01   stopping-criterion for IOM
   NSW    =      0    number of steps for IOM
   NBLOCK =      1;   KBLOCK =      1    inner block; outer block 
   IBRION =     -1    ionic relax: 0-MD 1-quasi-New 2-CG
   NFREE  =      1    steps in history (QN), initial steepest desc. (CG)
   ISIF   =      2    stress and relaxation
   IWAVPR =     10    prediction:  0-non 1-charg 2-wave 3-comb
   ISYM   =      2    0-nonsym 1-usesym 2-fastsym
   LCORR  =      T    Harris-Foulkes like correction to forces

   POTIM  = 0.5000    time-step for ionic-motion
   TEIN   =    0.0    initial temperature
   TEBEG  =    0.0;   TEEND  =   0.0 temperature during run
   SMASS  =  -3.00    Nose mass-parameter (am)
   estimated Nose-frequenzy (Omega)   =  0.10E-29 period in steps = 0.13E+47 mass=  -0.178E-26a.u.
   SCALEE = 1.0000    scale energy and forces
   NPACO  =    256;   APACO  = 16.0  distance and # of slots for P.C.
   PSTRESS=    0.0 pullay stress

  Mass of Ions in am
   POMASS = 196.97 52.00 14.00
  Ionic Valenz
   ZVAL   =  11.00  6.00  5.00
  Atomic Wigner-Seitz radii
   RWIGS  =  -1.00 -1.00 -1.00
  virtual crystal weights 
   VCA    =   1.00  1.00  1.00
   NELECT =     396.0000    total number of electrons
   NUPDOWN=      -1.0000    fix difference up-down

 DOS related values:
   EMIN   =  10.00;   EMAX   =-10.00  energy-range for DOS
   EFERMI =   0.00
   ISMEAR =    -5;   SIGMA  =   0.10  broadening in eV -4-tet -1-fermi 0-gaus

 Electronic relaxation 2 (details)
   IALGO  =     68    algorithm
   LDIAG  =      T    sub-space diagonalisation (order eigenvalues)
   LSUBROT=      F    optimize rotation matrix (better conditioning)
   TURBO    =      0    0=normal 1=particle mesh
   IRESTART =      0    0=no restart 2=restart with 2 vectors
   NREBOOT  =      0    no. of reboots
   NMIN     =      0    reboot dimension
   EREF     =   0.00    reference energy to select bands
   IMIX   =      4    mixing-type and parameters
     AMIX     =   0.40;   BMIX     =  1.00
     AMIX_MAG =   1.60;   BMIX_MAG =  1.00
     AMIN     =   0.10
     WC   =   100.;   INIMIX=   1;  MIXPRE=   1;  MAXMIX= -45

 Intra band minimization:
   WEIMIN = 0.0000     energy-eigenvalue tresh-hold
   EBREAK =  0.99E-08  absolut break condition
   DEPER  =   0.30     relativ break condition  

   TIME   =   0.40     timestep for ELM

  volume/ion in A,a.u.               =      40.36       272.33
  Fermi-wavevector in a.u.,A,eV,Ry     =   1.051810  1.987633 15.052193  1.106305
  Thomas-Fermi vector in A             =   2.186868
 
 Write flags
   LWAVE        =      F    write WAVECAR
   LDOWNSAMPLE  =      F    k-point downsampling of WAVECAR
   LCHARG       =      F    write CHGCAR
   LVTOT        =      F    write LOCPOT, total local potential
   LVHAR        =      F    write LOCPOT, Hartree potential only
   LELF         =      F    write electronic localiz. function (ELF)
   LORBIT       =     10    0 simple, 1 ext, 2 COOP (PROOUT), +10 PAW based schemes


 Dipole corrections
   LMONO  =      F    monopole corrections only (constant potential shift)
   LDIPOL =      F    correct potential (dipole corrections)
   IDIPOL =      0    1-x, 2-y, 3-z, 4-all directions 
   EPSILON=  1.0000000 bulk dielectric constant

 Exchange correlation treatment:
   GGA     =    --    GGA type
   LEXCH   =     8    internal setting for exchange type
   VOSKOWN=      0    Vosko Wilk Nusair interpolation
   LHFCALC =     F    Hartree Fock is set to
   LHFONE  =     F    Hartree Fock one center treatment
   AEXX    =    0.0000 exact exchange contribution

 Linear response parameters
   LEPSILON=     F    determine dielectric tensor
   LRPA    =     F    only Hartree local field effects (RPA)
   LNABLA  =     F    use nabla operator in PAW spheres
   LVEL    =     F    velocity operator in full k-point grid
   LINTERFAST=   F  fast interpolation
   KINTER  =     0    interpolate to denser k-point grid
   CSHIFT  =0.1000    complex shift for real part using Kramers Kronig
   OMEGAMAX=  -1.0    maximum frequency
   DEG_THRESHOLD= 0.2000000E-02 threshold for treating states as degnerate
   RTIME   =   -0.100 relaxation time in fs
  (WPLASMAI=    0.000 imaginary part of plasma frequency in eV, 0.658/RTIME)
   DFIELD  = 0.0000000 0.0000000 0.0000000 field for delta impulse in time
 
 Orbital magnetization related:
   ORBITALMAG=     F  switch on orbital magnetization
   LCHIMAG   =     F  perturbation theory with respect to B field
   DQ        =  0.001000  dq finite difference perturbation B field
   LLRAUG    =     F  two centre corrections for induced B field



--------------------------------------------------------------------------------------------------------


 Static calculation
 charge density and potential remain constant during run
 non-spin polarized calculation
 RMM-DIIS sequential band-by-band and
  variant of blocked Davidson during initial phase
 perform sub-space diagonalisation
    before iterative eigenvector-optimisation
 no mixing
 using additional bands           54
 real space projection scheme for non local part
 use partial core corrections
 calculate Harris-corrections to forces 
   (improved forces if not selfconsistent)
 use gradient corrections 
 WARNING: stress and forces are not correct
  (second derivative of E(xc) not defined)
 use of overlap-Matrix (Vanderbilt PP)
 Fermi weights with tetrahedron method with Bloechl corrections


--------------------------------------------------------------------------------------------------------


  energy-cutoff  :      500.00
  volume of cell :     1493.16
      direct lattice vectors                 reciprocal lattice vectors
     8.813512802  0.000000000  0.000000000     0.113462137 -0.065507406  0.000000000
     4.406756909  7.632725690  0.000000000     0.000000000  0.131014796  0.000000000
     0.000000000  0.000000000 22.196203232     0.000000000  0.000000000  0.045052750

  length of vectors
     8.813512802  8.813512802 22.196203232     0.131014796  0.131014796  0.045052750


 
 k-points in units of 2pi/SCALE and weight: Automatic mesh                          
   0.00000000  0.00000000  0.00000000       0.016
   0.01418277 -0.00818843  0.00000000       0.094
   0.02836553 -0.01637685  0.00000000       0.094
   0.04254830 -0.02456528  0.00000000       0.094
   0.05673107 -0.03275370  0.00000000       0.047
   0.02836553 -0.00000000  0.00000000       0.094
   0.04254830 -0.00818843  0.00000000       0.188
   0.05673107 -0.01637685  0.00000000       0.188
   0.05673107 -0.00000000  0.00000000       0.094
  -0.04254830  0.05731898  0.00000000       0.094
 
 k-points in reciprocal lattice and weights: Automatic mesh                          
   0.00000000  0.00000000  0.00000000       0.016
   0.12500000 -0.00000000  0.00000000       0.094
   0.25000000 -0.00000000  0.00000000       0.094
   0.37500000  0.00000000  0.00000000       0.094
   0.50000000 -0.00000000  0.00000000       0.047
   0.25000000  0.12500000  0.00000000       0.094
   0.37500000  0.12500000  0.00000000       0.188
   0.50000000  0.12500000  0.00000000       0.188
   0.50000000  0.25000000  0.00000000       0.094
  -0.37500000  0.25000000  0.00000000       0.094
 
 position of ions in fractional coordinates (direct lattice) 
   0.00000000  0.00000000  0.23789564
   0.33333334  0.00000000  0.23789564
   0.66666669  0.00000000  0.23789564
   0.00000000  0.33333334  0.23789564
   0.33333331  0.33333334  0.23789564
   0.66666669  0.33333334  0.23789564
   0.00000000  0.66666669  0.23789564
   0.33333334  0.66666669  0.23789564
   0.66666663  0.66666669  0.23789564
   0.11111112  0.11111111  0.34596521
   0.44444442  0.11111111  0.34596521
   0.77777779  0.11111111  0.34596521
   0.11111113  0.44444445  0.34596521
   0.44444448  0.44444445  0.34596521
   0.77777773  0.44444445  0.34596521
   0.11111109  0.77777779  0.34596521
   0.44444445  0.77777779  0.34596521
   0.77777785  0.77777779  0.34596521
   0.88891208  0.22217586  0.45390710
   0.22329876  0.22329875  0.45272192
   0.55340254  0.22329875  0.45272192
   0.88629239  0.55685383  0.45313435
   0.22329872  0.55340254  0.45272192
   0.55685383  0.55685383  0.45313435
   0.88891208  0.88891208  0.45390710
   0.22217589  0.88891208  0.45390710
   0.55685377  0.88629239  0.45313435
   0.00000000  0.00000000  0.56261773
   0.33365273  0.01095203  0.56232701
   0.65539527  0.01095203  0.56232701
   0.01095203  0.33365273  0.56232701
   0.65539527  0.33365273  0.56232701
   0.01095203  0.65539527  0.56232701
   0.33365273  0.65539527  0.56232701
   0.66666663  0.66666669  0.56297037
   0.33333331  0.33333334  0.54856968
   0.33333331  0.33333334  0.62011332
 
 position of ions in cartesian coordinates  (Angst):
   0.00000000  0.00000000  5.28037993
   2.93783769  0.00000000  5.28037993
   5.87567538  0.00000000  5.28037993
   1.46891901  2.54424197  5.28037993
   4.40675643  2.54424197  5.28037993
   7.34459439  2.54424197  5.28037993
   2.93783803  5.08848395  5.28037993
   5.87567571  5.08848395  5.28037993
   8.81351288  5.08848395  5.28037993
   1.46891893  0.84808064  7.67911405
   4.40675623  0.84808064  7.67911405
   7.34459418  0.84808064  7.67911405
   2.93783798  3.39232256  7.67911405
   5.87567574  3.39232256  7.67911405
   8.81351263  3.39232256  7.67911405
   4.40675667  5.93656453  7.67911405
   7.34459449  5.93656453  7.67911405
  10.28243270  5.93656453  7.67911405
   8.81351299  1.69580738 10.07501421
   2.95206978  1.70437808 10.04870776
   5.86144364  1.70437808 10.04870776
  10.26526884  4.25031255 10.05786203
   4.40675655  4.22396977 10.04870776
   7.36175786  4.25031255 10.05786203
  11.75165743  6.78482206 10.07501421
   5.87536948  6.78482206 10.07501421
   8.81351299  6.76482673 10.05786203
   0.00000000  0.00000000 12.48797758
   2.98891551  0.08359383 12.48152458
   5.82459757  0.08359383 12.48152458
   1.56685231  2.54667974 12.48152458
   7.24666110  2.54667974 12.48152458
   2.98469350  5.00245235 12.48152458
   5.82882023  5.00245235 12.48152458
   8.81351288  5.08848395 12.49580478
   4.40675643  2.54424197 12.17616408
   4.40675643  2.54424197 13.76416134
 


--------------------------------------------------------------------------------------------------------


 k-point   1 :   0.0000 0.0000 0.0000  plane waves:   37827
 k-point   2 :   0.1250-0.0000 0.0000  plane waves:   37876
 k-point   3 :   0.2500-0.0000 0.0000  plane waves:   37924
 k-point   4 :   0.3750 0.0000 0.0000  plane waves:   37904
 k-point   5 :   0.5000-0.0000 0.0000  plane waves:   37912
 k-point   6 :   0.2500 0.1250 0.0000  plane waves:   37858
 k-point   7 :   0.3750 0.1250 0.0000  plane waves:   37928
 k-point   8 :   0.5000 0.1250 0.0000  plane waves:   37924
 k-point   9 :   0.5000 0.2500 0.0000  plane waves:   37926
 k-point  10 :  -0.3750 0.2500 0.0000  plane waves:   37916

 maximum and minimum number of plane-waves per node :     37928    37827

 maximum number of plane-waves:     37928
 maximum index in each direction: 
   IXMAX=   16   IYMAX=   16   IZMAX=   40
   IXMIN=  -16   IYMIN=  -16   IZMIN=  -40


 serial   3D FFT for wavefunctions
 parallel 3D FFT for charge:
    minimum data exchange during FFTs selected (reduces bandwidth)


 total amount of memory used by VASP MPI-rank0   122056. kBytes
=======================================================================

   base      :      30000. kBytes
   nonlr-proj:      13671. kBytes
   fftplans  :       4330. kBytes
   grid      :      17879. kBytes
   one-center:        575. kBytes
   wavefun   :      55601. kBytes
 
     INWAV:  cpu time    0.0000: real time    0.0001
 initial charge density was supplied:
 number of electron     396.0000036 magnetization 
 keeping initial charge density in first step


--------------------------------------------------------------------------------------------------------


 Maximum index for non-local projection operator         2284
 Maximum index for augmentation-charges          858 (set IRDMAX)


--------------------------------------------------------------------------------------------------------


 First call to EWALD:  gamma=   0.155
 Maximum number of real-space cells 4x 4x 2
 Maximum number of reciprocal cells 2x 2x 5

    FEWALD:  cpu time    0.0013: real time    0.0013


--------------------------------------- Iteration      1(   1)  ---------------------------------------


    POTLOK:  cpu time    0.0429: real time    0.0433
    SETDIJ:  cpu time    0.0051: real time    0.0052
     EDDAV:  cpu time    7.1031: real time    7.1046
 BZINTS: Fermi energy:   11.528280;  396.000000 electrons
         Band energy: 0.156458E+04;  BLOECHL correction:   -0.029161
       DOS:  cpu time    0.0106: real time    0.0107
    --------------------------------------------
      LOOP:  cpu time    7.1617: real time    7.1637

 eigenvalue-minimisations  :  5040
 total energy-change (2. order) : 0.2673380E+04  (-0.1786394E+05)
 number of electron     396.0000036 magnetization 
 augmentation part      396.0000036 magnetization 

 Free energy of the ion-electron system (eV)
  ---------------------------------------------------
  alpha Z        PSCENC =      1006.89198284
  Ewald energy   TEWEN  =     96295.16188903
  -Hartree energ DENC   =   -130412.22931206
  -exchange      EXHF   =         0.00000000
  -V(xc)+E(xc)   XCENC  =       517.12036059
  PAW double counting   =     35958.02074827   -35210.46691019
  entropy T*S    EENTRO =         0.00000000
  eigenvalues    EBANDS =      1564.57594546
  atomic energy  EATOM  =     32954.30574590
  Solvation  Ediel_sol  =         0.00000000
  ---------------------------------------------------
  free energy    TOTEN  =      2673.38044983 eV

  energy without entropy =     2673.38044983  energy(sigma->0) =     2673.38044983


--------------------------------------------------------------------------------------------------------




--------------------------------------- Iteration      1(   2)  ---------------------------------------


     EDDAV:  cpu time    7.5413: real time    7.5444
 BZINTS: Fermi energy:    1.530795;  396.000000 electrons
         Band energy:-0.108251E+04;  BLOECHL correction:   -0.052531
       DOS:  cpu time    0.0092: real time    0.0092
    --------------------------------------------
      LOOP:  cpu time    7.5505: real time    7.5536

 eigenvalue-minimisations  :  5460
 total energy-change (2. order) :-0.2647089E+04  (-0.2434681E+04)
 number of electron     396.0000036 magnetization 
 augmentation part      396.0000036 magnetization 

 Free energy of the ion-electron system (eV)
  ---------------------------------------------------
  alpha Z        PSCENC =      1006.89198284
  Ewald energy   TEWEN  =     96295.16188903
  -Hartree energ DENC   =   -130412.22931206
  -exchange      EXHF   =         0.00000000
  -V(xc)+E(xc)   XCENC  =       517.12036059
  PAW double counting   =     35958.02074827   -35210.46691019
  entropy T*S    EENTRO =         0.00000000
  eigenvalues    EBANDS =     -1082.51332549
  atomic energy  EATOM  =     32954.30574590
  Solvation  Ediel_sol  =         0.00000000
  ---------------------------------------------------
  free energy    TOTEN  =        26.29117888 eV

  energy without entropy =       26.29117888  energy(sigma->0) =       26.29117888


--------------------------------------------------------------------------------------------------------




--------------------------------------- Iteration      1(   3)  ---------------------------------------


     EDDAV:  cpu time    7.9988: real time    7.9989
 BZINTS: Fermi energy:    0.677898;  396.000000 electrons
         Band energy:-0.122720E+04;  BLOECHL correction:   -0.045877
       DOS:  cpu time    0.0098: real time    0.0098
    --------------------------------------------
      LOOP:  cpu time    8.0086: real time    8.0088

 eigenvalue-minimisations  :  5852
 total energy-change (2. order) :-0.1446901E+03  (-0.1380874E+03)
 number of electron     396.0000036 magnetization 
 augmentation part      396.0000036 magnetization 

 Free energy of the ion-electron system (eV)
  ---------------------------------------------------
  alpha Z        PSCENC =      1006.89198284
  Ewald energy   TEWEN  =     96295.16188903
  -Hartree energ DENC   =   -130412.22931206
  -exchange      EXHF   =         0.00000000
  -V(xc)+E(xc)   XCENC  =       517.12036059
  PAW double counting   =     35958.02074827   -35210.46691019
  entropy T*S    EENTRO =         0.00000000
  eigenvalues    EBANDS =     -1227.20340025
  atomic energy  EATOM  =     32954.30574590
  Solvation  Ediel_sol  =         0.00000000
  ---------------------------------------------------
  free energy    TOTEN  =      -118.39889588 eV

  energy without entropy =     -118.39889588  energy(sigma->0) =     -118.39889588


--------------------------------------------------------------------------------------------------------




--------------------------------------- Iteration      1(   4)  ---------------------------------------


     EDDAV:  cpu time    7.6550: real time    7.6552
 BZINTS: Fermi energy:    0.657948;  396.000000 electrons
         Band energy:-0.123103E+04;  BLOECHL correction:   -0.044532
       DOS:  cpu time    0.0107: real time    0.0107
    --------------------------------------------
      LOOP:  cpu time    7.6657: real time    7.6659

 eigenvalue-minimisations  :  5544
 total energy-change (2. order) :-0.3822286E+01  (-0.3809250E+01)
 number of electron     396.0000036 magnetization 
 augmentation part      396.0000036 magnetization 

 Free energy of the ion-electron system (eV)
  ---------------------------------------------------
  alpha Z        PSCENC =      1006.89198284
  Ewald energy   TEWEN  =     96295.16188903
  -Hartree energ DENC   =   -130412.22931206
  -exchange      EXHF   =         0.00000000
  -V(xc)+E(xc)   XCENC  =       517.12036059
  PAW double counting   =     35958.02074827   -35210.46691019
  entropy T*S    EENTRO =         0.00000000
  eigenvalues    EBANDS =     -1231.02568646
  atomic energy  EATOM  =     32954.30574590
  Solvation  Ediel_sol  =         0.00000000
  ---------------------------------------------------
  free energy    TOTEN  =      -122.22118209 eV

  energy without entropy =     -122.22118209  energy(sigma->0) =     -122.22118209


--------------------------------------------------------------------------------------------------------




--------------------------------------- Iteration      1(   5)  ---------------------------------------


     EDDAV:  cpu time    8.4718: real time    8.4719
 BZINTS: Fermi energy:    0.657468;  396.000000 electrons
         Band energy:-0.123116E+04;  BLOECHL correction:   -0.044464
       DOS:  cpu time    0.0102: real time    0.0102
    --------------------------------------------
      LOOP:  cpu time    8.4820: real time    8.4821

 eigenvalue-minimisations  :  6272
 total energy-change (2. order) :-0.1350179E+00  (-0.1350258E+00)
 number of electron     396.0000036 magnetization 
 augmentation part      396.0000036 magnetization 

 Free energy of the ion-electron system (eV)
  ---------------------------------------------------
  alpha Z        PSCENC =      1006.89198284
  Ewald energy   TEWEN  =     96295.16188903
  -Hartree energ DENC   =   -130412.22931206
  -exchange      EXHF   =         0.00000000
  -V(xc)+E(xc)   XCENC  =       517.12036059
  PAW double counting   =     35958.02074827   -35210.46691019
  entropy T*S    EENTRO =         0.00000000
  eigenvalues    EBANDS =     -1231.16070434
  atomic energy  EATOM  =     32954.30574590
  Solvation  Ediel_sol  =         0.00000000
  ---------------------------------------------------
  free energy    TOTEN  =      -122.35619997 eV

  energy without entropy =     -122.35619997  energy(sigma->0) =     -122.35619997


--------------------------------------------------------------------------------------------------------




--------------------------------------- Iteration      1(   6)  ---------------------------------------


    EDDIAG:  cpu time    1.3966: real time    1.3968
  RMM-DIIS:  cpu time    4.0549: real time    4.0550
    ORTHCH:  cpu time    0.2612: real time    0.2612
 BZINTS: Fermi energy:    0.657465;  396.000000 electrons
         Band energy:-0.123116E+04;  BLOECHL correction:   -0.044466
       DOS:  cpu time    0.0109: real time    0.0109
    --------------------------------------------
      LOOP:  cpu time    5.7236: real time    5.7238

 eigenvalue-minimisations  :  5167
 total energy-change (2. order) :-0.3514201E-02  (-0.3512338E-02)
 number of electron     396.0000036 magnetization 
 augmentation part      396.0000036 magnetization 

 Free energy of the ion-electron system (eV)
  ---------------------------------------------------
  alpha Z        PSCENC =      1006.89198284
  Ewald energy   TEWEN  =     96295.16188903
  -Hartree energ DENC   =   -130412.22931206
  -exchange      EXHF   =         0.00000000
  -V(xc)+E(xc)   XCENC  =       517.12036059
  PAW double counting   =     35958.02074827   -35210.46691019
  entropy T*S    EENTRO =         0.00000000
  eigenvalues    EBANDS =     -1231.16421855
  atomic energy  EATOM  =     32954.30574590
  Solvation  Ediel_sol  =         0.00000000
  ---------------------------------------------------
  free energy    TOTEN  =      -122.35971417 eV

  energy without entropy =     -122.35971417  energy(sigma->0) =     -122.35971417


--------------------------------------------------------------------------------------------------------




--------------------------------------- Iteration      1(   7)  ---------------------------------------


    EDDIAG:  cpu time    1.3976: real time    1.3977
  RMM-DIIS:  cpu time    5.6886: real time    5.6886
    ORTHCH:  cpu time    0.2603: real time    0.2603
 BZINTS: Fermi energy:    0.657464;  396.000000 electrons
         Band energy:-0.123117E+04;  BLOECHL correction:   -0.044467
       DOS:  cpu time    0.0109: real time    0.0109
    --------------------------------------------
      LOOP:  cpu time    7.3574: real time    7.3575

 eigenvalue-minimisations  :  7368
 total energy-change (2. order) :-0.1768256E-02  (-0.1709271E-02)
 number of electron     396.0000036 magnetization 
 augmentation part      396.0000036 magnetization 

 Free energy of the ion-electron system (eV)
  ---------------------------------------------------
  alpha Z        PSCENC =      1006.89198284
  Ewald energy   TEWEN  =     96295.16188903
  -Hartree energ DENC   =   -130412.22931206
  -exchange      EXHF   =         0.00000000
  -V(xc)+E(xc)   XCENC  =       517.12036059
  PAW double counting   =     35958.02074827   -35210.46691019
  entropy T*S    EENTRO =         0.00000000
  eigenvalues    EBANDS =     -1231.16598680
  atomic energy  EATOM  =     32954.30574590
  Solvation  Ediel_sol  =         0.00000000
  ---------------------------------------------------
  free energy    TOTEN  =      -122.36148243 eV

  energy without entropy =     -122.36148243  energy(sigma->0) =     -122.36148243


--------------------------------------------------------------------------------------------------------




--------------------------------------- Iteration      1(   8)  ---------------------------------------


    EDDIAG:  cpu time    1.3990: real time    1.3991
  RMM-DIIS:  cpu time    4.7564: real time    4.7564
    ORTHCH:  cpu time    0.2601: real time    0.2601
 BZINTS: Fermi energy:    0.657464;  396.000000 electrons
         Band energy:-0.123117E+04;  BLOECHL correction:   -0.044467
       DOS:  cpu time    0.0102: real time    0.0102
    --------------------------------------------
      LOOP:  cpu time    6.4257: real time    6.4258

 eigenvalue-minimisations  :  6080
 total energy-change (2. order) :-0.1488149E-03  (-0.1465835E-03)
 number of electron     396.0000036 magnetization 
 augmentation part      396.0000036 magnetization 

 Free energy of the ion-electron system (eV)
  ---------------------------------------------------
  alpha Z        PSCENC =      1006.89198284
  Ewald energy   TEWEN  =     96295.16188903
  -Hartree energ DENC   =   -130412.22931206
  -exchange      EXHF   =         0.00000000
  -V(xc)+E(xc)   XCENC  =       517.12036059
  PAW double counting   =     35958.02074827   -35210.46691019
  entropy T*S    EENTRO =         0.00000000
  eigenvalues    EBANDS =     -1231.16613562
  atomic energy  EATOM  =     32954.30574590
  Solvation  Ediel_sol  =         0.00000000
  ---------------------------------------------------
  free energy    TOTEN  =      -122.36163125 eV

  energy without entropy =     -122.36163125  energy(sigma->0) =     -122.36163125


--------------------------------------------------------------------------------------------------------




--------------------------------------- Iteration      1(   9)  ---------------------------------------


    EDDIAG:  cpu time    1.3971: real time    1.3972
  RMM-DIIS:  cpu time    5.2766: real time    5.2766
    ORTHCH:  cpu time    0.2601: real time    0.2601
 BZINTS: Fermi energy:    0.657464;  396.000000 electrons
         Band energy:-0.123117E+04;  BLOECHL correction:   -0.044467
       DOS:  cpu time    0.0091: real time    0.0091
    --------------------------------------------
      LOOP:  cpu time    6.9429: real time    6.9430

 eigenvalue-minimisations  :  6508
 total energy-change (2. order) :-0.3739656E-04  (-0.3704392E-04)
 number of electron     396.0000036 magnetization 
 augmentation part      396.0000036 magnetization 

 Free energy of the ion-electron system (eV)
  ---------------------------------------------------
  alpha Z        PSCENC =      1006.89198284
  Ewald energy   TEWEN  =     96295.16188903
  -Hartree energ DENC   =   -130412.22931206
  -exchange      EXHF   =         0.00000000
  -V(xc)+E(xc)   XCENC  =       517.12036059
  PAW double counting   =     35958.02074827   -35210.46691019
  entropy T*S    EENTRO =         0.00000000
  eigenvalues    EBANDS =     -1231.16617301
  atomic energy  EATOM  =     32954.30574590
  Solvation  Ediel_sol  =         0.00000000
  ---------------------------------------------------
  free energy    TOTEN  =      -122.36166864 eV

  energy without entropy =     -122.36166864  energy(sigma->0) =     -122.36166864


--------------------------------------------------------------------------------------------------------




--------------------------------------- Iteration      1(  10)  ---------------------------------------


    EDDIAG:  cpu time    1.3978: real time    1.3978
  RMM-DIIS:  cpu time    3.0840: real time    3.0840
    ORTHCH:  cpu time    0.2604: real time    0.2604
 BZINTS: Fermi energy:    0.657464;  396.000000 electrons
         Band energy:-0.123117E+04;  BLOECHL correction:   -0.044467
       DOS:  cpu time    0.0104: real time    0.0104
    --------------------------------------------
      LOOP:  cpu time    4.7526: real time    4.7527

 eigenvalue-minimisations  :  3413
 total energy-change (2. order) :-0.1981651E-05  (-0.1935791E-05)
 number of electron     396.0000036 magnetization 
 augmentation part      396.0000036 magnetization 

 Free energy of the ion-electron system (eV)
  ---------------------------------------------------
  alpha Z        PSCENC =      1006.89198284
  Ewald energy   TEWEN  =     96295.16188903
  -Hartree energ DENC   =   -130412.22931206
  -exchange      EXHF   =         0.00000000
  -V(xc)+E(xc)   XCENC  =       517.12036059
  PAW double counting   =     35958.02074827   -35210.46691019
  entropy T*S    EENTRO =         0.00000000
  eigenvalues    EBANDS =     -1231.16617499
  atomic energy  EATOM  =     32954.30574590
  Solvation  Ediel_sol  =         0.00000000
  ---------------------------------------------------
  free energy    TOTEN  =      -122.36167062 eV

  energy without entropy =     -122.36167062  energy(sigma->0) =     -122.36167062


--------------------------------------------------------------------------------------------------------




 average (electrostatic) potential at core
  the test charge radii are     1.2098  1.1394  0.7089
  (the norm of the test charge is              1.0000)
       1 -72.3819       2 -72.3714       3 -72.3713       4 -72.3714       5 -72.3782
       6 -72.3711       7 -72.3713       8 -72.3711       9 -72.3680      10 -72.7181
      11 -72.7035      12 -72.7179      13 -72.7035      14 -72.7033      15 -72.7101
      16 -72.7179      17 -72.7101      18 -72.7102      19 -72.6550      20 -72.9256
      21 -72.9256      22 -72.6953      23 -72.9256      24 -72.6953      25 -72.6550
      26 -72.6550      27 -72.6953      28 -72.3180      29 -72.3980      30 -72.3980
      31 -72.3980      32 -72.3979      33 -72.3980      34 -72.3979      35 -72.2868
      36 -48.6367      37 -68.4010
 
 
 
 E-fermi :   0.6575     XC(G=0):  -6.1207     alpha+bet : -5.7509

 Fermi energy:         0.6574640244

 k-point     1 :       0.0000    0.0000    0.0000
  band No.  band energies     occupation 
      1     -12.4303      2.00000
      2      -8.1722      2.00000
      3      -6.9713      2.00000
      4      -6.0623      2.00000
      5      -6.0444      2.00000
      6      -6.0444      2.00000
      7      -6.0283      2.00000
      8      -6.0075      2.00000
      9      -5.9780      2.00000
     10      -5.9780      2.00000
     11      -5.8856      2.00000
     12      -5.5609      2.00000
     13      -5.5572      2.00000
     14      -5.5572      2.00000
     15      -5.5119      2.00000
     16      -5.4874      2.00000
     17      -5.4874      2.00000
     18      -5.1755      2.00000
     19      -5.1755      2.00000
     20      -5.1555      2.00000
     21      -5.1374      2.00000
     22      -5.1019      2.00000
     23      -5.1019      2.00000
     24      -4.9884      2.00000
     25      -4.9815      2.00000
     26      -4.9815      2.00000
     27      -4.9532      2.00000
     28      -4.9532      2.00000
     29      -4.9484      2.00000
     30      -4.8195      2.00000
     31      -4.8194      2.00000
     32      -4.8094      2.00000
     33      -4.7969      2.00000
     34      -4.7969      2.00000
     35      -4.7846      2.00000
     36      -4.7830      2.00000
     37      -4.7830      2.00000
     38      -4.7636      2.00000
     39      -4.6608      2.00000
     40      -4.6424      2.00000
     41      -4.6424      2.00000
     42      -4.2950      2.00000
     43      -4.2942      2.00000
     44      -4.2942      2.00000
     45      -4.2768      2.00000
     46      -4.2768      2.00000
     47      -4.2326      2.00000
     48      -4.2326      2.00000
     49      -4.2174      2.00000
     50      -4.1887      2.00000
     51      -4.1887      2.00000
     52      -4.1368      2.00000
     53      -4.1249      2.00000
     54      -4.1126      2.00000
     55      -4.0860      2.00000
     56      -3.7292      2.00000
     57      -3.7292      2.00000
     58      -3.7259      2.00000
     59      -3.7062      2.00000
     60      -3.6961      2.00000
     61      -3.6961      2.00000
     62      -3.6898      2.00000
     63      -3.6455      2.00000
     64      -3.6454      2.00000
     65      -3.5987      2.00000
     66      -3.5987      2.00000
     67      -3.5784      2.00000
     68      -3.5784      2.00000
     69      -3.5490      2.00000
     70      -3.5183      2.00000
     71      -3.5182      2.00000
     72      -3.5101      2.00000
     73      -3.4542      2.00000
     74      -3.4542      2.00000
     75      -3.4508      2.00000
     76      -3.4448      2.00000
     77      -3.4448      2.00000
     78      -3.4427      2.00000
     79      -3.4289      2.00000
     80      -3.4289      2.00000
     81      -3.4196      2.00000
     82      -3.4196      2.00000
     83      -3.3894      2.00000
     84      -3.3394      2.00000
     85      -3.3394      2.00000
     86      -3.3339      2.00000
     87      -3.3339      2.00000
     88      -3.3106      2.00000
     89      -3.2991      2.00000
     90      -3.2991      2.00000
     91      -3.2807      2.00000
     92      -3.2046      2.00000
     93      -3.2046      2.00000
     94      -3.0963      2.00000
     95      -3.0963      2.00000
     96      -3.0132      2.00000
     97      -3.0132      2.00000
     98      -3.0063      2.00000
     99      -3.0063      2.00000
    100      -2.8718      2.00000
    101      -2.8567      2.00000
    102      -2.8567      2.00000
    103      -2.8341      2.00000
    104      -2.8341      2.00000
    105      -2.8263      2.00000
    106      -2.6737      2.00000
    107      -2.6514      2.00000
    108      -2.6513      2.00000
    109      -2.6423      2.00000
    110      -2.6291      2.00000
    111      -2.6291      2.00000
    112      -2.6096      2.00000
    113      -2.6096      2.00000
    114      -2.5744      2.00000
    115      -2.5276      2.00000
    116      -2.5167      2.00000
    117      -2.4724      2.00000
    118      -2.4724      2.00000
    119      -2.3824      2.00000
    120      -2.3333      2.00000
    121      -2.3333      2.00000
    122      -2.3249      2.00000
    123      -2.2735      2.00000
    124      -2.2735      2.00000
    125      -2.2406      2.00000
    126      -2.2406      2.00000
    127      -2.2286      2.00000
    128      -2.2286      2.00000
    129      -2.1831      2.00000
    130      -2.1831      2.00000
    131      -2.0915      2.00000
    132      -2.0901      2.00000
    133      -2.0901      2.00000
    134      -2.0725      2.00000
    135      -2.0694      2.00000
    136      -2.0694      2.00000
    137      -2.0584      2.00000
    138      -2.0302      2.00000
    139      -2.0301      2.00000
    140      -1.9448      2.00000
    141      -1.9448      2.00000
    142      -1.9440      2.00000
    143      -1.8848      2.00000
    144      -1.8445      2.00000
    145      -1.8445      2.00000
    146      -1.8354      2.00000
    147      -1.8212      2.00000
    148      -1.8212      2.00000
    149      -1.8045      2.00000
    150      -1.8044      2.00000
    151      -1.7883      2.00000
    152      -1.7584      2.00000
    153      -1.7581      2.00000
    154      -1.7581      2.00000
    155      -1.7333      2.00000
    156      -1.6904      2.00000
    157      -1.6904      2.00000
    158      -1.6661      2.00000
    159      -1.6283      2.00000
    160      -1.6276      2.00000
    161      -1.6276      2.00000
    162      -1.6210      2.00000
    163      -1.5945      2.00000
    164      -1.5944      2.00000
    165      -1.5790      2.00000
    166      -1.5790      2.00000
    167      -1.5725      2.00000
    168      -1.5534      2.00000
    169      -1.5533      2.00000
    170      -1.5087      2.00000
    171      -1.5067      2.00000
    172      -1.5066      2.00000
    173      -1.4982      2.00000
    174      -1.4870      2.00000
    175      -1.4806      2.00000
    176      -1.4806      2.00000
    177      -1.4794      2.00000
    178      -1.4405      2.00000
    179      -1.4309      2.00000
    180      -1.4309      2.00000
    181      -1.3937      2.00000
    182      -1.3937      2.00000
    183      -1.3743      2.00000
    184      -1.3651      2.00000
    185      -1.3588      2.00000
    186      -1.3588      2.00000
    187      -1.2362      2.00000
    188      -1.2361      2.00000
    189      -1.2030      2.00000
    190      -1.1918      2.00000
    191      -1.1917      2.00000
    192      -1.1516      2.00000
    193      -1.0824      2.00000
    194      -1.0824      2.00000
    195      -0.2960      2.00000
    196       0.0692      2.00000
    197       0.0799      2.00000
    198       0.0799      2.00000
    199       0.1708      2.00000
    200       0.2221      2.00000
    201       0.2221      2.00000
    202       0.6791      0.00000
    203       0.6791      0.00000
    204       1.1512      0.00000
    205       2.0290      0.00000
    206       2.2200      0.00000
    207       2.2609      0.00000
    208       2.2609      0.00000
    209       2.3346      0.00000
    210       2.3346      0.00000
    211       2.4755      0.00000
    212       2.4755      0.00000
    213       3.4305      0.00000
    214       3.4305      0.00000
    215       3.4959      0.00000
    216       3.5863      0.00000
    217       3.6085      0.00000
    218       3.6085      0.00000
    219       3.9692      0.00000
    220       4.0765      0.00000
    221       4.9189      0.00000
    222       5.2479      0.00000
    223       5.2479      0.00000
    224       5.2966      0.00000
    225       5.3679      0.00000
    226       5.3679      0.00000
    227       5.4156      0.00000
    228       5.4156      0.00000
    229       5.4225      0.00000
    230       5.6213      0.00000
    231       5.6213      0.00000
    232       5.7442      0.00000
    233       5.7677      0.00000
    234       6.1209      0.00000
    235       6.8179      0.00000
    236       6.9291      0.00000
    237       6.9456      0.00000
    238       6.9457      0.00000
    239       7.0007      0.00000
    240       7.0008      0.00000
    241       7.0176      0.00000
    242       7.0732      0.00000
    243       7.0741      0.00000
    244       7.1123      0.00000
    245       7.2345      0.00000
    246       7.2366      0.00000
    247       7.2556      0.00000
    248       7.3739      0.00000
    249       7.3752      0.00000
    250       7.4502      0.00000
    251       7.5522      0.00000
    252       7.5626      0.00000

 k-point     2 :       0.1250   -0.0000    0.0000
  band No.  band energies     occupation 
      1     -12.4301      2.00000
      2      -8.1215      2.00000
      3      -6.9221      2.00000
      4      -6.2755      2.00000
      5      -6.0984      2.00000
      6      -6.0927      2.00000
      7      -5.9835      2.00000
      8      -5.9223      2.00000
      9      -5.8919      2.00000
     10      -5.8834      2.00000
     11      -5.8394      2.00000
     12      -5.5901      2.00000
     13      -5.5388      2.00000
     14      -5.5336      2.00000
     15      -5.5261      2.00000
     16      -5.4766      2.00000
     17      -5.4647      2.00000
     18      -5.2155      2.00000
     19      -5.1647      2.00000
     20      -5.1642      2.00000
     21      -5.1189      2.00000
     22      -5.0857      2.00000
     23      -5.0850      2.00000
     24      -5.0376      2.00000
     25      -4.9928      2.00000
     26      -4.9859      2.00000
     27      -4.9415      2.00000
     28      -4.9252      2.00000
     29      -4.8829      2.00000
     30      -4.8822      2.00000
     31      -4.8729      2.00000
     32      -4.8566      2.00000
     33      -4.8396      2.00000
     34      -4.7825      2.00000
     35      -4.7657      2.00000
     36      -4.7491      2.00000
     37      -4.6863      2.00000
     38      -4.6676      2.00000
     39      -4.6284      2.00000
     40      -4.6177      2.00000
     41      -4.6125      2.00000
     42      -4.3632      2.00000
     43      -4.3607      2.00000
     44      -4.3339      2.00000
     45      -4.3162      2.00000
     46      -4.3048      2.00000
     47      -4.2874      2.00000
     48      -4.2568      2.00000
     49      -4.1865      2.00000
     50      -4.1659      2.00000
     51      -4.1307      2.00000
     52      -4.1032      2.00000
     53      -4.1018      2.00000
     54      -4.0837      2.00000
     55      -4.0739      2.00000
     56      -3.7856      2.00000
     57      -3.7577      2.00000
     58      -3.7489      2.00000
     59      -3.7467      2.00000
     60      -3.7205      2.00000
     61      -3.7018      2.00000
     62      -3.7003      2.00000
     63      -3.6893      2.00000
     64      -3.6705      2.00000
     65      -3.6515      2.00000
     66      -3.6390      2.00000
     67      -3.6289      2.00000
     68      -3.6240      2.00000
     69      -3.5996      2.00000
     70      -3.5889      2.00000
     71      -3.5607      2.00000
     72      -3.5520      2.00000
     73      -3.5221      2.00000
     74      -3.5147      2.00000
     75      -3.4952      2.00000
     76      -3.4866      2.00000
     77      -3.4519      2.00000
     78      -3.4336      2.00000
     79      -3.4110      2.00000
     80      -3.4094      2.00000
     81      -3.3794      2.00000
     82      -3.3707      2.00000
     83      -3.3571      2.00000
     84      -3.3314      2.00000
     85      -3.3258      2.00000
     86      -3.3061      2.00000
     87      -3.2898      2.00000
     88      -3.2699      2.00000
     89      -3.2599      2.00000
     90      -3.2421      2.00000
     91      -3.2230      2.00000
     92      -3.1764      2.00000
     93      -3.1561      2.00000
     94      -3.1180      2.00000
     95      -3.1134      2.00000
     96      -3.0700      2.00000
     97      -3.0656      2.00000
     98      -2.9748      2.00000
     99      -2.9541      2.00000
    100      -2.9407      2.00000
    101      -2.8793      2.00000
    102      -2.8718      2.00000
    103      -2.8621      2.00000
    104      -2.8232      2.00000
    105      -2.8054      2.00000
    106      -2.7868      2.00000
    107      -2.7385      2.00000
    108      -2.6806      2.00000
    109      -2.6741      2.00000
    110      -2.6664      2.00000
    111      -2.6422      2.00000
    112      -2.6394      2.00000
    113      -2.6222      2.00000
    114      -2.6028      2.00000
    115      -2.5893      2.00000
    116      -2.5716      2.00000
    117      -2.5523      2.00000
    118      -2.5518      2.00000
    119      -2.5258      2.00000
    120      -2.4714      2.00000
    121      -2.4159      2.00000
    122      -2.4073      2.00000
    123      -2.3270      2.00000
    124      -2.3100      2.00000
    125      -2.2950      2.00000
    126      -2.2542      2.00000
    127      -2.2349      2.00000
[...]
  0.000   0.000   0.000   0.000   0.000   0.000   0.000   0.000   0.000   0.000   0.000   0.000   0.000   0.000   0.000   0.000
  0.000   0.000   0.000   0.000   0.000   0.000   0.000   0.000   0.000   0.000   0.000   0.000   0.000   0.000   0.000   0.000
  0.000   0.000   0.000   0.000   0.000   0.000   0.000   0.000   0.000   0.000   0.000   0.000   0.000   0.000   0.000   0.000
  0.000   0.000   0.000   0.000   0.000   0.000   0.000   0.000   0.000   0.000   0.000   0.000   0.000   0.000   0.000   0.000
  0.000   0.000   0.000   0.000   0.000   0.000   0.000   0.000   0.000   0.000   0.000   0.000   0.000   0.000   0.000   0.000
  0.000   0.000   0.000   0.000   0.000   0.000   0.000   0.000   0.000   0.000   1.000   0.000   0.000   0.000   0.000   0.000
  0.000   0.000   0.000   0.000   0.000   0.000   0.000   0.000   0.000   0.000   0.000   0.000   0.000   0.000   0.000   0.000
  0.000   0.000   0.000   0.000   0.000   0.000   0.000   0.000   0.000   0.000   0.000   0.000   0.000   0.000   0.000   0.000
  0.000   0.000   0.000   0.000   0.000   0.000   0.000   0.000   0.000   0.000   0.000   0.000   0.000   0.000   0.000   0.000
  0.000   0.000   0.000   0.000   0.000   0.000   0.000   0.000   0.000   0.000   0.000   0.000   0.000   0.000   0.000   0.000
  0.000   0.000   0.000   0.000   0.000   0.000   0.000   0.000   0.000   0.000   0.000   0.000   0.000   0.000   0.000   0.000
  0.000   0.000   0.000   0.000   0.000   0.000   0.000   0.000   0.000   0.000   0.000   0.000   0.000   0.000   0.000   0.000
  0.000   0.000   0.000   0.000   0.000   0.000   0.000   0.000   0.000   0.000   0.000   0.000   0.000   0.000   0.000   0.000


------------------------ aborting loop because EDIFF is reached ----------------------------------------





 total charge

# of ion       s       p       d       tot
------------------------------------------
    1        0.547   0.240   8.765   9.552
    2        0.544   0.242   8.765   9.551
    3        0.544   0.242   8.765   9.551
    4        0.544   0.242   8.765   9.551
    5        0.542   0.241   8.765   9.547
    6        0.544   0.242   8.765   9.551
    7        0.544   0.242   8.765   9.551
    8        0.544   0.242   8.765   9.551
    9        0.543   0.241   8.767   9.551
   10        0.520   0.309   8.772   9.601
   11        0.519   0.311   8.776   9.606
   12        0.520   0.309   8.772   9.601
   13        0.519   0.311   8.776   9.606
   14        0.519   0.311   8.776   9.606
   15        0.516   0.311   8.773   9.600
   16        0.520   0.309   8.772   9.601
   17        0.516   0.311   8.773   9.600
   18        0.516   0.311   8.773   9.600
   19        0.517   0.298   8.777   9.592
   20        0.548   0.334   8.749   9.632
   21        0.548   0.334   8.749   9.632
   22        0.512   0.312   8.774   9.598
   23        0.548   0.334   8.749   9.632
   24        0.512   0.312   8.774   9.598
   25        0.517   0.298   8.777   9.592
   26        0.517   0.298   8.777   9.592
   27        0.512   0.312   8.774   9.598
   28        0.543   0.222   8.761   9.526
   29        0.554   0.239   8.759   9.552
   30        0.554   0.239   8.759   9.552
   31        0.554   0.239   8.759   9.552
   32        0.554   0.239   8.759   9.552
   33        0.554   0.239   8.759   9.552
   34        0.554   0.239   8.759   9.552
   35        0.540   0.224   8.761   9.525
   36        0.480   0.645   4.632   5.757
   37        1.357   2.185   0.000   3.542
--------------------------------------------------
tot         20.535  12.506 311.462 344.502
 
    CHARGE:  cpu time    0.3355: real time    0.3357
    FORLOC:  cpu time    0.0100: real time    0.0100
    FORNL :  cpu time    1.4511: real time    1.4512
    STRESS:  cpu time    4.3443: real time    4.3445
    FORCOR:  cpu time    0.0446: real time    0.0446
    FORHAR:  cpu time    0.0165: real time    0.0167
    OFIELD:  cpu time    0.0002: real time    0.0002

  FORCE on cell =-STRESS in cart. coord.  units (eV):
  Direction    XX          YY          ZZ          XY          YZ          ZX
  --------------------------------------------------------------------------------------
  Alpha Z  1006.89198  1006.89198  1006.89198
  Ewald  118814.82251118814.82292************    -0.00032    -0.00009    -0.00013
  Hartree127442.38005127442.38006************     0.00001    -0.00002    -0.00003
  E(xc)   -1774.23312 -1774.23310 -1782.58926    -0.00002     0.00000     0.00000
  Local  ************************258673.90328     0.00191     0.00003     0.00001
  n-local   -92.70093   -47.77285   -47.66034    22.95031    -1.54081     1.54690
  augment  2394.24957  2394.25108  2408.57148    -0.00130     0.00001     0.00006
  Kinetic  5487.68850  5495.66719  5535.72601     5.38955     0.22621     0.36264
  Fock        0.00000     0.00000     0.00000     0.00000     0.00000     0.00000
  -------------------------------------------------------------------------------------
  Total     -20.67347   -20.67347     1.56690    -0.00000     0.00000     0.00000
  in kB     -22.18281   -22.18281     1.68130    -0.00000     0.00000     0.00000
  external pressure =      -14.23 kB  Pullay stress =        0.00 kB


 VOLUME and BASIS-vectors are now :
 -----------------------------------------------------------------------------
  energy-cutoff  :      500.00
  volume of cell :     1493.16
      direct lattice vectors                 reciprocal lattice vectors
     8.813512802  0.000000000  0.000000000     0.113462137 -0.065507406  0.000000000
     4.406756909  7.632725690  0.000000000     0.000000000  0.131014796  0.000000000
     0.000000000  0.000000000 22.196203232     0.000000000  0.000000000  0.045052750

  length of vectors
     8.813512802  8.813512802 22.196203232     0.131014796  0.131014796  0.045052750


 FORCES acting on ions
    electron-ion (+dipol)            ewald-force                    non-local-force                 convergence-correction
 -----------------------------------------------------------------------------------------------
   -.195E-04 -.161E-04 0.248E+04   0.519E-04 0.433E-04 -.248E+04   -.131E-17 -.412E-17 -.533E+00   -.216E-03 -.138E-03 -.184E+00
   0.538E+00 0.868E-01 0.248E+04   -.555E+00 -.179E+00 -.248E+04   -.253E-01 0.112E-01 -.338E+00   0.442E-01 0.752E-01 -.165E+00
   -.538E+00 0.868E-01 0.248E+04   0.555E+00 -.179E+00 -.248E+04   0.253E-01 0.112E-01 -.338E+00   -.439E-01 0.771E-01 -.165E+00
   0.344E+00 0.422E+00 0.248E+04   -.432E+00 -.392E+00 -.248E+04   -.293E-02 -.276E-01 -.338E+00   0.873E-01 0.593E-03 -.165E+00
   0.892E-05 -.230E-04 0.248E+04   0.951E-04 0.174E-05 -.248E+04   0.450E-18 0.179E-18 -.413E+00   0.422E-02 0.257E-02 -.160E+00
   -.344E+00 0.422E+00 0.248E+04   0.432E+00 -.392E+00 -.248E+04   0.293E-02 -.276E-01 -.338E+00   -.887E-01 0.150E-02 -.164E+00
   -.194E+00 -.509E+00 0.248E+04   0.123E+00 0.570E+00 -.248E+04   0.224E-01 0.163E-01 -.338E+00   0.449E-01 -.765E-01 -.165E+00
   0.194E+00 -.509E+00 0.248E+04   -.123E+00 0.570E+00 -.248E+04   -.224E-01 0.163E-01 -.338E+00   -.431E-01 -.776E-01 -.165E+00
   0.196E-04 -.417E-04 0.248E+04   0.166E-03 -.201E-04 -.248E+04   -.428E-17 -.454E-18 -.421E+00   -.455E-02 -.235E-02 -.143E+00
   0.360E+01 0.208E+01 0.823E+03   -.361E+01 -.208E+01 -.822E+03   -.171E+00 -.986E-01 -.466E+00   0.160E+00 0.924E-01 0.523E+00
   0.145E-04 0.357E+01 0.829E+03   0.147E-03 -.384E+01 -.829E+03   0.257E-08 0.386E-01 -.472E+00   0.388E-02 0.188E+00 0.631E+00
   -.360E+01 0.208E+01 0.823E+03   0.361E+01 -.208E+01 -.822E+03   0.171E+00 -.986E-01 -.466E+00   -.161E+00 0.931E-01 0.522E+00
   0.309E+01 -.178E+01 0.829E+03   -.333E+01 0.192E+01 -.829E+03   0.334E-01 -.193E-01 -.472E+00   0.165E+00 -.903E-01 0.631E+00
   -.309E+01 -.178E+01 0.829E+03   0.333E+01 0.192E+01 -.829E+03   -.334E-01 -.193E-01 -.472E+00   -.158E+00 -.912E-01 0.629E+00
   0.313E-04 0.417E+01 0.827E+03   0.236E-03 -.426E+01 -.827E+03   0.152E-08 0.228E-01 -.410E+00   -.192E-02 0.260E-01 0.498E+00
   -.213E-04 -.416E+01 0.823E+03   0.162E-03 0.417E+01 -.822E+03   0.131E-07 0.197E+00 -.466E+00   -.278E-03 -.186E+00 0.522E+00
   0.361E+01 -.208E+01 0.827E+03   -.369E+01 0.213E+01 -.827E+03   0.198E-01 -.114E-01 -.410E+00   0.218E-01 -.142E-01 0.498E+00
   -.361E+01 -.208E+01 0.827E+03   0.369E+01 0.213E+01 -.827E+03   -.198E-01 -.114E-01 -.410E+00   -.214E-01 -.126E-01 0.499E+00
   -.414E-04 0.602E+00 -.861E+03   0.549E-04 -.799E+00 0.859E+03   0.461E-08 0.692E-01 0.729E+00   0.817E-03 0.977E-01 0.923E+00
   0.999E+01 0.577E+01 -.832E+03   -.999E+01 -.577E+01 0.831E+03   -.898E+00 -.518E+00 -.582E+00   0.701E+00 0.404E+00 0.164E+01
   -.999E+01 0.577E+01 -.832E+03   0.999E+01 -.577E+01 0.831E+03   0.898E+00 -.518E+00 -.582E+00   -.706E+00 0.404E+00 0.164E+01
   -.300E+01 0.173E+01 -.845E+03   0.223E+01 -.129E+01 0.844E+03   0.423E+00 -.244E+00 0.692E+00   0.387E+00 -.223E+00 0.937E+00
   -.866E-05 -.115E+02 -.832E+03   0.140E-03 0.115E+02 0.831E+03   0.690E-07 0.104E+01 -.582E+00   -.373E-02 -.814E+00 0.164E+01
   0.300E+01 0.173E+01 -.845E+03   -.223E+01 -.129E+01 0.844E+03   -.423E+00 -.244E+00 0.692E+00   -.385E+00 -.222E+00 0.937E+00
   -.522E+00 -.301E+00 -.861E+03   0.692E+00 0.400E+00 0.859E+03   -.600E-01 -.346E-01 0.729E+00   -.847E-01 -.490E-01 0.923E+00
   0.522E+00 -.301E+00 -.861E+03   -.692E+00 0.400E+00 0.859E+03   0.600E-01 -.346E-01 0.729E+00   0.853E-01 -.481E-01 0.923E+00
   0.115E-04 -.347E+01 -.845E+03   0.197E-03 0.258E+01 0.844E+03   0.325E-07 0.489E+00 0.692E+00   -.270E-03 0.446E+00 0.937E+00
   -.123E-04 -.126E-04 -.247E+04   0.294E-04 0.332E-04 0.247E+04   -.268E-18 -.117E-17 0.549E+00   0.113E-03 0.483E-04 0.518E+00
   0.244E+02 0.374E+02 -.245E+04   -.243E+02 -.376E+02 0.245E+04   -.686E+00 -.976E+00 0.747E+00   0.487E+00 0.871E+00 0.379E+00
   -.244E+02 0.374E+02 -.245E+04   0.243E+02 -.376E+02 0.245E+04   0.686E+00 -.976E+00 0.747E+00   -.487E+00 0.872E+00 0.379E+00
   0.446E+02 0.237E+01 -.245E+04   -.447E+02 -.224E+01 0.245E+04   -.119E+01 -.106E+00 0.747E+00   0.997E+00 -.139E-01 0.379E+00
   -.446E+02 0.237E+01 -.245E+04   0.447E+02 -.224E+01 0.245E+04   0.119E+01 -.106E+00 0.747E+00   -.998E+00 -.131E-01 0.380E+00
   0.203E+02 -.398E+02 -.245E+04   -.204E+02 0.398E+02 0.245E+04   -.502E+00 0.108E+01 0.747E+00   0.512E+00 -.857E+00 0.379E+00
   -.203E+02 -.398E+02 -.245E+04   0.204E+02 0.398E+02 0.245E+04   0.502E+00 0.108E+01 0.747E+00   -.510E+00 -.858E+00 0.380E+00
   0.351E-04 -.298E-04 -.247E+04   0.141E-03 -.486E-04 0.247E+04   0.486E-17 0.600E-17 0.549E+00   -.423E-02 -.215E-02 0.577E+00
   -.170E-04 -.545E-05 -.113E+04   0.635E-04 0.589E-05 0.113E+04   -.538E-17 -.476E-17 0.260E+01   0.150E-02 0.919E-03 0.252E+00
   0.103E-03 -.576E-04 -.137E+04   0.242E-04 0.155E-05 0.139E+04   -.926E-18 -.409E-18 -.188E+02   0.160E-02 0.981E-03 -.132E+01
 -----------------------------------------------------------------------------------------------
   -.679E-03 -.829E-03 -.407E+00   -.292E-13 0.200E-12 0.523E-11   0.110E-15 -.443E-15 -.156E+02   0.945E-03 0.119E-02 0.163E+02
 
 
 POSITION                                       TOTAL-FORCE (eV/Angst)
 -----------------------------------------------------------------------------------
      0.00000      0.00000      5.28038         0.000000     -0.000000     -0.099671
      2.93784      0.00000      5.28038         0.001785     -0.004397     -0.053344
      5.87568      0.00000      5.28038        -0.001785     -0.004397     -0.053344
      1.46892      2.54424      5.28038        -0.002915      0.003745     -0.053344
      4.40676      2.54424      5.28038         0.000000      0.000000     -0.089665
      7.34459      2.54424      5.28038         0.002915      0.003745     -0.053344
      2.93784      5.08848      5.28038        -0.004701      0.000653     -0.053344
      5.87568      5.08848      5.28038         0.004701      0.000653     -0.053344
      8.81351      5.08848      5.28038         0.000000     -0.000000     -0.065424
      1.46892      0.84808      7.67911        -0.015265     -0.008813      0.103376
      4.40676      0.84808      7.67911        -0.000000     -0.051257      0.038266
      7.34459      0.84808      7.67911         0.015265     -0.008813      0.103376
      2.93784      3.39232      7.67911        -0.044390      0.025628      0.038266
      5.87568      3.39232      7.67911         0.044390      0.025628      0.038266
      8.81351      3.39232      7.67911        -0.000000     -0.048504      0.110432
      4.40676      5.93656      7.67911         0.000000      0.017627      0.103376
      7.34459      5.93656      7.67911        -0.042006      0.024252      0.110432
     10.28243      5.93656      7.67911         0.042006      0.024252      0.110432
      8.81351      1.69581     10.07501        -0.000000     -0.029642     -0.008648
      2.95207      1.70438     10.04871        -0.188913     -0.109069     -0.143379
      5.86144      1.70438     10.04871         0.188913     -0.109069     -0.143379
     10.26527      4.25031     10.05786         0.038586     -0.022278      0.017777
      4.40676      4.22397     10.04871         0.000000      0.218138     -0.143379
      7.36176      4.25031     10.05786        -0.038586     -0.022278      0.017777
     11.75166      6.78482     10.07501         0.025671      0.014821     -0.008648
      5.87537      6.78482     10.07501        -0.025671      0.014821     -0.008648
      8.81351      6.76483     10.05786         0.000000      0.044555      0.017777
      0.00000      0.00000     12.48798         0.000000     -0.000000     -0.027470
      2.98892      0.08359     12.48152        -0.148341     -0.268034     -0.201211
      5.82460      0.08359     12.48152         0.148341     -0.268034     -0.201211
      1.56685      2.54668     12.48152        -0.306295      0.005550     -0.201211
      7.24666      2.54668     12.48152         0.306295      0.005550     -0.201211
      2.98469      5.00245     12.48152        -0.157954      0.262484     -0.201211
      5.82882      5.00245     12.48152         0.157954      0.262484     -0.201211
      8.81351      5.08848     12.49580         0.000000      0.000000      0.019207
      4.40676      2.54424     12.17616         0.000000      0.000000      1.376138
      4.40676      2.54424     13.76416         0.000000     -0.000000      0.060746
 -----------------------------------------------------------------------------------
    total drift:                                0.000266      0.000357      0.308358


--------------------------------------------------------------------------------------------------------



  FREE ENERGIE OF THE ION-ELECTRON SYSTEM (eV)
  ---------------------------------------------------
  free  energy   TOTEN  =      -122.36167062 eV

  energy  without entropy=     -122.36167062  energy(sigma->0) =     -122.36167062
 


--------------------------------------------------------------------------------------------------------


    POTLOK:  cpu time    0.0430: real time    0.0430


--------------------------------------------------------------------------------------------------------


 stress matrix after NEB project (eV)
    -20.67347     -0.00000      0.00000
     -0.00000    -20.67347      0.00000
     -0.00000      0.00000      1.56690
  FORCES: max atom, RMS     0.060746    0.009987
  FORCE total and by dimension    0.060746    0.060746
  Stress total and by dimension   29.278662   20.673473
     LOOP+:  cpu time   76.3631: real time   76.3742
 -----------------------------------------------------------------------------
|                                                                             |
|           W    W    AA    RRRRR   N    N  II  N    N   GGGG   !!!           |
|           W    W   A  A   R    R  NN   N  II  NN   N  G    G  !!!           |
|           W    W  A    A  R    R  N N  N  II  N N  N  G       !!!           |
|           W WW W  AAAAAA  RRRRR   N  N N  II  N  N N  G  GGG   !            |
|           WW  WW  A    A  R   R   N   NN  II  N   NN  G    G                |
|           W    W  A    A  R    R  N    N  II  N    N   GGGG   !!!           |
|                                                                             |
|     Tetrahedron method does not include variations of the Fermi             |
|     occupations, so forces and stress will be inaccurate. We suggest        |
|     using a different smearing scheme ISMEAR = 1 or 2 for metals in         |
|     relaxations.                                                            |
|                                                                             |
 -----------------------------------------------------------------------------

    4ORBIT:  cpu time    0.0000: real time    0.0000



 total charge

# of ion       s       p       d       tot
------------------------------------------
    1        0.547   0.240   8.765   9.552
    2        0.544   0.242   8.765   9.551
    3        0.544   0.242   8.765   9.551
    4        0.544   0.242   8.765   9.551
    5        0.542   0.241   8.765   9.547
    6        0.544   0.242   8.765   9.551
    7        0.544   0.242   8.765   9.551
    8        0.544   0.242   8.765   9.551
    9        0.543   0.241   8.767   9.551
   10        0.520   0.309   8.772   9.601
   11        0.519   0.311   8.776   9.606
   12        0.520   0.309   8.772   9.601
   13        0.519   0.311   8.776   9.606
   14        0.519   0.311   8.776   9.606
   15        0.516   0.311   8.773   9.600
   16        0.520   0.309   8.772   9.601
   17        0.516   0.311   8.773   9.600
   18        0.516   0.311   8.773   9.600
   19        0.517   0.298   8.777   9.592
   20        0.548   0.334   8.749   9.632
   21        0.548   0.334   8.749   9.632
   22        0.512   0.312   8.774   9.598
   23        0.548   0.334   8.749   9.632
   24        0.512   0.312   8.774   9.598
   25        0.517   0.298   8.777   9.592
   26        0.517   0.298   8.777   9.592
   27        0.512   0.312   8.774   9.598
   28        0.543   0.222   8.761   9.526
   29        0.554   0.239   8.759   9.552
   30        0.554   0.239   8.759   9.552
   31        0.554   0.239   8.759   9.552
   32        0.554   0.239   8.759   9.552
   33        0.554   0.239   8.759   9.552
   34        0.554   0.239   8.759   9.552
   35        0.540   0.224   8.761   9.525
   36        0.480   0.645   4.632   5.757
   37        1.357   2.185   0.000   3.542
--------------------------------------------------
tot         20.535  12.506 311.462 344.502
 
 BZINTS: Fermi energy:    0.657464;  396.000000 electrons
         Band energy:-0.123117E+04;  BLOECHL correction:   -0.044467

 total amount of memory used by VASP MPI-rank0   122056. kBytes
=======================================================================

   base      :      30000. kBytes
   nonlr-proj:      13671. kBytes
   fftplans  :       4330. kBytes
   grid      :      17879. kBytes
   one-center:        575. kBytes
   wavefun   :      55601. kBytes
 
  
  
 General timing and accounting informations for this job:
 ========================================================
  
                  Total CPU time used (sec):       83.676
                            User time (sec):       80.683
                          System time (sec):        2.993
                         Elapsed time (sec):       84.116
  
                   Maximum memory used (kb):      378636.
                   Average memory used (kb):          N/A
  
                          Minor page faults:        79271
                          Major page faults:            0
                 Voluntary context switches:         4927
