PROCAR new format
# of k-points:   10         # of bands:  252         # of ions:   37

 k-point     1 :    0.00000000 0.00000000 0.00000000     weight = 0.01562500

band     1 # energy  -12.43028240 # occ.  2.00000000
 
ion      s      p      d    tot
    1  0.000  0.000  0.000  0.000
    2  0.000  0.000  0.000  0.000
    3  0.000  0.000  0.000  0.000
    4  0.000  0.000  0.000  0.000
    5  0.000  0.000  0.000  0.000
    6  0.000  0.000  0.000  0.000
    7  0.000  0.000  0.000  0.000
    8  0.000  0.000  0.000  0.000
    9  0.000  0.000  0.000  0.000
   10  0.000  0.000  0.000  0.000
   11  0.000  0.000  0.000  0.000
   12  0.000  0.000  0.000  0.000
   13  0.000  0.000  0.000  0.000
   14  0.000  0.000  0.000  0.000
   15  0.000  0.000  0.000  0.000
   16  0.000  0.000  0.000  0.000
   17  0.000  0.000  0.000  0.000
   18  0.000  0.000  0.000  0.000
   19  0.000  0.000  0.000  0.000
   20  0.000  0.000  0.000  0.000
   21  0.000  0.000  0.000  0.000
   22  0.000  0.000  0.000  0.000
   23  0.000  0.000  0.000  0.000
   24  0.000  0.000  0.000  0.000
   25  0.000  0.000  0.000  0.000
   26  0.000  0.000  0.000  0.000
   27  0.000  0.000  0.000  0.000
   28  0.000  0.000  0.000  0.000
   29  0.000  0.000  0.000  0.001
   30  0.000  0.000  0.000  0.001
   31  0.000  0.000  0.000  0.001
   32  0.000  0.000  0.000  0.001
   33  0.000  0.000  0.000  0.001
   34  0.000  0.000  0.000  0.001
   35  0.000  0.000  0.000  0.000
   36  0.083  0.088  0.133  0.304
   37  0.633  0.014  0.000  0.647
tot    0.719  0.103  0.136  0.958
 
band     2 # energy   -8.17219857 # occ.  2.00000000
 
ion      s      p      d    tot
    1  0.007  0.001  0.000  0.007
    2  0.006  0.001  0.000  0.007
    3  0.006  0.001  0.000  0.007
    4  0.006  0.001  0.000  0.007
    5  0.007  0.001  0.000  0.007
    6  0.006  0.001  0.000  0.007
    7  0.006  0.001  0.000  0.007
    8  0.006  0.001  0.000  0.007
    9  0.006  0.001  0.000  0.007
   10  0.026  0.000  0.000  0.027
   11  0.028  0.000  0.000  0.028
   12  0.026  0.000  0.000  0.027
   13  0.028  0.000  0.000  0.028
   14  0.028  0.000  0.000  0.028
   15  0.026  0.000  0.000  0.027
   16  0.026  0.000  0.000  0.027
   17  0.026  0.000  0.000  0.027
   18  0.026  0.000  0.000  0.027
   19  0.023  0.000  0.000  0.024
   20  0.027  0.000  0.000  0.028
   21  0.027  0.000  0.000  0.028
   22  0.025  0.000  0.000  0.025
   23  0.027  0.000  0.000  0.028
   24  0.025  0.000  0.000  0.025
   25  0.023  0.000  0.000  0.024
   26  0.023  0.000  0.000  0.024
   27  0.025  0.000  0.000  0.025
   28  0.004  0.000  0.000  0.005
   29  0.005  0.000  0.000  0.005
   30  0.005  0.000  0.000  0.005
   31  0.005  0.000  0.000  0.005
   32  0.005  0.000  0.000  0.005
   33  0.005  0.000  0.000  0.005
   34  0.005  0.000  0.000  0.005
   35  0.004  0.000  0.000  0.005
   36  0.003  0.002  0.000  0.005
   37  0.001  0.000  0.000  0.001
tot    0.565  0.013  0.004  0.582
 
band     3 # energy   -6.97130957 # occ.  2.00000000
 
ion      s      p      d    tot
    1  0.017  0.000  0.001  0.019
    2  0.017  0.000  0.001  0.019
    3  0.017  0.000  0.001  0.019
    4  0.017  0.000  0.001  0.019
    5  0.017  0.000  0.001  0.018
    6  0.017  0.000  0.001  0.019
    7  0.017  0.000  0.001  0.019
    8  0.017  0.000  0.001  0.019
    9  0.017  0.000  0.001  0.019
   10  0.011  0.002  0.003  0.015
   11  0.010  0.002  0.003  0.014
   12  0.011  0.002  0.003  0.015
   13  0.010  0.002  0.003  0.014
   14  0.010  0.002  0.003  0.014
   15  0.010  0.002  0.003  0.014
   16  0.011  0.002  0.003  0.015
   17  0.010  0.002  0.003  0.014
   18  0.010  0.002  0.003  0.014
   19  0.014  0.001  0.004  0.019
   20  0.016  0.001  0.005  0.022
   21  0.016  0.001  0.005  0.022
   22  0.015  0.001  0.004  0.020
   23  0.016  0.001  0.005  0.022
   24  0.015  0.001  0.004  0.020
   25  0.014  0.001  0.004  0.019
   26  0.014  0.001  0.004  0.019
   27  0.015  0.001  0.004  0.020
   28  0.013  0.000  0.000  0.014
   29  0.012  0.001  0.001  0.014
   30  0.012  0.001  0.001  0.014
   31  0.012  0.001  0.001  0.014
   32  0.012  0.001  0.001  0.014
   33  0.012  0.001  0.001  0.014
   34  0.012  0.001  0.001  0.014
   35  0.013  0.001  0.000  0.014
   36  0.006  0.002  0.001  0.009
   37  0.002  0.000  0.000  0.002
tot    0.490  0.034  0.077  0.601
 
band     4 # energy   -6.06228656 # occ.  2.00000000
 
ion      s      p      d    tot
    1  0.000  0.001  0.005  0.006
    2  0.002  0.000  0.005  0.008
    3  0.002  0.000  0.005  0.008
    4  0.002  0.000  0.005  0.008
    5  0.000  0.000  0.001  0.002
    6  0.002  0.000  0.005  0.008
    7  0.002  0.000  0.005  0.008
    8  0.002  0.000  0.005  0.008
    9  0.021  0.001  0.000  0.022
   10  0.007  0.000  0.023  0.030
   11  0.012  0.003  0.008  0.024
   12  0.007  0.000  0.023  0.030
   13  0.012  0.003  0.008  0.024
   14  0.012  0.003  0.008  0.024
   15  0.019  0.001  0.011  0.032
   16  0.007  0.000  0.023  0.030
   17  0.019  0.001  0.011  0.032
   18  0.019  0.001  0.011  0.032
   19  0.000  0.001  0.023  0.024
   20  0.029  0.002  0.019  0.049
   21  0.029  0.002  0.019  0.049
   22  0.015  0.003  0.005  0.022
   23  0.029  0.002  0.019  0.049
   24  0.015  0.003  0.005  0.022
   25  0.000  0.001  0.023  0.024
   26  0.000  0.001  0.023  0.024
   27  0.015  0.003  0.005  0.022
   28  0.005  0.000  0.000  0.005
   29  0.002  0.000  0.006  0.008
   30  0.002  0.000  0.006  0.008
   31  0.002  0.000  0.006  0.008
   32  0.002  0.000  0.006  0.008
   33  0.002  0.000  0.006  0.008
   34  0.002  0.000  0.006  0.008
   35  0.012  0.001  0.000  0.013
   36  0.004  0.004  0.003  0.011
   37  0.000  0.001  0.000  0.001
tot    0.312  0.043  0.343  0.697
 
band     5 # energy   -6.04435156 # occ.  2.00000000
 
ion      s      p      d    tot
    1  0.000  0.000  0.007  0.007
    2  0.001  0.000  0.002  0.003
    3  0.000  0.000  0.003  0.003
    4  0.004  0.001  0.003  0.007
    5  0.000  0.001  0.007  0.009
    6  0.006  0.001  0.003  0.010
    7  0.003  0.001  0.003  0.007
    8  0.006  0.001  0.003  0.010
    9  0.000  0.000  0.001  0.001
   10  0.024  0.002  0.007  0.033
   11  0.003  0.003  0.029  0.034
   12  0.014  0.001  0.017  0.032
   13  0.030  0.002  0.019  0.050
   14  0.050  0.001  0.011  0.063
   15  0.000  0.004  0.003  0.007
   16  0.001  0.000  0.030  0.031
   17  0.003  0.002  0.008  0.013
   18  0.004  0.000  0.012  0.017
   19  0.000  0.004  0.003  0.007
   20  0.056  0.001  0.013  0.070
   21  0.033  0.002  0.021  0.056
   22  0.013  0.001  0.017  0.032
   23  0.003  0.003  0.032  0.038
   24  0.022  0.002  0.006  0.030
   25  0.005  0.000  0.012  0.018
   26  0.003  0.002  0.008  0.013
   27  0.001  0.000  0.032  0.033
   28  0.000  0.000  0.001  0.001
   29  0.006  0.001  0.004  0.012
   30  0.003  0.001  0.004  0.008
   31  0.007  0.001  0.003  0.012
   32  0.005  0.001  0.003  0.009
   33  0.000  0.000  0.003  0.003
   34  0.001  0.000  0.002  0.004
   35  0.000  0.000  0.005  0.005
   36  0.000  0.003  0.003  0.006
   37  0.000  0.000  0.000  0.000
tot    0.308  0.044  0.342  0.694
 
band     6 # energy   -6.04435098 # occ.  2.00000000
 
ion      s      p      d    tot
    1  0.000  0.000  0.007  0.007
    2  0.006  0.001  0.003  0.011
    3  0.006  0.001  0.003  0.011
    4  0.003  0.001  0.003  0.007
    5  0.000  0.001  0.007  0.009
    6  0.000  0.000  0.003  0.004
    7  0.003  0.001  0.002  0.007
    8  0.001  0.000  0.002  0.004
    9  0.000  0.000  0.001  0.001
   10  0.002  0.000  0.029  0.031
   11  0.052  0.001  0.011  0.064
   12  0.012  0.001  0.019  0.032
   13  0.025  0.002  0.020  0.048
   14  0.005  0.003  0.028  0.035
   15  0.005  0.000  0.013  0.017
   16  0.025  0.002  0.006  0.033
   17  0.002  0.002  0.007  0.012
   18  0.000  0.003  0.003  0.007
   19  0.005  0.000  0.013  0.018
   20  0.005  0.003  0.031  0.039
   21  0.028  0.002  0.023  0.053
   22  0.011  0.001  0.020  0.032
   23  0.058  0.001  0.012  0.072
   24  0.002  0.000  0.030  0.033
   25  0.000  0.004  0.003  0.007
   26  0.002  0.002  0.007  0.012
   27  0.023  0.002  0.005  0.030
   28  0.000  0.000  0.001  0.001
   29  0.001  0.000  0.002  0.004
   30  0.005  0.001  0.002  0.008
   31  0.000  0.000  0.003  0.004
   32  0.002  0.001  0.004  0.007
   33  0.008  0.001  0.004  0.012
   34  0.007  0.001  0.004  0.012
   35  0.000  0.000  0.005  0.005
   36  0.000  0.003  0.003  0.006
   37  0.000  0.000  0.000  0.000
tot    0.308  0.044  0.342  0.694
 
band     7 # energy   -6.02830940 # occ.  2.00000000
 
ion      s      p      d    tot
    1  0.026  0.000  0.017  0.042
    2  0.019  0.000  0.019  0.038
    3  0.019  0.000  0.019  0.038
    4  0.019  0.000  0.019  0.038
    5  0.020  0.000  0.020  0.040
    6  0.019  0.000  0.019  0.038
    7  0.019  0.000  0.019  0.038
    8  0.019  0.000  0.019  0.038
    9  0.013  0.000  0.020  0.034
   10  0.004  0.000  0.029  0.033
   11  0.006  0.000  0.026  0.032
   12  0.004  0.000  0.029  0.033
   13  0.006  0.000  0.026  0.032
   14  0.006  0.000  0.026  0.032
   15  0.016  0.001  0.021  0.038
   16  0.004  0.000  0.029  0.033
   17  0.016  0.001  0.021  0.038
   18  0.016  0.001  0.021  0.038
   19  0.001  0.000  0.005  0.007
   20  0.003  0.000  0.007  0.010
   21  0.003  0.000  0.007  0.010
   22  0.000  0.001  0.005  0.006
   23  0.003  0.000  0.007  0.010
   24  0.000  0.001  0.005  0.006
   25  0.001  0.000  0.005  0.007
   26  0.001  0.000  0.005  0.007
   27  0.000  0.001  0.005  0.006
   28  0.000  0.000  0.000  0.000
   29  0.000  0.000  0.000  0.001
   30  0.000  0.000  0.000  0.001
   31  0.000  0.000  0.000  0.001
   32  0.000  0.000  0.000  0.001
   33  0.000  0.000  0.000  0.001
   34  0.000  0.000  0.000  0.001
   35  0.000  0.000  0.000  0.000
   36  0.001  0.001  0.000  0.001
   37  0.000  0.000  0.000  0.000
tot    0.266  0.011  0.454  0.731
 
band     8 # energy   -6.00754689 # occ.  2.00000000
 
ion      s      p      d    tot
    1  0.008  0.001  0.001  0.010
    2  0.000  0.001  0.006  0.007
    3  0.000  0.001  0.006  0.007
    4  0.000  0.001  0.006  0.007
    5  0.015  0.002  0.001  0.018
    6  0.000  0.001  0.006  0.007
    7  0.000  0.001  0.006  0.007
    8  0.000  0.001  0.006  0.007
    9  0.000  0.000  0.001  0.001
   10  0.026  0.003  0.002  0.031
   11  0.020  0.001  0.022  0.043
   12  0.026  0.003  0.002  0.031
   13  0.020  0.001  0.022  0.043
   14  0.020  0.001  0.022  0.043
   15  0.000  0.001  0.022  0.023
   16  0.026  0.003  0.002  0.031
   17  0.000  0.001  0.022  0.023
   18  0.000  0.001  0.022  0.023
   19  0.027  0.002  0.004  0.034
   20  0.004  0.002  0.021  0.026
   21  0.004  0.002  0.021  0.026
   22  0.010  0.000  0.027  0.036
   23  0.004  0.002  0.021  0.026
   24  0.010  0.000  0.027  0.037
   25  0.027  0.002  0.004  0.034
   26  0.027  0.002  0.004  0.034
   27  0.010  0.000  0.027  0.036
   28  0.010  0.001  0.001  0.012
   29  0.000  0.000  0.004  0.004
   30  0.000  0.000  0.004  0.004
   31  0.000  0.000  0.004  0.004
   32  0.000  0.000  0.004  0.004
   33  0.000  0.000  0.004  0.004
   34  0.000  0.000  0.004  0.004
   35  0.005  0.001  0.002  0.008
   36  0.000  0.000  0.000  0.000
   37  0.000  0.000  0.000  0.000
tot    0.298  0.040  0.357  0.696
 
band     9 # energy   -5.97803889 # occ.  2.00000000
 
ion      s      p      d    tot
    1  0.000  0.001  0.004  0.005
    2  0.005  0.001  0.004  0.010
    3  0.007  0.001  0.003  0.011
    4  0.006  0.001  0.004  0.011
    5  0.000  0.000  0.003  0.003
    6  0.000  0.000  0.003  0.004
    7  0.007  0.001  0.004  0.012
    8  0.000  0.000  0.003  0.004
    9  0.000  0.001  0.011  0.012
   10  0.034  0.000  0.016  0.050
   11  0.001  0.002  0.016  0.018
   12  0.007  0.004  0.009  0.020
   13  0.001  0.002  0.016  0.019
   14  0.003  0.001  0.010  0.014
   15  0.017  0.001  0.033  0.051
   16  0.010  0.003  0.010  0.023
   17  0.012  0.001  0.037  0.050
   18  0.059  0.002  0.004  0.065
   19  0.013  0.001  0.027  0.041
   20  0.003  0.001  0.011  0.015
   21  0.001  0.001  0.015  0.017
   22  0.006  0.003  0.012  0.022
   23  0.001  0.001  0.015  0.017
   24  0.029  0.000  0.014  0.043
   25  0.046  0.002  0.003  0.051
   26  0.010  0.001  0.030  0.040
   27  0.008  0.003  0.012  0.024
   28  0.000  0.001  0.006  0.007
   29  0.000  0.000  0.002  0.002
   30  0.003  0.001  0.002  0.006
   31  0.000  0.000  0.002  0.002
   32  0.004  0.001  0.003  0.007
   33  0.003  0.001  0.002  0.005
   34  0.003  0.001  0.003  0.007
   35  0.000  0.001  0.003  0.004
   36  0.000  0.000  0.001  0.001
   37  0.000  0.000  0.000  0.000
tot    0.299  0.041  0.354  0.694
 
band    10 # energy   -5.97803193 # occ.  2.00000000
 
ion      s      p      d    tot
    1  0.000  0.001  0.004  0.005
    2  0.003  0.001  0.003  0.007
    3  0.002  0.001  0.004  0.006
    4  0.002  0.001  0.003  0.006
    5  0.000  0.000  0.003  0.003
    6  0.008  0.001  0.004  0.014
    7  0.001  0.001  0.004  0.005
    8  0.008  0.001  0.004  0.014
    9  0.000  0.001  0.011  0.012
   10  0.000  0.004  0.008  0.012
   11  0.002  0.001  0.012  0.016
   12  0.027  0.001  0.014  0.042
   13  0.002  0.001  0.012  0.015
   14  0.000  0.002  0.018  0.020
   15  0.042  0.001  0.016  0.059
   16  0.024  0.001  0.013  0.039
   17  0.046  0.002  0.013  0.061
   18  0.000  0.001  0.045  0.046
   19  0.032  0.002  0.013  0.047
   20  0.000  0.002  0.017  0.018
   21  0.002  0.001  0.012  0.016
   22  0.023  0.001  0.013  0.037
   23  0.002  0.001  0.013  0.016
   24  0.000  0.004  0.012  0.016
   25  0.000  0.001  0.037  0.038
   26  0.036  0.002  0.010  0.048
   27  0.021  0.001  0.013  0.035
   28  0.000  0.001  0.006  0.007
   29  0.004  0.001  0.002  0.008
   30  0.001  0.000  0.003  0.004
   31  0.004  0.001  0.002  0.008
   32  0.001  0.000  0.001  0.002
   33  0.002  0.000  0.003  0.005
   34  0.001  0.000  0.001  0.003
   35  0.000  0.001  0.003  0.004
   36  0.000  0.000  0.001  0.001
   37  0.000  0.000  0.000  0.000
tot    0.299  0.041  0.354  0.694
 
band    11 # energy   -5.88556774 # occ.  2.00000000
 
ion      s      p      d    tot
    1  0.002  0.000  0.000  0.002
    2  0.001  0.000  0.001  0.002
    3  0.001  0.000  0.001  0.002
    4  0.001  0.000  0.001  0.002
    5  0.002  0.000  0.000  0.003
    6  0.001  0.000  0.001  0.002
    7  0.001  0.000  0.001  0.002
    8  0.001  0.000  0.001  0.002
    9  0.000  0.000  0.001  0.001
   10  0.000  0.000  0.004  0.005
   11  0.001  0.000  0.002  0.003
   12  0.000  0.000  0.004  0.005
   13  0.001  0.000  0.002  0.003
   14  0.001  0.000  0.002  0.003
   15  0.003  0.001  0.003  0.007
   16  0.000  0.000  0.004  0.005
   17  0.003  0.001  0.003  0.007
   18  0.003  0.001  0.003  0.007
   19  0.004  0.001  0.017  0.022
   20  0.002  0.000  0.031  0.033
   21  0.002  0.000  0.031  0.033
   22  0.010  0.002  0.022  0.033
   23  0.002  0.000  0.031  0.033
   24  0.010  0.002  0.022  0.033
   25  0.004  0.001  0.017  0.022
   26  0.004  0.001  0.017  0.022
   27  0.010  0.002  0.022  0.033
   28  0.028  0.000  0.020  0.048
   29  0.026  0.000  0.021  0.047
   30  0.026  0.000  0.021  0.047
   31  0.026  0.000  0.021  0.047
   32  0.026  0.000  0.021  0.047
   33  0.026  0.000  0.021  0.047
   34  0.026  0.000  0.021  0.047
   35  0.026  0.000  0.022  0.048
   36  0.006  0.000  0.013  0.020
   37  0.002  0.000  0.000  0.002
tot    0.281  0.014  0.425  0.720
 
band    12 # energy   -5.56094367 # occ.  2.00000000
 
ion      s      p      d    tot
    1  0.014  0.002  0.002  0.019
    2  0.000  0.001  0.008  0.009
    3  0.000  0.001  0.008  0.009
    4  0.000  0.001  0.008  0.009
    5  0.000  0.000  0.002  0.002
    6  0.000  0.001  0.008  0.009
    7  0.000  0.001  0.008  0.009
    8  0.000  0.001  0.008  0.009
    9  0.017  0.001  0.000  0.018
   10  0.011  0.001  0.014  0.027
   11  0.002  0.000  0.045  0.048
   12  0.011  0.001  0.014  0.027
   13  0.002  0.000  0.045  0.048
   14  0.002  0.000  0.045  0.048
   15  0.004  0.001  0.021  0.026
   16  0.011  0.001  0.014  0.027
   17  0.004  0.001  0.021  0.026
   18  0.004  0.001  0.021  0.026
   19  0.004  0.001  0.012  0.017
   20  0.001  0.000  0.054  0.055
   21  0.001  0.000  0.054  0.055
   22  0.010  0.001  0.019  0.030
   23  0.001  0.000  0.054  0.055
   24  0.010  0.001  0.019  0.030
   25  0.004  0.001  0.012  0.017
   26  0.004  0.001  0.012  0.017
   27  0.010  0.001  0.019  0.030
   28  0.010  0.001  0.000  0.012
   29  0.000  0.000  0.005  0.006
   30  0.000  0.000  0.005  0.006
   31  0.000  0.000  0.005  0.006
   32  0.000  0.000  0.005  0.006
   33  0.000  0.000  0.005  0.006
   34  0.000  0.000  0.005  0.006
   35  0.006  0.001  0.002  0.010
   36  0.001  0.000  0.001  0.002
   37  0.000  0.000  0.000  0.000
tot    0.144  0.026  0.587  0.758
 
band    13 # energy   -5.55719634 # occ.  2.00000000
 
ion      s      p      d    tot
    1  0.000  0.001  0.004  0.005
    2  0.001  0.001  0.005  0.006
    3  0.009  0.001  0.004  0.015
    4  0.001  0.001  0.005  0.006
    5  0.000  0.001  0.010  0.012
    6  0.005  0.001  0.004  0.009
    7  0.009  0.001  0.004  0.015
    8  0.005  0.001  0.004  0.009
    9  0.000  0.000  0.008  0.008
   10  0.000  0.001  0.051  0.052
   11  0.018  0.001  0.020  0.039
   12  0.008  0.001  0.019  0.028
   13  0.018  0.001  0.020  0.039
   14  0.000  0.000  0.049  0.049
   15  0.002  0.000  0.019  0.022
   16  0.008  0.001  0.019  0.028
   17  0.002  0.000  0.019  0.022
   18  0.000  0.002  0.010  0.012
   19  0.005  0.000  0.018  0.023
   20  0.000  0.000  0.076  0.076
   21  0.016  0.001  0.023  0.040
   22  0.002  0.001  0.019  0.022
   23  0.016  0.001  0.023  0.040
   24  0.000  0.001  0.030  0.031
   25  0.000  0.001  0.013  0.014
   26  0.005  0.000  0.018  0.023
   27  0.002  0.001  0.019  0.022
   28  0.000  0.000  0.008  0.008
   29  0.003  0.001  0.005  0.008
   30  0.010  0.001  0.004  0.016
   31  0.003  0.001  0.005  0.008
   32  0.003  0.001  0.004  0.007
   33  0.010  0.001  0.004  0.016
   34  0.003  0.001  0.004  0.007
   35  0.000  0.000  0.003  0.003
   36  0.000  0.003  0.003  0.006
   37  0.000  0.000  0.000  0.000
tot    0.161  0.033  0.553  0.747
 
band    14 # energy   -5.55718606 # occ.  2.00000000
 
ion      s      p      d    tot
    1  0.000  0.001  0.004  0.005
    2  0.009  0.001  0.004  0.014
    3  0.001  0.000  0.004  0.005
    4  0.009  0.001  0.004  0.014
    5  0.000  0.001  0.010  0.012
    6  0.005  0.001  0.005  0.011
    7  0.001  0.000  0.004  0.005
    8  0.005  0.001  0.005  0.011
    9  0.000  0.000  0.008  0.008
   10  0.010  0.002  0.008  0.020
   11  0.006  0.000  0.040  0.046
   12  0.003  0.001  0.040  0.044
   13  0.006  0.000  0.040  0.046
   14  0.024  0.001  0.011  0.036
   15  0.001  0.001  0.013  0.015
   16  0.003  0.001  0.040  0.044
   17  0.001  0.001  0.013  0.015
   18  0.002  0.000  0.022  0.025
   19  0.002  0.001  0.015  0.017
   20  0.021  0.002  0.006  0.028
   21  0.005  0.000  0.058  0.064
   22  0.001  0.001  0.026  0.028
   23  0.005  0.000  0.058  0.064
   24  0.003  0.001  0.015  0.019
   25  0.007  0.000  0.019  0.026
   26  0.002  0.001  0.015  0.017
   27  0.001  0.001  0.026  0.028
   28  0.000  0.000  0.008  0.008
   29  0.008  0.001  0.004  0.013
   30  0.000  0.000  0.004  0.005
   31  0.008  0.001  0.004  0.013
   32  0.008  0.001  0.004  0.013
   33  0.000  0.000  0.004  0.005
   34  0.008  0.001  0.004  0.013
   35  0.000  0.000  0.003  0.003
   36  0.000  0.003  0.003  0.006
   37  0.000  0.000  0.000  0.000
tot    0.161  0.033  0.553  0.747
 
band    15 # energy   -5.51186758 # occ.  2.00000000
 
ion      s      p      d    tot
    1  0.007  0.000  0.001  0.008
    2  0.000  0.001  0.008  0.009
    3  0.000  0.001  0.008  0.009
    4  0.000  0.001  0.008  0.009
    5  0.018  0.002  0.001  0.020
    6  0.000  0.001  0.008  0.009
    7  0.000  0.001  0.008  0.009
    8  0.000  0.001  0.008  0.009
    9  0.003  0.001  0.002  0.006
   10  0.000  0.000  0.041  0.042
   11  0.007  0.001  0.009  0.018
   12  0.000  0.000  0.041  0.042
   13  0.007  0.001  0.009  0.018
   14  0.007  0.001  0.009  0.018
   15  0.008  0.001  0.027  0.035
   16  0.000  0.000  0.041  0.042
   17  0.008  0.001  0.027  0.035
   18  0.008  0.001  0.027  0.035
   19  0.010  0.000  0.039  0.050
   20  0.009  0.002  0.010  0.021
   21  0.009  0.002  0.010  0.021
   22  0.000  0.000  0.037  0.038
   23  0.009  0.002  0.010  0.021
   24  0.000  0.000  0.037  0.038
   25  0.010  0.000  0.039  0.050
   26  0.010  0.000  0.039  0.050
   27  0.000  0.000  0.037  0.038
   28  0.000  0.001  0.006  0.007
   29  0.000  0.000  0.005  0.006
   30  0.000  0.000  0.005  0.006
   31  0.000  0.000  0.005  0.006
   32  0.000  0.000  0.005  0.006
   33  0.000  0.000  0.005  0.006
   34  0.000  0.000  0.005  0.006
   35  0.002  0.000  0.000  0.002
   36  0.011  0.004  0.000  0.015
   37  0.001  0.001  0.000  0.002
tot    0.149  0.032  0.581  0.762
 
band    16 # energy   -5.48738681 # occ.  2.00000000
 
ion      s      p      d    tot
    1  0.000  0.001  0.014  0.015
    2  0.000  0.000  0.005  0.006
    3  0.008  0.001  0.005  0.014
    4  0.000  0.000  0.005  0.006
    5  0.000  0.000  0.005  0.005
    6  0.006  0.001  0.005  0.011
    7  0.009  0.001  0.005  0.015
    8  0.007  0.001  0.005  0.012
    9  0.000  0.001  0.007  0.008
   10  0.010  0.000  0.020  0.030
   11  0.000  0.001  0.019  0.021
   12  0.003  0.001  0.026  0.030
   13  0.000  0.001  0.019  0.021
   14  0.001  0.001  0.021  0.022
   15  0.003  0.001  0.051  0.055
   16  0.002  0.001  0.027  0.030
   17  0.004  0.001  0.048  0.053
   18  0.015  0.002  0.006  0.023
   19  0.004  0.001  0.052  0.057
   20  0.000  0.000  0.025  0.025
   21  0.000  0.001  0.022  0.023
   22  0.006  0.001  0.028  0.035
   23  0.000  0.001  0.022  0.023
   24  0.023  0.001  0.017  0.040
   25  0.017  0.001  0.005  0.023
   26  0.005  0.001  0.049  0.055
   27  0.005  0.001  0.029  0.035
   28  0.000  0.001  0.005  0.005
   29  0.001  0.000  0.003  0.004
   30  0.006  0.001  0.002  0.009
   31  0.001  0.000  0.003  0.004
   32  0.002  0.001  0.005  0.008
   33  0.006  0.001  0.003  0.009
   34  0.003  0.001  0.005  0.008
   35  0.000  0.001  0.007  0.008
   36  0.000  0.000  0.001  0.001
   37  0.000  0.000  0.000  0.000
tot    0.147  0.028  0.576  0.752
 
band    17 # energy   -5.48738517 # occ.  2.00000000
 
ion      s      p      d    tot
    1  0.000  0.001  0.014  0.015
    2  0.010  0.001  0.004  0.015
    3  0.002  0.000  0.005  0.007
    4  0.010  0.001  0.004  0.016
    5  0.000  0.000  0.005  0.005
    6  0.004  0.001  0.005  0.010
    7  0.001  0.000  0.005  0.007
    8  0.003  0.001  0.005  0.009
    9  0.000  0.001  0.007  0.008
   10  0.000  0.001  0.029  0.029
   11  0.001  0.001  0.020  0.022
   12  0.007  0.000  0.022  0.030
   13  0.001  0.001  0.020  0.022
   14  0.000  0.001  0.019  0.020
   15  0.012  0.002  0.019  0.032
   16  0.008  0.000  0.022  0.030
   17  0.011  0.002  0.022  0.035
   18  0.000  0.000  0.064  0.064
   19  0.013  0.001  0.018  0.033
   20  0.000  0.002  0.021  0.023
   21  0.000  0.001  0.024  0.024
   22  0.017  0.001  0.021  0.038
   23  0.000  0.001  0.024  0.025
   24  0.000  0.000  0.033  0.033
   25  0.000  0.000  0.066  0.067
   26  0.012  0.001  0.022  0.035
   27  0.018  0.001  0.020  0.039
   28  0.000  0.001  0.005  0.005
   29  0.005  0.001  0.004  0.010
   30  0.000  0.000  0.005  0.005
   31  0.005  0.001  0.004  0.010
   32  0.004  0.001  0.002  0.007
   33  0.000  0.000  0.004  0.005
   34  0.003  0.001  0.002  0.006
   35  0.000  0.001  0.007  0.008
   36  0.000  0.000  0.001  0.001
   37  0.000  0.000  0.000  0.000
tot    0.147  0.028  0.576  0.752
 
band    18 # energy   -5.17546153 # occ.  2.00000000
 
ion      s      p      d    tot
    1  0.000  0.000  0.013  0.013
    2  0.000  0.000  0.008  0.009
    3  0.004  0.000  0.012  0.017
    4  0.000  0.000  0.009  0.009
    5  0.000  0.000  0.023  0.024
    6  0.006  0.000  0.008  0.015
    7  0.004  0.000  0.012  0.017
    8  0.006  0.000  0.008  0.014
    9  0.000  0.001  0.005  0.006
   10  0.000  0.000  0.016  0.017
   11  0.000  0.000  0.050  0.051
   12  0.000  0.000  0.011  0.011
   13  0.000  0.000  0.051  0.051
   14  0.000  0.000  0.049  0.049
   15  0.000  0.000  0.020  0.020
   16  0.000  0.000  0.011  0.011
   17  0.000  0.000  0.018  0.019
   18  0.000  0.000  0.037  0.037
   19  0.000  0.000  0.011  0.011
   20  0.001  0.000  0.068  0.069
   21  0.000  0.000  0.051  0.051
   22  0.000  0.000  0.035  0.035
   23  0.000  0.000  0.052  0.052
   24  0.000  0.001  0.029  0.030
   25  0.000  0.000  0.014  0.014
   26  0.000  0.000  0.010  0.011
   27  0.000  0.000  0.034  0.035
   28  0.000  0.000  0.011  0.012
   29  0.009  0.001  0.013  0.023
   30  0.000  0.001  0.009  0.010
   31  0.008  0.001  0.014  0.023
   32  0.009  0.001  0.006  0.015
   33  0.000  0.001  0.010  0.011
   34  0.009  0.001  0.006  0.016
   35  0.000  0.000  0.018  0.018
   36  0.000  0.004  0.001  0.005
   37  0.000  0.000  0.000  0.000
tot    0.060  0.017  0.755  0.831
 
band    19 # energy   -5.17546049 # occ.  2.00000000
 
ion      s      p      d    tot
    1  0.000  0.000  0.013  0.013
    2  0.007  0.000  0.011  0.018
    3  0.003  0.001  0.007  0.010
    4  0.007  0.000  0.011  0.018
    5  0.000  0.000  0.023  0.024
    6  0.001  0.000  0.011  0.012
    7  0.003  0.001  0.007  0.011
    8  0.001  0.000  0.012  0.013
    9  0.000  0.001  0.005  0.006
   10  0.000  0.000  0.009  0.009
   11  0.000  0.000  0.049  0.050
   12  0.000  0.000  0.015  0.015
   13  0.000  0.000  0.049  0.050
   14  0.000  0.000  0.051  0.051
   15  0.000  0.000  0.030  0.030
   16  0.000  0.000  0.014  0.015
   17  0.000  0.000  0.032  0.032
   18  0.000  0.000  0.013  0.013
   19  0.000  0.000  0.013  0.013
   20  0.000  0.000  0.046  0.046
   21  0.001  0.000  0.063  0.064
   22  0.000  0.000  0.031  0.032
   23  0.001  0.000  0.062  0.063
   24  0.000  0.000  0.036  0.036
   25  0.000  0.000  0.010  0.010
   26  0.000  0.000  0.013  0.013
   27  0.000  0.000  0.031  0.032
   28  0.000  0.000  0.011  0.012
   29  0.003  0.001  0.006  0.009
   30  0.012  0.001  0.010  0.023
   31  0.003  0.001  0.006  0.010
   32  0.003  0.001  0.014  0.017
   33  0.012  0.001  0.009  0.022
   34  0.002  0.001  0.013  0.016
   35  0.000  0.000  0.018  0.018
   36  0.000  0.004  0.001  0.005
   37  0.000  0.000  0.000  0.000
tot    0.060  0.017  0.755  0.831
 
band    20 # energy   -5.15547844 # occ.  2.00000000
 
ion      s      p      d    tot
    1  0.009  0.000  0.005  0.014
    2  0.000  0.001  0.009  0.010
    3  0.000  0.001  0.009  0.010
    4  0.000  0.001  0.009  0.010
    5  0.001  0.001  0.011  0.012
    6  0.000  0.001  0.009  0.010
    7  0.000  0.001  0.009  0.010
    8  0.000  0.001  0.009  0.010
    9  0.013  0.001  0.000  0.014
   10  0.000  0.000  0.026  0.026
   11  0.000  0.000  0.052  0.052
   12  0.000  0.000  0.026  0.026
   13  0.000  0.000  0.052  0.052
   14  0.000  0.000  0.052  0.052
   15  0.000  0.000  0.030  0.031
   16  0.000  0.000  0.026  0.026
   17  0.000  0.000  0.030  0.031
   18  0.000  0.000  0.030  0.031
   19  0.000  0.000  0.021  0.022
   20  0.001  0.000  0.052  0.053
   21  0.001  0.000  0.052  0.053
   22  0.000  0.000  0.029  0.030
   23  0.001  0.000  0.052  0.053
   24  0.000  0.000  0.029  0.030
   25  0.000  0.000  0.021  0.022
   26  0.000  0.000  0.021  0.022
   27  0.000  0.000  0.029  0.030
   28  0.005  0.000  0.001  0.006
   29  0.000  0.001  0.011  0.012
   30  0.000  0.001  0.011  0.012
   31  0.000  0.001  0.011  0.012
   32  0.000  0.001  0.011  0.012
   33  0.000  0.001  0.011  0.012
   34  0.000  0.001  0.011  0.012
   35  0.012  0.001  0.001  0.014
   36  0.001  0.000  0.006  0.007
   37  0.000  0.000  0.000  0.000
tot    0.046  0.015  0.774  0.835
 
band    21 # energy   -5.13737737 # occ.  2.00000000
 
ion      s      p      d    tot
    1  0.003  0.001  0.004  0.007
    2  0.000  0.001  0.018  0.019
    3  0.000  0.001  0.018  0.019
    4  0.000  0.001  0.018  0.019
    5  0.023  0.001  0.002  0.026
    6  0.000  0.001  0.018  0.019
    7  0.000  0.001  0.018  0.019
    8  0.000  0.001  0.018  0.019
    9  0.010  0.000  0.013  0.023
   10  0.000  0.000  0.037  0.037
   11  0.000  0.000  0.026  0.027
   12  0.000  0.000  0.037  0.037
   13  0.000  0.000  0.026  0.027
   14  0.000  0.000  0.026  0.027
   15  0.000  0.000  0.037  0.038
   16  0.000  0.000  0.037  0.037
   17  0.000  0.000  0.037  0.038
   18  0.000  0.000  0.037  0.038
   19  0.001  0.000  0.027  0.028
   20  0.000  0.000  0.027  0.027
   21  0.000  0.000  0.027  0.027
   22  0.001  0.000  0.021  0.023
   23  0.000  0.000  0.027  0.027
   24  0.001  0.000  0.021  0.023
   25  0.001  0.000  0.027  0.028
   26  0.001  0.000  0.027  0.028
   27  0.001  0.000  0.021  0.023
   28  0.012  0.000  0.006  0.018
   29  0.000  0.000  0.015  0.015
   30  0.000  0.000  0.015  0.015
   31  0.000  0.000  0.015  0.015
   32  0.000  0.000  0.015  0.015
   33  0.000  0.000  0.015  0.015
   34  0.000  0.000  0.015  0.015
   35  0.001  0.000  0.005  0.007
   36  0.004  0.001  0.000  0.006