 vasp.6.2.0 18Jan21 (build Jun 12 2021 23:27:24) complex                        
  
 executed on             LinuxIFC date 2022.05.28  02:25:57
 running on   28 total cores
 distrk:  each k-point on   28 cores,    1 groups
 distr:  one band on NCORE=   1 cores,   28 groups


--------------------------------------------------------------------------------------------------------


 INCAR:
   ISMEAR = -5
   SIGMA = 0.1
   ISPIN = 1
   EDIFF = 1.d-5
   EDIFFG = -0.01
   NSW = 0
   NELM = 150
   ENCUT = 500
   ISIF = 2
   IBRION = 2
   LREAL = Auto
   ALGO = Fast
   ICHARG = 11
   LORBIT = 10
   LCHARG = .F.
   LWAVE = .F.

 POTCAR:    PAW_PBE Cu 22Jun2005                  
 POTCAR:    PAW_PBE Ni 02Aug2007                  
 POTCAR:    PAW_PBE O 08Apr2002                   
 POTCAR:    PAW_PBE H 15Jun2001                   
 -----------------------------------------------------------------------------
|                                                                             |
|           W    W    AA    RRRRR   N    N  II  N    N   GGGG   !!!           |
|           W    W   A  A   R    R  NN   N  II  NN   N  G    G  !!!           |
|           W    W  A    A  R    R  N N  N  II  N N  N  G       !!!           |
|           W WW W  AAAAAA  RRRRR   N  N N  II  N  N N  G  GGG   !            |
|           WW  WW  A    A  R   R   N   NN  II  N   NN  G    G                |
|           W    W  A    A  R    R  N    N  II  N    N   GGGG   !!!           |
|                                                                             |
|     For optimal performance we recommend to set                             |
|       NCORE = 2 up to number-of-cores-per-socket                            |
|     NCORE specifies how many cores store one orbital (NPAR=cpu/NCORE).      |
|     This setting can greatly improve the performance of VASP for DFT.       |
|     The default, NCORE=1 might be grossly inefficient on modern             |
|     multi-core architectures or massively parallel machines. Do your        |
|     own testing! More info at https://www.vasp.at/wiki/index.php/NCORE      |
|     Unfortunately you need to use the default for GW and RPA                |
|     calculations (for HF NCORE is supported but not extensively tested      |
|     yet).                                                                   |
|                                                                             |
 -----------------------------------------------------------------------------

 POTCAR:    PAW_PBE Cu 22Jun2005                  
   VRHFIN =Cu: d10 p1                                                                               
   LEXCH  = PE                                                                                      
   EATOM  =  1390.9808 eV,  102.2342 Ry                                                             
                                                                                                    
   TITEL  = PAW_PBE Cu 22Jun2005                                                                    
   LULTRA =        F    use ultrasoft PP ?                                                          
   IUNSCR =        1    unscreen: 0-lin 1-nonlin 2-no                                               
   RPACOR =    2.000    partial core radius                                                         
   POMASS =   63.546; ZVAL   =   11.000    mass and valenz                                          
   RCORE  =    2.300    outmost cutoff radius                                                       
   RWIGS  =    2.200; RWIGS  =    1.164    wigner-seitz radius (au A)                               
   ENMAX  =  295.446; ENMIN  =  221.585 eV                                                          
   ICORE  =        3    local potential                                                             
   LCOR   =        T    correct aug charges                                                         
   LPAW   =        T    paw PP                                                                      
   EAUG   =  586.980                                                                                
   DEXC   =    0.000                                                                                
   RMAX   =    2.344    core radius for proj-oper                                                   
   RAUG   =    1.300    factor for augmentation sphere                                              
   RDEP   =    2.302    radius for radial grids                                                     
   RDEPT  =    1.771    core radius for aug-charge                                                  
                                                                                                    
   Atomic configuration                                                                             
    9 entries                                                                                       
     n  l   j            E        occ.                                                              
     1  0  0.50     -8850.2468   2.0000                                                             
     2  0  0.50     -1062.3498   2.0000                                                             
     2  1  1.50      -916.8226   6.0000                                                             
     3  0  0.50      -114.6929   2.0000                                                             
     3  1  1.50       -72.1325   6.0000                                                             
     3  2  2.50        -5.0394  10.0000                                                             
     4  0  0.50        -4.6097   1.0000                                                             
     4  1  0.50        -4.0817   0.0000                                                             
     4  3  2.50        -1.3606   0.0000                                                             
   Description                                                                                      
     l       E           TYP  RCUT    TYP  RCUT                                                     
     2     -5.0393973     23  2.200                                                                 
     2     10.8846608     23  2.200                                                                 
     0     -4.6097109     23  2.200                                                                 
     0      8.2520465     23  2.200                                                                 
     1     -2.7211652     23  2.200                                                                 
     1     21.7055443     23  2.200                                                                 
     3      2.7211652     23  2.300                                                                 
  local pseudopotential read in
  partial core-charges read in
  partial kinetic energy density read in
  atomic valenz-charges read in
  non local Contribution for L=           2  read in
    real space projection operators read in
  non local Contribution for L=           2  read in
    real space projection operators read in
  non local Contribution for L=           0  read in
    real space projection operators read in
  non local Contribution for L=           0  read in
    real space projection operators read in
  non local Contribution for L=           1  read in
    real space projection operators read in
  non local Contribution for L=           1  read in
    real space projection operators read in
    PAW grid and wavefunctions read in
 
   number of l-projection  operators is LMAX  =           6
   number of lm-projection operators is LMMAX =          18
 
 POTCAR:    PAW_PBE Ni 02Aug2007                  
   VRHFIN =Ni:                                                                                      
   LEXCH  = PE                                                                                      
   EATOM  =  1077.6739 eV,   79.2068 Ry                                                             
                                                                                                    
   TITEL  = PAW_PBE Ni 02Aug2007                                                                    
   LULTRA =        F    use ultrasoft PP ?                                                          
   IUNSCR =        1    unscreen: 0-lin 1-nonlin 2-no                                               
   RPACOR =    2.000    partial core radius                                                         
   POMASS =   58.690; ZVAL   =   10.000    mass and valenz                                          
   RCORE  =    2.300    outmost cutoff radius                                                       
   RWIGS  =    2.430; RWIGS  =    1.286    wigner-seitz radius (au A)                               
   ENMAX  =  269.532; ENMIN  =  202.149 eV                                                          
   RCLOC  =    1.201    cutoff for local pot                                                        
   LCOR   =        T    correct aug charges                                                         
   LPAW   =        T    paw PP                                                                      
   EAUG   =  544.565                                                                                
   DEXC   =    0.000                                                                                
   RMAX   =    2.357    core radius for proj-oper                                                   
   RAUG   =    1.300    factor for augmentation sphere                                              
   RDEP   =    2.390    radius for radial grids                                                     
   RDEPT  =    1.838    core radius for aug-charge                                                  
                                                                                                    
   Atomic configuration                                                                             
    9 entries                                                                                       
     n  l   j            E        occ.                                                              
     1  0  0.50     -8206.4253   2.0000                                                             
     2  0  0.50      -976.1748   2.0000                                                             
     2  1  1.50      -839.0571   6.0000                                                             
     3  0  0.50      -105.9991   2.0000                                                             
     3  1  1.50       -66.4603   6.0000                                                             
     3  2  2.50        -4.6458   9.0000                                                             
     4  0  0.50        -4.4926   1.0000                                                             
     4  1  1.50        -4.0817   0.0000                                                             
     4  3  2.50        -1.3606   0.0000                                                             
   Description                                                                                      
     l       E           TYP  RCUT    TYP  RCUT                                                     
     2     -4.6457903     23  2.300                                                                 
     2     -6.0063729     23  2.300                                                                 
     0     -4.4925590     23  2.300                                                                 
     0      5.0102601     23  2.300                                                                 
     1     -2.7211652     23  2.300                                                                 
     1     16.5183231     23  2.300                                                                 
  local pseudopotential read in
  partial core-charges read in
  partial kinetic energy density read in
  atomic valenz-charges read in
  non local Contribution for L=           2  read in
    real space projection operators read in
  non local Contribution for L=           2  read in
    real space projection operators read in
  non local Contribution for L=           0  read in
    real space projection operators read in
  non local Contribution for L=           0  read in
    real space projection operators read in
  non local Contribution for L=           1  read in
    real space projection operators read in
  non local Contribution for L=           1  read in
    real space projection operators read in
    PAW grid and wavefunctions read in
 
   number of l-projection  operators is LMAX  =           6
   number of lm-projection operators is LMMAX =          18
 
 POTCAR:    PAW_PBE O 08Apr2002                   
   VRHFIN =O: s2p4                                                                                  
   LEXCH  = PE                                                                                      
   EATOM  =   432.3788 eV,   31.7789 Ry                                                             
                                                                                                    
   TITEL  = PAW_PBE O 08Apr2002                                                                     
   LULTRA =        F    use ultrasoft PP ?                                                          
   IUNSCR =        1    unscreen: 0-lin 1-nonlin 2-no                                               
   RPACOR =    1.200    partial core radius                                                         
   POMASS =   16.000; ZVAL   =    6.000    mass and valenz                                          
   RCORE  =    1.520    outmost cutoff radius                                                       
   RWIGS  =    1.550; RWIGS  =    0.820    wigner-seitz radius (au A)                               
   ENMAX  =  400.000; ENMIN  =  300.000 eV                                                          
   ICORE  =        2    local potential                                                             
   LCOR   =        T    correct aug charges                                                         
   LPAW   =        T    paw PP                                                                      
   EAUG   =  605.392                                                                                
   DEXC   =    0.000                                                                                
   RMAX   =    1.553    core radius for proj-oper                                                   
   RAUG   =    1.300    factor for augmentation sphere                                              
   RDEP   =    1.550    radius for radial grids                                                     
   RDEPT  =    1.329    core radius for aug-charge                                                  
                                                                                                    
   Atomic configuration                                                                             
    4 entries                                                                                       
     n  l   j            E        occ.                                                              
     1  0  0.50      -514.6923   2.0000                                                             
     2  0  0.50       -23.9615   2.0000                                                             
     2  1  0.50        -9.0305   4.0000                                                             
     3  2  1.50        -9.5241   0.0000                                                             
   Description                                                                                      
     l       E           TYP  RCUT    TYP  RCUT                                                     
     0    -23.9615318     23  1.200                                                                 
     0     -9.5240782     23  1.200                                                                 
     1     -9.0304911     23  1.520                                                                 
     1      8.1634956     23  1.520                                                                 
     2     -9.5240782      7  1.500                                                                 
  local pseudopotential read in
  partial core-charges read in
  partial kinetic energy density read in
  kinetic energy density of atom read in
  atomic valenz-charges read in
  non local Contribution for L=           0  read in
    real space projection operators read in
  non local Contribution for L=           0  read in
    real space projection operators read in
  non local Contribution for L=           1  read in
    real space projection operators read in
  non local Contribution for L=           1  read in
    real space projection operators read in
    PAW grid and wavefunctions read in
 
   number of l-projection  operators is LMAX  =           4
   number of lm-projection operators is LMMAX =           8
 
 POTCAR:    PAW_PBE H 15Jun2001                   
   VRHFIN =H: ultrasoft test                                                                        
   LEXCH  = PE                                                                                      
   EATOM  =    12.4884 eV,    0.9179 Ry                                                             
                                                                                                    
   TITEL  = PAW_PBE H 15Jun2001                                                                     
   LULTRA =        F    use ultrasoft PP ?                                                          
   IUNSCR =        0    unscreen: 0-lin 1-nonlin 2-no                                               
   RPACOR =    0.000    partial core radius                                                         
   POMASS =    1.000; ZVAL   =    1.000    mass and valenz                                          
   RCORE  =    1.100    outmost cutoff radius                                                       
   RWIGS  =    0.700; RWIGS  =    0.370    wigner-seitz radius (au A)                               
   ENMAX  =  250.000; ENMIN  =  200.000 eV                                                          
   RCLOC  =    0.701    cutoff for local pot                                                        
   LCOR   =        T    correct aug charges                                                         
   LPAW   =        T    paw PP                                                                      
   EAUG   =  400.000                                                                                
   RMAX   =    1.123    core radius for proj-oper                                                   
   RAUG   =    1.200    factor for augmentation sphere                                              
   RDEP   =    1.112    radius for radial grids                                                     
   RDEPT  =    0.926    core radius for aug-charge                                                  
                                                                                                    
   Atomic configuration                                                                             
    2 entries                                                                                       
     n  l   j            E        occ.                                                              
     1  0  0.50        -6.4927   1.0000                                                             
     2  1  0.50        -3.4015   0.0000                                                             
   Description                                                                                      
     l       E           TYP  RCUT    TYP  RCUT                                                     
     0     -6.4927494     23  1.100                                                                 
     0      6.8029130     23  1.100                                                                 
     1     -4.0817478     23  1.100                                                                 
  local pseudopotential read in
  atomic valenz-charges read in
  non local Contribution for L=           0  read in
    real space projection operators read in
  non local Contribution for L=           0  read in
    real space projection operators read in
  non local Contribution for L=           1  read in
    real space projection operators read in
    PAW grid and wavefunctions read in
 
   number of l-projection  operators is LMAX  =           3
   number of lm-projection operators is LMMAX =           5
 
 Optimization of the real space projectors (new method)

 maximal supplied QI-value         = 16.25
 optimisation between [QCUT,QGAM] = [ 11.38, 22.75] = [ 36.24,144.96] Ry 
 Optimized for a Real-space Cutoff    1.52 Angstroem

   l    n(q)    QCUT    max X(q) W(low)/X(q) W(high)/X(q)  e(spline) 
   2      9    11.376     4.610    0.21E-03    0.10E-03    0.26E-06
   2      9    11.376     8.522    0.33E-03    0.16E-03    0.37E-06
   0     10    11.376    51.609    0.62E-04    0.20E-04    0.13E-06
   0     10    11.376    27.747    0.54E-04    0.20E-04    0.13E-06
   1     10    11.376    20.408    0.13E-04    0.99E-04    0.19E-06
   1     10    11.376    13.425    0.12E-04    0.87E-04    0.17E-06
 Optimization of the real space projectors (new method)

 maximal supplied QI-value         = 16.25
 optimisation between [QCUT,QGAM] = [ 11.38, 22.75] = [ 36.24,144.96] Ry 
 Optimized for a Real-space Cutoff    1.39 Angstroem

   l    n(q)    QCUT    max X(q) W(low)/X(q) W(high)/X(q)  e(spline) 
   2      8    11.376    60.317    0.19E-03    0.33E-04    0.13E-06
   2      8    11.376    55.921    0.20E-03    0.34E-04    0.14E-06
   0      9    11.376    51.690    0.82E-04    0.12E-03    0.20E-06
   0      9    11.376    30.015    0.74E-04    0.11E-03    0.18E-06
   1      9    11.376    18.849    0.39E-03    0.12E-03    0.13E-06
   1      9    11.376    14.624    0.33E-03    0.10E-03    0.11E-06
 Optimization of the real space projectors (new method)

 maximal supplied QI-value         = 24.76
 optimisation between [QCUT,QGAM] = [ 11.39, 22.77] = [ 36.31,145.25] Ry 
 Optimized for a Real-space Cutoff    1.00 Angstroem

   l    n(q)    QCUT    max X(q) W(low)/X(q) W(high)/X(q)  e(spline) 
   0      7    11.387    20.381    0.39E-03    0.13E-02    0.15E-06
   0      7    11.387    15.268    0.42E-03    0.14E-02    0.17E-06
   1      6    11.387     5.964    0.41E-03    0.11E-02    0.17E-06
   1      6    11.387     5.382    0.39E-03    0.87E-03    0.15E-06
 Optimization of the real space projectors (new method)

 maximal supplied QI-value         = 34.20
 optimisation between [QCUT,QGAM] = [ 11.29, 22.57] = [ 35.68,142.71] Ry 
 Optimized for a Real-space Cutoff    1.16 Angstroem

   l    n(q)    QCUT    max X(q) W(low)/X(q) W(high)/X(q)  e(spline) 
   0      8    11.287    19.460    0.40E-03    0.73E-03    0.16E-06
   0      8    11.287    12.209    0.38E-03    0.70E-03    0.15E-06
   1      7    11.287     4.655    0.22E-03    0.25E-04    0.22E-06
  PAW_PBE Cu 22Jun2005                  :
 energy of atom  1       EATOM=-1390.9808
 kinetic energy error for atom=    0.0043 (will be added to EATOM!!)
  PAW_PBE Ni 02Aug2007                  :
 energy of atom  2       EATOM=-1077.6739
 kinetic energy error for atom=    0.0030 (will be added to EATOM!!)
  PAW_PBE O 08Apr2002                   :
 energy of atom  3       EATOM= -432.3788
 kinetic energy error for atom=    0.0224 (will be added to EATOM!!)
  PAW_PBE H 15Jun2001                   :
 energy of atom  4       EATOM=  -12.4884
 kinetic energy error for atom=    0.0020 (will be added to EATOM!!)
 
 
 POSCAR: Cu-Ni-OOH
  positions in direct lattice
  velocities in cartesian coordinates
 exchange correlation table for  LEXCH =        8
   RHO(1)=    0.500       N(1)  =     2000
   RHO(2)=  100.500       N(2)  =     4000

 VTST: version 3.2, (02/03/18)

 CHAIN: initializing optimizer
 
 OPT: Using VASP Conjugate-Gradient optimizer
 CHAIN: Read ICHAIN            0
 
 POSCAR: Cu-Ni-OOH
  positions in direct lattice
  velocities in cartesian coordinates
 


--------------------------------------------------------------------------------------------------------


 ion  position               nearest neighbor table
   1  0.000  0.000  0.212-   7 2.57   3 2.57   4 2.57   2 2.57   6 2.57   8 2.57  12 2.57  10 2.57
                            16 2.57
   2  0.333  0.000  0.212-   8 2.57   9 2.57   5 2.57   1 2.57   3 2.57  11 2.57   4 2.57  10 2.57
                            17 2.57
   3  0.667  0.000  0.212-   1 2.57   7 2.57   6 2.57   9 2.57   2 2.57  12 2.57   5 2.57  18 2.57
                            11 2.57
   4  0.000  0.333  0.212-   5 2.57   6 2.57   1 2.57   7 2.57   2 2.57  13 2.57   9 2.57  10 2.57
                            15 2.57
   5  0.333  0.333  0.212-   4 2.57   2 2.57   7 2.57  13 2.57   8 2.57   6 2.57   3 2.57  11 2.57
                            14 2.57
   6  0.667  0.333  0.212-   4 2.57   9 2.57  15 2.57   3 2.57   1 2.57   8 2.57  14 2.57   5 2.57
                            12 2.57
   7  0.000  0.667  0.212-   1 2.57   3 2.57  16 2.57  18 2.57   4 2.57   5 2.57   8 2.57   9 2.57
                            13 2.57
   8  0.333  0.667  0.212-   9 2.57   2 2.57  17 2.57   6 2.57   1 2.57   7 2.57   5 2.57  14 2.57
                            16 2.57
   9  0.667  0.667  0.212-   8 2.57   6 2.57   2 2.57  17 2.57   3 2.57   7 2.57   4 2.57  15 2.57
                            18 2.57
  10  0.111  0.111  0.294-  20 2.55  26 2.56  19 2.56  11 2.57  12 2.57  13 2.57   1 2.57   2 2.57
                             4 2.57  15 2.57  16 2.57  17 2.57
  11  0.444  0.111  0.294-  20 2.55  21 2.55  27 2.56  10 2.57  13 2.57   2 2.57  17 2.57  14 2.57
                            12 2.57   5 2.57   3 2.57  18 2.57
  12  0.778  0.111  0.294-  21 2.55  19 2.56  25 2.56  15 2.57  10 2.57  14 2.57  18 2.57   3 2.57
                             1 2.57  16 2.57  11 2.57   6 2.57
  13  0.111  0.444  0.294-  23 2.55  20 2.55  22 2.56  16 2.57  18 2.57  10 2.57  11 2.57  14 2.57
                             5 2.57   4 2.57   7 2.57  15 2.57
  14  0.444  0.444  0.294-  21 2.55  23 2.55  24 2.56  15 2.57  17 2.57  12 2.57  16 2.57  13 2.57
                            11 2.57   6 2.57   8 2.57   5 2.57
  15  0.778  0.444  0.294-  24 2.55  22 2.55  19 2.56  14 2.57  17 2.57  12 2.57   6 2.57  18 2.57
                            10 2.57   9 2.57  13 2.57   4 2.57
  16  0.111  0.778  0.294-  23 2.55  25 2.56  26 2.56  18 2.57  13 2.57   7 2.57  14 2.57  17 2.57
                            12 2.57  10 2.57   8 2.57   1 2.57
  17  0.444  0.778  0.294-  27 2.55  24 2.55  26 2.56  14 2.57  15 2.57   8 2.57   9 2.57  11 2.57
                            16 2.57  18 2.57  10 2.57   2 2.57
  18  0.778  0.778  0.294-  22 2.55  27 2.55  25 2.56  16 2.57  13 2.57   7 2.57  15 2.57  12 2.57
                            17 2.57   9 2.57   3 2.57  11 2.57
  19  0.889  0.223  0.376-  28 2.54  32 2.55  31 2.55  15 2.56  12 2.56  10 2.56  22 2.56  24 2.56
                            21 2.57  20 2.57  25 2.57  26 2.57
  20  0.222  0.222  0.376-  36 2.48  29 2.54  31 2.54  10 2.55  11 2.55  13 2.55  26 2.57  19 2.57
                            27 2.57  22 2.57  23 2.57  21 2.57
  21  0.556  0.222  0.376-  36 2.48  32 2.54  30 2.54  12 2.55  14 2.55  11 2.55  19 2.57  25 2.57
                            24 2.57  27 2.57  20 2.57  23 2.57
  22  0.889  0.556  0.376-  35 2.54  31 2.55  33 2.55  18 2.55  15 2.55  13 2.56  19 2.56  25 2.56
                            24 2.57  27 2.57  23 2.57  20 2.57
  23  0.222  0.556  0.376-  36 2.48  33 2.54  34 2.54  16 2.55  13 2.55  14 2.55  25 2.57  26 2.57
                            22 2.57  24 2.57  20 2.57  21 2.57
  24  0.556  0.556  0.376-  35 2.54  32 2.55  34 2.55  15 2.55  17 2.55  14 2.56  19 2.56  26 2.56
                            22 2.57  27 2.57  21 2.57  23 2.57
  25  0.889  0.889  0.376-  28 2.54  33 2.55  30 2.55  18 2.56  16 2.56  12 2.56  22 2.56  27 2.56
                            21 2.57  23 2.57  19 2.57  26 2.57
  26  0.223  0.889  0.376-  28 2.54  29 2.55  34 2.55  17 2.56  10 2.56  16 2.56  27 2.56  24 2.56
                            20 2.57  23 2.57  25 2.57  19 2.57
  27  0.556  0.889  0.376-  35 2.54  29 2.55  30 2.55  17 2.55  18 2.55  11 2.56  26 2.56  25 2.56
                            24 2.57  22 2.57  20 2.57  21 2.57
  28  0.000  0.000  0.458-  25 2.54  19 2.54  26 2.54  33 2.57  30 2.57  31 2.57  29 2.57  32 2.57
                            34 2.57
  29  0.333  0.002  0.458-  20 2.54  27 2.55  31 2.55  36 2.55  30 2.55  26 2.55  28 2.57  35 2.57
                            34 2.60
  30  0.665  0.002  0.458-  21 2.54  27 2.55  32 2.55  36 2.55  29 2.55  25 2.55  28 2.57  35 2.57
                            33 2.60
  31  0.002  0.333  0.458-  20 2.54  22 2.55  29 2.55  36 2.55  33 2.55  19 2.55  28 2.57  35 2.57
                            32 2.60
  32  0.665  0.333  0.458-  37 2.05  21 2.54  24 2.55  30 2.55  36 2.55  34 2.55  19 2.55  28 2.57
                            35 2.57  31 2.60
  33  0.002  0.665  0.458-  23 2.54  22 2.55  34 2.55  36 2.55  31 2.55  25 2.55  28 2.57  35 2.57
                            30 2.60
  34  0.333  0.665  0.458-  37 2.02  23 2.54  24 2.55  33 2.55  36 2.55  32 2.55  26 2.55  28 2.57
                            35 2.57  29 2.60
  35  0.667  0.667  0.458-  24 2.54  27 2.54  22 2.54  34 2.57  32 2.57  29 2.57  30 2.57  33 2.57
                            31 2.57
  36  0.333  0.333  0.455-  37 1.88  23 2.48  20 2.48  21 2.48  31 2.55  29 2.55  33 2.55  34 2.55
                            32 2.55  30 2.55
  37  0.427  0.432  0.509-  38 1.63  36 1.88  34 2.02  32 2.05
  38  0.361  0.430  0.570-  39 0.98  37 1.63
  39  0.496  0.372  0.585-  38 0.98
 
  LATTYP: Found a hexagonal cell.
 ALAT       =     7.6967864036
 C/A-ratio  =     3.2973366172
  
  Lattice vectors:
  
 A1 = (  -3.8483927580,  -6.6656128093,   0.0000000000)
 A2 = (   7.6967864037,   0.0000000000,   0.0000000000)
 A3 = (   0.0000000000,   0.0000000000,  25.3788956434)


Analysis of symmetry for initial positions (statically):
=====================================================================
 Subroutine PRICEL returns:
 Original cell was already a primitive cell.
 

 Routine SETGRP: Setting up the symmetry group for a 
 hexagonal supercell.


 Subroutine GETGRP returns: Found  1 space group operations
 (whereof  1 operations were pure point group operations)
 out of a pool of 24 trial point group operations.


The static configuration has the point symmetry C_1 .


Analysis of symmetry for dynamics (positions and initial velocities):
=====================================================================
 Subroutine PRICEL returns:
 Original cell was already a primitive cell.
 

 Routine SETGRP: Setting up the symmetry group for a 
 hexagonal supercell.


 Subroutine GETGRP returns: Found  1 space group operations
 (whereof  1 operations were pure point group operations)
 out of a pool of 24 trial point group operations.


The dynamic configuration has the point symmetry C_1 .


Analysis of constrained symmetry for selective dynamics:
=====================================================================
 Subroutine PRICEL returns:
 Original cell was already a primitive cell.
 

 Routine SETGRP: Setting up the symmetry group for a 
 hexagonal supercell.


 Subroutine GETGRP returns: Found  1 space group operations
 (whereof  1 operations were pure point group operations)
 out of a pool of 24 trial point group operations.


The constrained configuration has the point symmetry C_1 .


 Subroutine INISYM returns: Found  1 space group operations
 (whereof  1 operations are pure point group operations),
 and found     1 'primitive' translations


----------------------------------------------------------------------------------------

                                     Primitive cell                                     

  volume of cell :    1302.0337

  direct lattice vectors                    reciprocal lattice vectors
     7.696786404  0.000000000  0.000000000     0.129924354 -0.075011849  0.000000000
     3.848392758  6.665612809  0.000000000     0.000000000  0.150023716  0.000000000
     0.000000000  0.000000000 25.378895643     0.000000000  0.000000000  0.039402818

  length of vectors
     7.696786404  7.696786404 25.378895643     0.150023716  0.150023716  0.039402818

  position of ions in fractional coordinates (direct lattice)
     0.000000000  0.000000000  0.211654586
     0.333333343  0.000000000  0.211654586
     0.666666687  0.000000000  0.211654586
     1.000000000  0.333333343  0.211654586
     0.333333313  0.333333343  0.211654586
     0.666666687  0.333333343  0.211654586
     1.000000000  0.666666687  0.211654586
     0.333333373  0.666666687  0.211654586
     0.666666627  0.666666687  0.211654586
     0.111111119  0.111111112  0.294195619
     0.444444418  0.111111112  0.294195619
     0.777777791  0.111111112  0.294195619
     0.111111119  0.444444448  0.294195619
     0.444444478  0.444444448  0.294195619
     0.777777731  0.444444448  0.294195619
     0.111111112  0.777777731  0.294195619
     0.444444478  0.777777731  0.294195619
     0.777777851  0.777777731  0.294195619
     0.888717636  0.222564743  0.376324963
     0.222205667  0.222205652  0.376011150
     0.555588727  0.222205652  0.376011150
     0.888848763  0.555575588  0.376221743
     0.222205637  0.555588667  0.376011150
     0.555575648  0.555575588  0.376221743
     0.888717636  0.888717636  0.376324963
     0.222564758  0.888717636  0.376324963
     0.555575588  0.888848763  0.376221743
     0.000000000  0.000000000  0.457673722
     0.333207055  0.002169920  0.457862559
     0.664623055  0.002169920  0.457862559
     0.002169920  0.333207055  0.457862559
     0.664623055  0.333207055  0.457862559
     0.002169920  0.664623055  0.457862559
     0.333207085  0.664623055  0.457862559
     0.666666627  0.666666687  0.457612469
     0.333333313  0.333333343  0.454519567
     0.426911815  0.432173066  0.508675301
     0.361339569  0.430156041  0.569567615
     0.495617029  0.372296404  0.585037068

  ion indices of the primitive-cell ions
   primitive index   ion index
                 1           1
                 2           2
                 3           3
                 4           4
                 5           5
                 6           6
                 7           7
                 8           8
                 9           9
                10          10
                11          11
                12          12
                13          13
                14          14
                15          15
                16          16
                17          17
                18          18
                19          19
                20          20
                21          21
                22          22
                23          23
                24          24
                25          25
                26          26
                27          27
                28          28
                29          29
                30          30
                31          31
                32          32
                33          33
                34          34
                35          35
                36          36
                37          37
                38          38
                39          39

----------------------------------------------------------------------------------------

 
 
 KPOINTS: Automatic mesh                          

Automatic generation of k-mesh.
 Grid dimensions read from file:
 generate k-points for:    8    8    1

 Generating k-lattice:

  Cartesian coordinates                     Fractional coordinates (reciprocal lattice)
     0.016240544 -0.009376481  0.000000000     0.125000000 -0.000000000  0.000000000
     0.000000000  0.018752964  0.000000000     0.000000000  0.125000000  0.000000000
     0.000000000  0.000000000  0.039402818     0.000000000  0.000000000  1.000000000

  Length of vectors
     0.018752964  0.018752964  0.039402818

  Shift w.r.t. Gamma in fractional coordinates (k-lattice)
     0.000000000  0.000000000  0.000000000

 TETIRR: Found    192 inequivalent tetrahedra from      384
 
 Subroutine IBZKPT returns following result:
 ===========================================
 
 Found     34 irreducible k-points:
 
 Following reciprocal coordinates:
            Coordinates               Weight
  0.000000  0.000000  0.000000      1.000000
  0.125000  0.000000  0.000000      2.000000
  0.125000  0.125000  0.000000      2.000000
  0.000000  0.125000  0.000000      2.000000
  0.250000  0.000000  0.000000      2.000000
  0.250000  0.250000  0.000000      2.000000
  0.000000  0.250000  0.000000      2.000000
  0.375000  0.000000  0.000000      2.000000
  0.375000  0.375000  0.000000      2.000000
  0.000000  0.375000  0.000000      2.000000
  0.500000  0.000000  0.000000      1.000000
  0.500000  0.500000  0.000000      1.000000
  0.000000  0.500000  0.000000      1.000000
  0.250000  0.125000  0.000000      2.000000
  0.125000  0.250000  0.000000      2.000000
 -0.125000  0.125000  0.000000      2.000000
  0.375000  0.125000  0.000000      2.000000
  0.250000  0.375000  0.000000      2.000000
 -0.125000  0.250000  0.000000      2.000000
  0.250000 -0.125000  0.000000      2.000000
 -0.125000 -0.375000  0.000000      2.000000
 -0.375000 -0.250000  0.000000      2.000000
  0.500000  0.125000  0.000000      2.000000
  0.375000  0.500000  0.000000      2.000000
 -0.125000  0.375000  0.000000      2.000000
  0.375000 -0.125000  0.000000      2.000000
 -0.125000  0.500000  0.000000      2.000000
  0.500000 -0.375000  0.000000      2.000000
  0.500000  0.250000  0.000000      2.000000
  0.250000  0.500000  0.000000      2.000000
 -0.250000  0.250000  0.000000      2.000000
 -0.375000  0.250000  0.000000      2.000000
  0.375000 -0.375000  0.000000      2.000000
 -0.250000  0.375000  0.000000      2.000000
 
 Following cartesian coordinates:
            Coordinates               Weight
  0.000000  0.000000  0.000000      1.000000
  0.016241 -0.009376  0.000000      2.000000
  0.016241  0.009376  0.000000      2.000000
  0.000000  0.018753  0.000000      2.000000
  0.032481 -0.018753  0.000000      2.000000
  0.032481  0.018753  0.000000      2.000000
  0.000000  0.037506  0.000000      2.000000
  0.048722 -0.028129  0.000000      2.000000
  0.048722  0.028129  0.000000      2.000000
  0.000000  0.056259  0.000000      2.000000
  0.064962 -0.037506  0.000000      1.000000
  0.064962  0.037506  0.000000      1.000000
  0.000000  0.075012  0.000000      1.000000
  0.032481  0.000000  0.000000      2.000000
  0.016241  0.028129  0.000000      2.000000
 -0.016241  0.028129  0.000000      2.000000
  0.048722 -0.009376  0.000000      2.000000
  0.032481  0.037506  0.000000      2.000000
 -0.016241  0.046882  0.000000      2.000000
  0.032481 -0.037506  0.000000      2.000000
 -0.016241 -0.046882  0.000000      2.000000
 -0.048722 -0.009376  0.000000      2.000000
  0.064962 -0.018753  0.000000      2.000000
  0.048722  0.046882  0.000000      2.000000
 -0.016241  0.065635  0.000000      2.000000
  0.048722 -0.046882  0.000000      2.000000
 -0.016241  0.084388  0.000000      2.000000
  0.064962 -0.093765  0.000000      2.000000
  0.064962  0.000000  0.000000      2.000000
  0.032481  0.056259  0.000000      2.000000
 -0.032481  0.056259  0.000000      2.000000
 -0.048722  0.065635  0.000000      2.000000
  0.048722 -0.084388  0.000000      2.000000
 -0.032481  0.075012  0.000000      2.000000
 


--------------------------------------------------------------------------------------------------------




 Dimension of arrays:
   k-points           NKPTS =     34   k-points in BZ     NKDIM =     34   number of bands    NBANDS=    252
   number of dos      NEDOS =    301   number of ions     NIONS =     39
   non local maximal  LDIM  =      6   non local SUM 2l+1 LMDIM =     18
   total plane-waves  NPLWV = 246960
   max r-space proj   IRMAX =   2832   max aug-charges    IRDMAX=   6347
   dimension x,y,z NGX =    42 NGY =   42 NGZ =  140
   dimension x,y,z NGXF=    84 NGYF=   84 NGZF=  280
   support grid    NGXF=    84 NGYF=   84 NGZF=  280
   ions per type =              35   1   2   1
   NGX,Y,Z   is equivalent  to a cutoff of   9.07,  9.07,  9.17 a.u.
   NGXF,Y,Z  is equivalent  to a cutoff of  18.14, 18.14, 18.34 a.u.

 SYSTEM =  unknown system                          
 POSCAR =  Cu-Ni-OOH                               

 Startparameter for this run:
   NWRITE =      2    write-flag & timer
   PREC   = normal    normal or accurate (medium, high low for compatibility)
   ISTART =      0    job   : 0-new  1-cont  2-samecut
   ICHARG =     11    charge: 1-file 2-atom 10-const
   ISPIN  =      1    spin polarized calculation?
   LNONCOLLINEAR =      F non collinear calculations
   LSORBIT =      F    spin-orbit coupling
   INIWAV =      1    electr: 0-lowe 1-rand  2-diag
   LASPH  =      F    aspherical Exc in radial PAW
   METAGGA=      F    non-selfconsistent MetaGGA calc.

 Electronic Relaxation 1
   ENCUT  =  500.0 eV  36.75 Ry    6.06 a.u.  14.03 14.03 46.27*2*pi/ulx,y,z
   ENINI  =  500.0     initial cutoff
   ENAUG  =  605.4 eV  augmentation charge cutoff
   NELM   =    150;   NELMIN=  2; NELMDL= -5     # of ELM steps 
   EDIFF  = 0.1E-04   stopping-criterion for ELM
   LREAL  =      T    real-space projection
   NLSPLINE    = F    spline interpolate recip. space projectors
   LCOMPAT=      F    compatible to vasp.4.4
   GGA_COMPAT  = T    GGA compatible to vasp.4.4-vasp.4.6
   LMAXPAW     = -100 max onsite density
   LMAXMIX     =    2 max onsite mixed and CHGCAR
   VOSKOWN=      0    Vosko Wilk Nusair interpolation
   ROPT   =   -0.00050  -0.00050  -0.00050  -0.00050
 Ionic relaxation
   EDIFFG = -.1E-01   stopping-criterion for IOM
   NSW    =      0    number of steps for IOM
   NBLOCK =      1;   KBLOCK =      1    inner block; outer block 
   IBRION =     -1    ionic relax: 0-MD 1-quasi-New 2-CG
   NFREE  =      1    steps in history (QN), initial steepest desc. (CG)
   ISIF   =      2    stress and relaxation
   IWAVPR =     10    prediction:  0-non 1-charg 2-wave 3-comb
   ISYM   =      2    0-nonsym 1-usesym 2-fastsym
   LCORR  =      T    Harris-Foulkes like correction to forces

   POTIM  = 0.5000    time-step for ionic-motion
   TEIN   =    0.0    initial temperature
   TEBEG  =    0.0;   TEEND  =   0.0 temperature during run
   SMASS  =  -3.00    Nose mass-parameter (am)
   estimated Nose-frequenzy (Omega)   =  0.10E-29 period in steps = 0.13E+47 mass=  -0.135E-26a.u.
   SCALEE = 1.0000    scale energy and forces
   NPACO  =    256;   APACO  = 16.0  distance and # of slots for P.C.
   PSTRESS=    0.0 pullay stress

  Mass of Ions in am
   POMASS =  63.55 58.69 16.00  1.00
  Ionic Valenz
   ZVAL   =  11.00 10.00  6.00  1.00
  Atomic Wigner-Seitz radii
   RWIGS  =  -1.00 -1.00 -1.00 -1.00
  virtual crystal weights 
   VCA    =   1.00  1.00  1.00  1.00
   NELECT =     408.0000    total number of electrons
   NUPDOWN=      -1.0000    fix difference up-down

 DOS related values:
   EMIN   =  10.00;   EMAX   =-10.00  energy-range for DOS
   EFERMI =   0.00
   ISMEAR =    -5;   SIGMA  =   0.10  broadening in eV -4-tet -1-fermi 0-gaus

 Electronic relaxation 2 (details)
   IALGO  =     68    algorithm
   LDIAG  =      T    sub-space diagonalisation (order eigenvalues)
   LSUBROT=      F    optimize rotation matrix (better conditioning)
   TURBO    =      0    0=normal 1=particle mesh
   IRESTART =      0    0=no restart 2=restart with 2 vectors
   NREBOOT  =      0    no. of reboots
   NMIN     =      0    reboot dimension
   EREF     =   0.00    reference energy to select bands
   IMIX   =      4    mixing-type and parameters
     AMIX     =   0.40;   BMIX     =  1.00
     AMIX_MAG =   1.60;   BMIX_MAG =  1.00
     AMIN     =   0.10
     WC   =   100.;   INIMIX=   1;  MIXPRE=   1;  MAXMIX= -45

 Intra band minimization:
   WEIMIN = 0.0000     energy-eigenvalue tresh-hold
   EBREAK =  0.99E-08  absolut break condition
   DEPER  =   0.30     relativ break condition  

   TIME   =   0.40     timestep for ELM

  volume/ion in A,a.u.               =      33.39       225.30
  Fermi-wavevector in a.u.,A,eV,Ry     =   1.111956  2.101292 16.822861  1.236445
  Thomas-Fermi vector in A             =   2.248525
 
 Write flags
   LWAVE        =      F    write WAVECAR
   LDOWNSAMPLE  =      F    k-point downsampling of WAVECAR
   LCHARG       =      F    write CHGCAR
   LVTOT        =      F    write LOCPOT, total local potential
   LVHAR        =      F    write LOCPOT, Hartree potential only
   LELF         =      F    write electronic localiz. function (ELF)
   LORBIT       =     10    0 simple, 1 ext, 2 COOP (PROOUT), +10 PAW based schemes


 Dipole corrections
   LMONO  =      F    monopole corrections only (constant potential shift)
   LDIPOL =      F    correct potential (dipole corrections)
   IDIPOL =      0    1-x, 2-y, 3-z, 4-all directions 
   EPSILON=  1.0000000 bulk dielectric constant

 Exchange correlation treatment:
   GGA     =    --    GGA type
   LEXCH   =     8    internal setting for exchange type
   VOSKOWN=      0    Vosko Wilk Nusair interpolation
   LHFCALC =     F    Hartree Fock is set to
   LHFONE  =     F    Hartree Fock one center treatment
   AEXX    =    0.0000 exact exchange contribution

 Linear response parameters
   LEPSILON=     F    determine dielectric tensor
   LRPA    =     F    only Hartree local field effects (RPA)
   LNABLA  =     F    use nabla operator in PAW spheres
   LVEL    =     F    velocity operator in full k-point grid
   LINTERFAST=   F  fast interpolation
   KINTER  =     0    interpolate to denser k-point grid
   CSHIFT  =0.1000    complex shift for real part using Kramers Kronig
   OMEGAMAX=  -1.0    maximum frequency
   DEG_THRESHOLD= 0.2000000E-02 threshold for treating states as degnerate
   RTIME   =   -0.100 relaxation time in fs
  (WPLASMAI=    0.000 imaginary part of plasma frequency in eV, 0.658/RTIME)
   DFIELD  = 0.0000000 0.0000000 0.0000000 field for delta impulse in time
 
 Orbital magnetization related:
   ORBITALMAG=     F  switch on orbital magnetization
   LCHIMAG   =     F  perturbation theory with respect to B field
   DQ        =  0.001000  dq finite difference perturbation B field
   LLRAUG    =     F  two centre corrections for induced B field



--------------------------------------------------------------------------------------------------------


 Static calculation
 charge density and potential remain constant during run
 non-spin polarized calculation
 RMM-DIIS sequential band-by-band and
  variant of blocked Davidson during initial phase
 perform sub-space diagonalisation
    before iterative eigenvector-optimisation
 no mixing
 using additional bands           48
 real space projection scheme for non local part
 use partial core corrections
 calculate Harris-corrections to forces 
   (improved forces if not selfconsistent)
 use gradient corrections 
 WARNING: stress and forces are not correct
  (second derivative of E(xc) not defined)
 use of overlap-Matrix (Vanderbilt PP)
 Fermi weights with tetrahedron method with Bloechl corrections


--------------------------------------------------------------------------------------------------------


  energy-cutoff  :      500.00
  volume of cell :     1302.03
      direct lattice vectors                 reciprocal lattice vectors
     7.696786404  0.000000000  0.000000000     0.129924354 -0.075011849  0.000000000
     3.848392758  6.665612809  0.000000000     0.000000000  0.150023716  0.000000000
     0.000000000  0.000000000 25.378895643     0.000000000  0.000000000  0.039402818

  length of vectors
     7.696786404  7.696786404 25.378895643     0.150023716  0.150023716  0.039402818


 
 k-points in units of 2pi/SCALE and weight: Automatic mesh                          
   0.00000000  0.00000000  0.00000000       0.016
   0.01624054 -0.00937648  0.00000000       0.031
   0.01624054  0.00937648  0.00000000       0.031
   0.00000000  0.01875296  0.00000000       0.031
   0.03248109 -0.01875296  0.00000000       0.031
   0.03248109  0.01875297  0.00000000       0.031
   0.00000000  0.03750593  0.00000000       0.031
   0.04872163 -0.02812944  0.00000000       0.031
   0.04872163  0.02812945  0.00000000       0.031
   0.00000000  0.05625889  0.00000000       0.031
   0.06496218 -0.03750592  0.00000000       0.016
   0.06496218  0.03750593  0.00000000       0.016
   0.00000000  0.07501186  0.00000000       0.016
   0.03248109  0.00000000  0.00000000       0.031
   0.01624054  0.02812945  0.00000000       0.031
  -0.01624054  0.02812945  0.00000000       0.031
   0.04872163 -0.00937648  0.00000000       0.031
   0.03248109  0.03750593  0.00000000       0.031
  -0.01624054  0.04688241  0.00000000       0.031
   0.03248109 -0.03750593  0.00000000       0.031
  -0.01624054 -0.04688241  0.00000000       0.031
  -0.04872163 -0.00937649  0.00000000       0.031
   0.06496218 -0.01875296  0.00000000       0.031
   0.04872163  0.04688241  0.00000000       0.031
  -0.01624054  0.06563537  0.00000000       0.031
   0.04872163 -0.04688241  0.00000000       0.031
  -0.01624054  0.08438834  0.00000000       0.031
   0.06496218 -0.09376482  0.00000000       0.031
   0.06496218  0.00000000  0.00000000       0.031
   0.03248109  0.05625890  0.00000000       0.031
  -0.03248109  0.05625889  0.00000000       0.031
  -0.04872163  0.06563537  0.00000000       0.031
   0.04872163 -0.08438834  0.00000000       0.031
  -0.03248109  0.07501186  0.00000000       0.031
 
 k-points in reciprocal lattice and weights: Automatic mesh                          
   0.00000000  0.00000000  0.00000000       0.016
   0.12500000  0.00000000  0.00000000       0.031
   0.12500000  0.12500000  0.00000000       0.031
   0.00000000  0.12500000  0.00000000       0.031
   0.25000000  0.00000000  0.00000000       0.031
   0.25000000  0.25000000  0.00000000       0.031
   0.00000000  0.25000000  0.00000000       0.031
   0.37500000  0.00000000  0.00000000       0.031
   0.37500000  0.37500000  0.00000000       0.031
   0.00000000  0.37500000  0.00000000       0.031
   0.50000000  0.00000000  0.00000000       0.016
   0.50000000  0.50000000  0.00000000       0.016
   0.00000000  0.50000000  0.00000000       0.016
   0.25000000  0.12500000  0.00000000       0.031
   0.12500000  0.25000000  0.00000000       0.031
  -0.12500000  0.12500000  0.00000000       0.031
   0.37500000  0.12500000  0.00000000       0.031
   0.25000000  0.37500000  0.00000000       0.031
  -0.12500000  0.25000000  0.00000000       0.031
   0.25000000 -0.12500000  0.00000000       0.031
  -0.12500000 -0.37500000  0.00000000       0.031
  -0.37500000 -0.25000000  0.00000000       0.031
   0.50000000  0.12500000  0.00000000       0.031
   0.37500000  0.50000000  0.00000000       0.031
  -0.12500000  0.37500000  0.00000000       0.031
   0.37500000 -0.12500000  0.00000000       0.031
  -0.12500000  0.50000000  0.00000000       0.031
   0.50000000 -0.37500000  0.00000000       0.031
   0.50000000  0.25000000  0.00000000       0.031
   0.25000000  0.50000000  0.00000000       0.031
  -0.25000000  0.25000000  0.00000000       0.031
  -0.37500000  0.25000000  0.00000000       0.031
   0.37500000 -0.37500000  0.00000000       0.031
  -0.25000000  0.37500000  0.00000000       0.031
 
 position of ions in fractional coordinates (direct lattice) 
   0.00000000  0.00000000  0.21165459
   0.33333334  0.00000000  0.21165459
   0.66666669  0.00000000  0.21165459
   0.00000000  0.33333334  0.21165459
   0.33333331  0.33333334  0.21165459
   0.66666669  0.33333334  0.21165459
   0.00000000  0.66666669  0.21165459
   0.33333337  0.66666669  0.21165459
   0.66666663  0.66666669  0.21165459
   0.11111112  0.11111111  0.29419562
   0.44444442  0.11111111  0.29419562
   0.77777779  0.11111111  0.29419562
   0.11111112  0.44444445  0.29419562
   0.44444448  0.44444445  0.29419562
   0.77777773  0.44444445  0.29419562
   0.11111111  0.77777773  0.29419562
   0.44444448  0.77777773  0.29419562
   0.77777785  0.77777773  0.29419562
   0.88871764  0.22256474  0.37632496
   0.22220567  0.22220565  0.37601115
   0.55558873  0.22220565  0.37601115
   0.88884876  0.55557559  0.37622174
   0.22220564  0.55558867  0.37601115
   0.55557565  0.55557559  0.37622174
   0.88871764  0.88871764  0.37632496
   0.22256476  0.88871764  0.37632496
   0.55557559  0.88884876  0.37622174
   0.00000000  0.00000000  0.45767372
   0.33320706  0.00216992  0.45786256
   0.66462305  0.00216992  0.45786256
   0.00216992  0.33320706  0.45786256
   0.66462305  0.33320706  0.45786256
   0.00216992  0.66462305  0.45786256
   0.33320709  0.66462305  0.45786256
   0.66666663  0.66666669  0.45761247
   0.33333331  0.33333334  0.45451957
   0.42691181  0.43217307  0.50867530
   0.36133957  0.43015604  0.56956761
   0.49561703  0.37229640  0.58503707
 
 position of ions in cartesian coordinates  (Angst):
   0.00000000  0.00000000  5.37155964
   2.56559554  0.00000000  5.37155964
   5.13119109  0.00000000  5.37155964
   1.28279762  2.22187100  5.37155964
   3.84839293  2.22187100  5.37155964
   6.41398872  2.22187100  5.37155964
   2.56559525  4.44374201  5.37155964
   5.13119102  4.44374201  5.37155964
   7.69678588  4.44374201  5.37155964
   1.28279775  0.74062365  7.46635991
   3.84839295  0.74062365  7.46635991
   6.41398873  0.74062365  7.46635991
   2.56559535  2.96249461  7.46635991
   5.13119101  2.96249461  7.46635991
   7.69678586  2.96249461  7.46635991
   3.84839268  5.18436521  7.46635991
   6.41398840  5.18436521  7.46635991
   8.97958418  5.18436521  7.46635991
   7.69678637  1.48353040  9.55071198
   2.56540417  1.48113684  9.54274773
   5.13138238  1.48113684  9.54274773
   8.97935215  3.70325176  9.54809236
   3.84839272  3.70333893  9.54274773
   6.41422017  3.70325176  9.54809236
  10.26040434  5.92384766  9.55071198
   5.13316792  5.92384766  9.55071198
   7.69678578  5.92472170  9.54809236
   0.00000000  0.00000000 11.61525363
   2.57297424  0.01446385 11.62004611
   5.12381239  0.01446385 11.62004611
   1.29901303  2.22102922 11.62004611
   6.39777331  2.22102922 11.62004611
   2.57443196  4.43011995 11.62004611
   5.12235431  4.43011995 11.62004611
   7.69678588  4.44374201 11.61369909
   3.84839293  2.22187100 11.53520467
   4.94902075  2.88069833 12.90961739
   4.43656287  2.86725361 14.45499705
   5.24740120  2.48158368 14.84759469
 


--------------------------------------------------------------------------------------------------------


 k-point   1 :   0.0000 0.0000 0.0000  plane waves:   33027
 k-point   2 :   0.1250 0.0000 0.0000  plane waves:   32999
 k-point   3 :   0.1250 0.1250 0.0000  plane waves:   32999
 k-point   4 :   0.0000 0.1250 0.0000  plane waves:   32999
 k-point   5 :   0.2500 0.0000 0.0000  plane waves:   33054
 k-point   6 :   0.2500 0.2500 0.0000  plane waves:   33054
 k-point   7 :   0.0000 0.2500 0.0000  plane waves:   33054
 k-point   8 :   0.3750 0.0000 0.0000  plane waves:   33036
 k-point   9 :   0.3750 0.3750 0.0000  plane waves:   33036
 k-point  10 :   0.0000 0.3750 0.0000  plane waves:   33036
 k-point  11 :   0.5000 0.0000 0.0000  plane waves:   33066
 k-point  12 :   0.5000 0.5000 0.0000  plane waves:   33066
 k-point  13 :   0.0000 0.5000 0.0000  plane waves:   33066
 k-point  14 :   0.2500 0.1250 0.0000  plane waves:   33058
 k-point  15 :   0.1250 0.2500 0.0000  plane waves:   33058
 k-point  16 :  -0.1250 0.1250 0.0000  plane waves:   33058
 k-point  17 :   0.3750 0.1250 0.0000  plane waves:   33072
 k-point  18 :   0.2500 0.3750 0.0000  plane waves:   33072
 k-point  19 :  -0.1250 0.2500 0.0000  plane waves:   33072
 k-point  20 :   0.2500-0.1250 0.0000  plane waves:   33072
 k-point  21 :  -0.1250-0.3750 0.0000  plane waves:   33072
 k-point  22 :  -0.3750-0.2500 0.0000  plane waves:   33072
 k-point  23 :   0.5000 0.1250 0.0000  plane waves:   33053
 k-point  24 :   0.3750 0.5000 0.0000  plane waves:   33053
 k-point  25 :  -0.1250 0.3750 0.0000  plane waves:   33053
 k-point  26 :   0.3750-0.1250 0.0000  plane waves:   33053
 k-point  27 :  -0.1250 0.5000 0.0000  plane waves:   33053
 k-point  28 :   0.5000-0.3750 0.0000  plane waves:   33053
 k-point  29 :   0.5000 0.2500 0.0000  plane waves:   33084
 k-point  30 :   0.2500 0.5000 0.0000  plane waves:   33084
 k-point  31 :  -0.2500 0.2500 0.0000  plane waves:   33084
 k-point  32 :  -0.3750 0.2500 0.0000  plane waves:   33108
 k-point  33 :   0.3750-0.3750 0.0000  plane waves:   33108
 k-point  34 :  -0.2500 0.3750 0.0000  plane waves:   33108

 maximum and minimum number of plane-waves per node :     33108    32999

 maximum number of plane-waves:     33108
 maximum index in each direction: 
   IXMAX=   14   IYMAX=   14   IZMAX=   46
   IXMIN=  -14   IYMIN=  -14   IZMIN=  -46


 serial   3D FFT for wavefunctions
 parallel 3D FFT for charge:
    minimum data exchange during FFTs selected (reduces bandwidth)


 total amount of memory used by VASP MPI-rank0   231826. kBytes
=======================================================================

   base      :      30000. kBytes
   nonlr-proj:      17346. kBytes
   fftplans  :       3394. kBytes
   grid      :      15015. kBytes
   one-center:        606. kBytes
   wavefun   :     165465. kBytes
 
     INWAV:  cpu time    0.0000: real time    0.0000
 initial charge density was supplied:
 number of electron     407.9999270 magnetization 
 keeping initial charge density in first step


--------------------------------------------------------------------------------------------------------


 Maximum index for non-local projection operator         2735
 Maximum index for augmentation-charges          364 (set IRDMAX)


--------------------------------------------------------------------------------------------------------


 First call to EWALD:  gamma=   0.162
 Maximum number of real-space cells 4x 4x 1
 Maximum number of reciprocal cells 2x 2x 6

    FEWALD:  cpu time    0.0013: real time    0.0013


--------------------------------------- Iteration      1(   1)  ---------------------------------------


    POTLOK:  cpu time    0.0324: real time    0.0328
    SETDIJ:  cpu time    0.0041: real time    0.0043
     EDDAV:  cpu time   22.0681: real time   22.0698
 BZINTS: Fermi energy:   12.425465;  408.000000 electrons
         Band energy: 0.228667E+04;  BLOECHL correction:   -0.028252
       DOS:  cpu time    0.0614: real time    0.0614
    --------------------------------------------
      LOOP:  cpu time   22.1661: real time   22.1683

 eigenvalue-minimisations  : 17136
 total energy-change (2. order) : 0.3623924E+04  (-0.1749072E+05)
 number of electron     407.9999270 magnetization 
 augmentation part      407.9999270 magnetization 

 Free energy of the ion-electron system (eV)
  ---------------------------------------------------
  alpha Z        PSCENC =       760.42290677
  Ewald energy   TEWEN  =    234685.38573377
  -Hartree energ DENC   =   -282555.37023306
  -exchange      EXHF   =         0.00000000
  -V(xc)+E(xc)   XCENC  =      1647.82442652
  PAW double counting   =     47665.63423269   -51505.68898280
  entropy T*S    EENTRO =         0.00000000
  eigenvalues    EBANDS =      2286.66678765
  atomic energy  EATOM  =     50639.04929311
  Solvation  Ediel_sol  =         0.00000000
  ---------------------------------------------------
  free energy    TOTEN  =      3623.92416464 eV

  energy without entropy =     3623.92416464  energy(sigma->0) =     3623.92416464


--------------------------------------------------------------------------------------------------------




--------------------------------------- Iteration      1(   2)  ---------------------------------------


     EDDAV:  cpu time   22.0464: real time   22.0468
 BZINTS: Fermi energy:    2.318189;  408.000000 electrons
         Band energy:-0.100287E+04;  BLOECHL correction:   -0.023637
       DOS:  cpu time    0.0543: real time    0.0543
    --------------------------------------------
      LOOP:  cpu time   22.1006: real time   22.1011

 eigenvalue-minimisations  : 17136
 total energy-change (2. order) :-0.3289532E+04  (-0.3173123E+04)
 number of electron     407.9999270 magnetization 
 augmentation part      407.9999270 magnetization 

 Free energy of the ion-electron system (eV)
  ---------------------------------------------------
  alpha Z        PSCENC =       760.42290677
  Ewald energy   TEWEN  =    234685.38573377
  -Hartree energ DENC   =   -282555.37023306
  -exchange      EXHF   =         0.00000000
  -V(xc)+E(xc)   XCENC  =      1647.82442652
  PAW double counting   =     47665.63423269   -51505.68898280
  entropy T*S    EENTRO =         0.00000000
  eigenvalues    EBANDS =     -1002.86520015
  atomic energy  EATOM  =     50639.04929311
  Solvation  Ediel_sol  =         0.00000000
  ---------------------------------------------------
  free energy    TOTEN  =       334.39217684 eV

  energy without entropy =      334.39217684  energy(sigma->0) =      334.39217684


--------------------------------------------------------------------------------------------------------




--------------------------------------- Iteration      1(   3)  ---------------------------------------


     EDDAV:  cpu time   24.8495: real time   24.8499
 BZINTS: Fermi energy:   -0.247500;  408.000000 electrons
         Band energy:-0.144155E+04;  BLOECHL correction:   -0.049926
       DOS:  cpu time    0.0553: real time    0.0553
    --------------------------------------------
      LOOP:  cpu time   24.9048: real time   24.9052

 eigenvalue-minimisations  : 19824
 total energy-change (2. order) :-0.4386890E+03  (-0.4189058E+03)
 number of electron     407.9999270 magnetization 
 augmentation part      407.9999270 magnetization 

 Free energy of the ion-electron system (eV)
  ---------------------------------------------------
  alpha Z        PSCENC =       760.42290677
  Ewald energy   TEWEN  =    234685.38573377
  -Hartree energ DENC   =   -282555.37023306
  -exchange      EXHF   =         0.00000000
  -V(xc)+E(xc)   XCENC  =      1647.82442652
  PAW double counting   =     47665.63423269   -51505.68898280
  entropy T*S    EENTRO =         0.00000000
  eigenvalues    EBANDS =     -1441.55417709
  atomic energy  EATOM  =     50639.04929311
  Solvation  Ediel_sol  =         0.00000000
  ---------------------------------------------------
  free energy    TOTEN  =      -104.29680010 eV

  energy without entropy =     -104.29680010  energy(sigma->0) =     -104.29680010


--------------------------------------------------------------------------------------------------------




--------------------------------------- Iteration      1(   4)  ---------------------------------------


     EDDAV:  cpu time   31.4107: real time   31.4111
 BZINTS: Fermi energy:   -0.652935;  408.000000 electrons
         Band energy:-0.147854E+04;  BLOECHL correction:   -0.041821
       DOS:  cpu time    0.0597: real time    0.0597
    --------------------------------------------
      LOOP:  cpu time   31.4704: real time   31.4708

 eigenvalue-minimisations  : 26264
 total energy-change (2. order) :-0.3698168E+02  (-0.3593739E+02)
 number of electron     407.9999270 magnetization 
 augmentation part      407.9999270 magnetization 

 Free energy of the ion-electron system (eV)
  ---------------------------------------------------
  alpha Z        PSCENC =       760.42290677
  Ewald energy   TEWEN  =    234685.38573377
  -Hartree energ DENC   =   -282555.37023306
  -exchange      EXHF   =         0.00000000
  -V(xc)+E(xc)   XCENC  =      1647.82442652
  PAW double counting   =     47665.63423269   -51505.68898280
  entropy T*S    EENTRO =         0.00000000
  eigenvalues    EBANDS =     -1478.53585945
  atomic energy  EATOM  =     50639.04929311
  Solvation  Ediel_sol  =         0.00000000
  ---------------------------------------------------
  free energy    TOTEN  =      -141.27848245 eV

  energy without entropy =     -141.27848245  energy(sigma->0) =     -141.27848245


--------------------------------------------------------------------------------------------------------




--------------------------------------- Iteration      1(   5)  ---------------------------------------


     EDDAV:  cpu time   24.8690: real time   24.8693
 BZINTS: Fermi energy:   -0.665149;  408.000000 electrons
         Band energy:-0.147953E+04;  BLOECHL correction:   -0.043812
       DOS:  cpu time    0.0574: real time    0.0574
    --------------------------------------------
      LOOP:  cpu time   24.9263: real time   24.9267

 eigenvalue-minimisations  : 19880
 total energy-change (2. order) :-0.9932556E+00  (-0.9849168E+00)
 number of electron     407.9999270 magnetization 
 augmentation part      407.9999270 magnetization 

 Free energy of the ion-electron system (eV)
  ---------------------------------------------------
  alpha Z        PSCENC =       760.42290677
  Ewald energy   TEWEN  =    234685.38573377
  -Hartree energ DENC   =   -282555.37023306
  -exchange      EXHF   =         0.00000000
  -V(xc)+E(xc)   XCENC  =      1647.82442652
  PAW double counting   =     47665.63423269   -51505.68898280
  entropy T*S    EENTRO =         0.00000000
  eigenvalues    EBANDS =     -1479.52911509
  atomic energy  EATOM  =     50639.04929311
  Solvation  Ediel_sol  =         0.00000000
  ---------------------------------------------------
  free energy    TOTEN  =      -142.27173810 eV

  energy without entropy =     -142.27173810  energy(sigma->0) =     -142.27173810


--------------------------------------------------------------------------------------------------------




--------------------------------------- Iteration      1(   6)  ---------------------------------------


    EDDIAG:  cpu time    4.1943: real time    4.1976
  RMM-DIIS:  cpu time   12.5006: real time   12.5008
    ORTHCH:  cpu time    0.8070: real time    0.8071
 BZINTS: Fermi energy:   -0.665236;  408.000000 electrons
         Band energy:-0.147954E+04;  BLOECHL correction:   -0.043829
       DOS:  cpu time    0.0586: real time    0.0586
    --------------------------------------------
      LOOP:  cpu time   17.5606: real time   17.5641

 eigenvalue-minimisations  : 18576
 total energy-change (2. order) :-0.1575558E-01  (-0.1574633E-01)
 number of electron     407.9999270 magnetization 
 augmentation part      407.9999270 magnetization 

 Free energy of the ion-electron system (eV)
  ---------------------------------------------------
  alpha Z        PSCENC =       760.42290677
  Ewald energy   TEWEN  =    234685.38573377
  -Hartree energ DENC   =   -282555.37023306
  -exchange      EXHF   =         0.00000000
  -V(xc)+E(xc)   XCENC  =      1647.82442652
  PAW double counting   =     47665.63423269   -51505.68898280
  entropy T*S    EENTRO =         0.00000000
  eigenvalues    EBANDS =     -1479.54487067
  atomic energy  EATOM  =     50639.04929311
  Solvation  Ediel_sol  =         0.00000000
  ---------------------------------------------------
  free energy    TOTEN  =      -142.28749368 eV

  energy without entropy =     -142.28749368  energy(sigma->0) =     -142.28749368


--------------------------------------------------------------------------------------------------------




--------------------------------------- Iteration      1(   7)  ---------------------------------------


    EDDIAG:  cpu time    4.1902: real time    4.1905
  RMM-DIIS:  cpu time   17.5470: real time   17.5471
    ORTHCH:  cpu time    0.8069: real time    0.8069
 BZINTS: Fermi energy:   -0.665269;  408.000000 electrons
         Band energy:-0.147955E+04;  BLOECHL correction:   -0.043837
       DOS:  cpu time    0.0573: real time    0.0573
    --------------------------------------------
      LOOP:  cpu time   22.6014: real time   22.6018

 eigenvalue-minimisations  : 26329
 total energy-change (2. order) :-0.6906994E-02  (-0.6761326E-02)
 number of electron     407.9999270 magnetization 
 augmentation part      407.9999270 magnetization 

 Free energy of the ion-electron system (eV)
  ---------------------------------------------------
  alpha Z        PSCENC =       760.42290677
  Ewald energy   TEWEN  =    234685.38573377
  -Hartree energ DENC   =   -282555.37023306
  -exchange      EXHF   =         0.00000000
  -V(xc)+E(xc)   XCENC  =      1647.82442652
  PAW double counting   =     47665.63423269   -51505.68898280
  entropy T*S    EENTRO =         0.00000000
  eigenvalues    EBANDS =     -1479.55177766
  atomic energy  EATOM  =     50639.04929311
  Solvation  Ediel_sol  =         0.00000000
  ---------------------------------------------------
  free energy    TOTEN  =      -142.29440067 eV

  energy without entropy =     -142.29440067  energy(sigma->0) =     -142.29440067


--------------------------------------------------------------------------------------------------------




--------------------------------------- Iteration      1(   8)  ---------------------------------------


    EDDIAG:  cpu time    4.1901: real time    4.1902
  RMM-DIIS:  cpu time   15.6385: real time   15.6386
    ORTHCH:  cpu time    0.8064: real time    0.8064
 BZINTS: Fermi energy:   -0.665271;  408.000000 electrons
         Band energy:-0.147955E+04;  BLOECHL correction:   -0.043837
       DOS:  cpu time    0.0599: real time    0.0599
    --------------------------------------------
      LOOP:  cpu time   20.6948: real time   20.6951

 eigenvalue-minimisations  : 23842
 total energy-change (2. order) :-0.5137386E-03  (-0.5511180E-03)
 number of electron     407.9999270 magnetization 
 augmentation part      407.9999270 magnetization 

 Free energy of the ion-electron system (eV)
  ---------------------------------------------------
  alpha Z        PSCENC =       760.42290677
  Ewald energy   TEWEN  =    234685.38573377
  -Hartree energ DENC   =   -282555.37023306
  -exchange      EXHF   =         0.00000000
  -V(xc)+E(xc)   XCENC  =      1647.82442652
  PAW double counting   =     47665.63423269   -51505.68898280
  entropy T*S    EENTRO =         0.00000000
  eigenvalues    EBANDS =     -1479.55229140
  atomic energy  EATOM  =     50639.04929311
  Solvation  Ediel_sol  =         0.00000000
  ---------------------------------------------------
  free energy    TOTEN  =      -142.29491441 eV

  energy without entropy =     -142.29491441  energy(sigma->0) =     -142.29491441


--------------------------------------------------------------------------------------------------------




--------------------------------------- Iteration      1(   9)  ---------------------------------------


    EDDIAG:  cpu time    4.1922: real time    4.1924
  RMM-DIIS:  cpu time   17.5989: real time   17.5991
    ORTHCH:  cpu time    0.8065: real time    0.8065
 BZINTS: Fermi energy:   -0.665271;  408.000000 electrons
         Band energy:-0.147955E+04;  BLOECHL correction:   -0.043837
       DOS:  cpu time    0.0586: real time    0.0586
    --------------------------------------------
      LOOP:  cpu time   22.6562: real time   22.6565

 eigenvalue-minimisations  : 26590
 total energy-change (2. order) :-0.9961729E-04  (-0.9885022E-04)
 number of electron     407.9999270 magnetization 
 augmentation part      407.9999270 magnetization 

 Free energy of the ion-electron system (eV)
  ---------------------------------------------------
  alpha Z        PSCENC =       760.42290677
  Ewald energy   TEWEN  =    234685.38573377
  -Hartree energ DENC   =   -282555.37023306
  -exchange      EXHF   =         0.00000000
  -V(xc)+E(xc)   XCENC  =      1647.82442652
  PAW double counting   =     47665.63423269   -51505.68898280
  entropy T*S    EENTRO =         0.00000000
  eigenvalues    EBANDS =     -1479.55239102
  atomic energy  EATOM  =     50639.04929311
  Solvation  Ediel_sol  =         0.00000000
  ---------------------------------------------------
  free energy    TOTEN  =      -142.29501403 eV

  energy without entropy =     -142.29501403  energy(sigma->0) =     -142.29501403


--------------------------------------------------------------------------------------------------------




--------------------------------------- Iteration      1(  10)  ---------------------------------------


    EDDIAG:  cpu time    4.1930: real time    4.1932
  RMM-DIIS:  cpu time   12.6707: real time   12.6709
    ORTHCH:  cpu time    0.8058: real time    0.8058
 BZINTS: Fermi energy:   -0.665272;  408.000000 electrons
         Band energy:-0.147955E+04;  BLOECHL correction:   -0.043837
       DOS:  cpu time    0.0585: real time    0.0585
    --------------------------------------------
      LOOP:  cpu time   17.7281: real time   17.7284

 eigenvalue-minimisations  : 18264
 total energy-change (2. order) :-0.1374434E-04  (-0.1414886E-04)
 number of electron     407.9999270 magnetization 
 augmentation part      407.9999270 magnetization 

 Free energy of the ion-electron system (eV)
  ---------------------------------------------------
  alpha Z        PSCENC =       760.42290677
  Ewald energy   TEWEN  =    234685.38573377
  -Hartree energ DENC   =   -282555.37023306
  -exchange      EXHF   =         0.00000000
  -V(xc)+E(xc)   XCENC  =      1647.82442652
  PAW double counting   =     47665.63423269   -51505.68898280
  entropy T*S    EENTRO =         0.00000000
  eigenvalues    EBANDS =     -1479.55240476
  atomic energy  EATOM  =     50639.04929311
  Solvation  Ediel_sol  =         0.00000000
  ---------------------------------------------------
  free energy    TOTEN  =      -142.29502777 eV

  energy without entropy =     -142.29502777  energy(sigma->0) =     -142.29502777


--------------------------------------------------------------------------------------------------------




--------------------------------------- Iteration      1(  11)  ---------------------------------------


    EDDIAG:  cpu time    4.1900: real time    4.1903
  RMM-DIIS:  cpu time    9.8576: real time    9.8577
    ORTHCH:  cpu time    0.8063: real time    0.8063
 BZINTS: Fermi energy:   -0.665272;  408.000000 electrons
         Band energy:-0.147955E+04;  BLOECHL correction:   -0.043837
       DOS:  cpu time    0.0599: real time    0.0599
    --------------------------------------------
      LOOP:  cpu time   14.9138: real time   14.9142

 eigenvalue-minimisations  : 13247
 total energy-change (2. order) :-0.3282563E-05  (-0.3453927E-05)
 number of electron     407.9999270 magnetization 
 augmentation part      407.9999270 magnetization 

 Free energy of the ion-electron system (eV)
  ---------------------------------------------------
  alpha Z        PSCENC =       760.42290677
  Ewald energy   TEWEN  =    234685.38573377
  -Hartree energ DENC   =   -282555.37023306
  -exchange      EXHF   =         0.00000000
  -V(xc)+E(xc)   XCENC  =      1647.82442652
  PAW double counting   =     47665.63423269   -51505.68898280
  entropy T*S    EENTRO =         0.00000000
  eigenvalues    EBANDS =     -1479.55240804
  atomic energy  EATOM  =     50639.04929311
  Solvation  Ediel_sol  =         0.00000000
  ---------------------------------------------------
  free energy    TOTEN  =      -142.29503105 eV

  energy without entropy =     -142.29503105  energy(sigma->0) =     -142.29503105


--------------------------------------------------------------------------------------------------------




 average (electrostatic) potential at core
  the test charge radii are     0.9430  0.9791  0.7215  0.5201
  (the norm of the test charge is              1.0000)
       1 -71.6071       2 -71.5882       3 -71.5922       4 -71.5930       5 -71.5939
       6 -71.5912       7 -71.5905       8 -71.5918       9 -71.5988      10 -71.8924
      11 -71.8623      12 -71.8689      13 -71.8600      14 -71.8499      15 -71.8659
      16 -71.8663      17 -71.8662      18 -71.8673      19 -71.8518      20 -71.9023
      21 -71.8473      22 -71.8730      23 -71.8429      24 -71.8773      25 -71.8722
      26 -71.8647      27 -71.8716      28 -71.5523      29 -71.5390      30 -71.5760
      31 -71.5432      32 -71.7682      33 -71.5711      34 -71.7998      35 -71.5875
      36 -91.6923      37 -77.7416      38 -76.8723      39 -40.5409
 
 
 
 E-fermi :  -0.6653     XC(G=0):  -5.1140     alpha+bet : -4.5356

 Fermi energy:        -0.6652715216

 k-point     1 :       0.0000    0.0000    0.0000
  band No.  band energies     occupation 
      1     -21.8263      2.00000
      2     -18.3295      2.00000
      3      -9.4531      2.00000
      4      -8.4985      2.00000
      5      -7.9922      2.00000
      6      -6.8958      2.00000
      7      -6.5561      2.00000
      8      -6.4552      2.00000
      9      -6.4427      2.00000
     10      -6.4413      2.00000
     11      -6.4406      2.00000
     12      -6.4335      2.00000
     13      -6.2935      2.00000
     14      -6.1361      2.00000
     15      -5.7169      2.00000
     16      -5.6685      2.00000
     17      -5.6598      2.00000
     18      -5.6581      2.00000
     19      -5.6549      2.00000
     20      -5.5425      2.00000
     21      -5.4800      2.00000
     22      -5.1564      2.00000
     23      -4.9717      2.00000
     24      -4.9661      2.00000
     25      -4.9572      2.00000
     26      -4.8917      2.00000
     27      -4.8624      2.00000
     28      -4.7562      2.00000
     29      -4.6767      2.00000
     30      -4.6760      2.00000
     31      -4.6729      2.00000
     32      -4.6679      2.00000
     33      -4.6526      2.00000
     34      -4.6108      2.00000
     35      -4.5182      2.00000
     36      -4.5086      2.00000
     37      -4.5014      2.00000
[...]
  0.000   0.000   0.000   0.000   0.000   0.000   0.000   0.000   0.000   0.000   1.000   0.000   0.000   0.000   0.000   0.000
  0.000   0.000   0.000   0.000   0.000   0.000   0.000   0.000   0.000   0.000   0.000   0.000   0.000   0.000   0.000   0.000
  0.000   0.000   0.000   0.000   0.000   0.000   0.000   0.000   0.000   0.000   0.000   0.000   0.000   0.000   0.000   0.000
  0.000   0.000   0.000   0.000   0.000   0.000   0.000   0.000   0.000   0.000   0.000   0.000   0.000   0.000   0.000   0.000
  0.000   0.000   0.000   0.000   0.000   0.000   0.000   0.000   0.000   0.000   0.000   0.000   0.000   0.000   0.000   0.000
  0.000   0.000   0.000   0.000   0.000   0.000   0.000   0.000   0.000   0.000   0.000   0.000   0.000   0.000   0.000   0.000
  0.000   0.000   0.000   0.000   0.000   0.000   0.000   0.000   0.000   0.000   0.000   0.000   0.000   0.000   0.000   0.000
  0.000   0.000   0.000   0.000   0.000   0.000   0.000   0.000   0.000   0.000   0.000   0.000   0.000   0.000   0.000   0.000


------------------------ aborting loop because EDIFF is reached ----------------------------------------





 total charge

# of ion       s       p       d       tot
------------------------------------------
    1        0.447   0.284   9.190   9.921
    2        0.451   0.285   9.186   9.921
    3        0.448   0.284   9.188   9.920
    4        0.450   0.285   9.185   9.920
    5        0.447   0.286   9.186   9.919
    6        0.447   0.285   9.188   9.920
    7        0.449   0.284   9.188   9.920
    8        0.447   0.285   9.188   9.920
    9        0.446   0.285   9.188   9.919
   10        0.442   0.373   9.175   9.990
   11        0.442   0.369   9.181   9.992
   12        0.440   0.371   9.180   9.992
   13        0.443   0.369   9.182   9.993
   14        0.442   0.370   9.181   9.994
   15        0.440   0.371   9.180   9.992
   16        0.441   0.371   9.180   9.992
   17        0.440   0.371   9.180   9.991
   18        0.440   0.370   9.180   9.991
   19        0.440   0.376   9.180   9.996
   20        0.454   0.386   9.167  10.007
   21        0.447   0.384   9.179  10.010
   22        0.440   0.373   9.183   9.996
   23        0.448   0.383   9.180  10.010
   24        0.440   0.380   9.178   9.998
   25        0.440   0.373   9.180   9.993
   26        0.440   0.378   9.178   9.996
   27        0.440   0.373   9.184   9.996
   28        0.451   0.282   9.198   9.931
   29        0.450   0.289   9.191   9.929
   30        0.443   0.284   9.200   9.927
   31        0.450   0.289   9.190   9.929
   32        0.429   0.330   9.189   9.948
   33        0.442   0.282   9.202   9.926
   34        0.427   0.341   9.182   9.950
   35        0.443   0.283   9.199   9.926
   36        0.459   0.438   8.365   9.262
   37        1.593   3.254   0.000   4.847
   38        1.600   3.334   0.000   4.933
   39        0.624   0.115   0.000   0.738
--------------------------------------------------
tot         19.804  18.823 329.829 368.456
 
    CHARGE:  cpu time    0.8318: real time    0.8319
    FORLOC:  cpu time    0.0095: real time    0.0095
    FORNL :  cpu time    4.3778: real time    4.3781
    STRESS:  cpu time   13.1175: real time   13.1178
    FORCOR:  cpu time    0.0325: real time    0.0326
    FORHAR:  cpu time    0.0145: real time    0.0147
    OFIELD:  cpu time    0.0002: real time    0.0002

  FORCE on cell =-STRESS in cart. coord.  units (eV):
  Direction    XX          YY          ZZ          XY          YZ          ZX
  --------------------------------------------------------------------------------------
  Alpha Z   760.42291   760.42291   760.42291
  Ewald  260868.08150260792.59634************   -24.49890   -29.45273   -59.70324
  Hartree273870.37317273848.20434************    -7.46951   -16.18077   -59.13031
  E(xc)   -2364.48833 -2364.76964 -2368.46380    -0.10256    -0.05500     0.02456
  Local  ************************547547.74066    25.15523    42.82598   121.11050
  n-local  -814.75052  -816.27310  -823.73762     0.18883    -0.26590    -2.34286
  augment  3497.66684  3499.90665  3507.39944    -0.32000    -0.90453    -1.44728
  Kinetic  3479.14099  3497.45262  3479.21303     6.94775     4.30104     1.69032
  Fock        0.00000     0.00000     0.00000     0.00000     0.00000     0.00000
  -------------------------------------------------------------------------------------
  Total      -3.62853    -4.12884     1.62540    -0.09915     0.26809     0.20169
  in kB      -4.46497    -5.08062     2.00009    -0.12201     0.32989     0.24818
  external pressure =       -2.52 kB  Pullay stress =        0.00 kB


 VOLUME and BASIS-vectors are now :
 -----------------------------------------------------------------------------
  energy-cutoff  :      500.00
  volume of cell :     1302.03
      direct lattice vectors                 reciprocal lattice vectors
     7.696786404  0.000000000  0.000000000     0.129924354 -0.075011849  0.000000000
     3.848392758  6.665612809  0.000000000     0.000000000  0.150023716  0.000000000
     0.000000000  0.000000000 25.378895643     0.000000000  0.000000000  0.039402818

  length of vectors
     7.696786404  7.696786404 25.378895643     0.150023716  0.150023716  0.039402818


 FORCES acting on ions
    electron-ion (+dipol)            ewald-force                    non-local-force                 convergence-correction
 -----------------------------------------------------------------------------------------------
   0.264E+00 0.112E+00 0.393E+04   0.643E-01 0.543E-01 -.393E+04   -.124E+00 -.776E-01 -.257E+01   -.168E+00 -.690E-01 -.783E+00
   -.944E-01 0.119E+00 0.393E+04   -.232E+00 -.165E+00 -.393E+04   0.137E+00 0.617E-01 -.176E+01   0.175E+00 -.595E-03 -.633E+00
   -.214E+00 0.509E+00 0.393E+04   0.168E+00 -.458E+00 -.393E+04   0.198E-01 0.204E-01 -.201E+01   0.864E-02 -.675E-01 -.781E+00
   0.618E-01 -.145E+00 0.393E+04   -.274E+00 -.129E+00 -.393E+04   0.144E+00 0.703E-01 -.187E+01   0.773E-01 0.178E+00 -.677E+00
   0.492E+00 0.283E+00 0.393E+04   -.290E+00 -.187E+00 -.393E+04   -.224E+00 -.134E+00 -.193E+01   0.255E-01 0.400E-01 -.709E+00
   -.565E+00 0.298E+00 0.393E+04   0.564E+00 -.222E+00 -.393E+04   0.722E-01 -.104E+00 -.220E+01   -.824E-01 0.302E-01 -.809E+00
   0.372E+00 -.417E+00 0.393E+04   -.328E+00 0.386E+00 -.393E+04   0.344E-01 0.982E-02 -.196E+01   -.802E-01 0.634E-02 -.807E+00
   -.267E-01 -.615E+00 0.393E+04   0.107E+00 0.592E+00 -.393E+04   -.506E-01 0.130E+00 -.220E+01   -.336E-01 -.115E+00 -.797E+00
   -.327E+00 -.975E-01 0.393E+04   0.221E+00 0.130E+00 -.393E+04   0.200E-01 -.146E-01 -.227E+01   0.900E-01 -.168E-01 -.744E+00
   0.223E+01 0.112E+01 0.141E+04   -.199E+01 -.112E+01 -.141E+04   -.324E+00 -.102E+00 -.104E+01   0.861E-01 0.947E-01 -.364E+00
   0.125E+01 0.380E+01 0.141E+04   -.117E+01 -.387E+01 -.141E+04   -.399E-02 -.357E-01 -.393E+00   -.575E-01 0.638E-01 -.278E+00
   -.341E+01 0.296E+01 0.141E+04   0.317E+01 -.295E+01 -.141E+04   0.249E+00 -.703E-01 -.728E+00   -.319E-01 0.444E-01 -.376E+00
   0.390E+01 -.585E+00 0.141E+04   -.397E+01 0.787E+00 -.141E+04   0.193E-01 -.468E-01 -.401E+00   0.357E-01 -.124E+00 -.292E+00
   -.163E+01 -.803E+00 0.142E+04   0.181E+01 0.895E+00 -.142E+04   -.122E+00 -.440E-01 -.903E+00   -.474E-01 -.447E-01 -.333E+00
   -.225E+01 0.189E+00 0.141E+04   0.215E+01 -.271E+00 -.141E+04   0.747E-01 0.408E-01 -.797E+00   0.272E-01 0.592E-01 -.431E+00
   0.897E+00 -.456E+01 0.141E+04   -.100E+01 0.435E+01 -.141E+04   0.659E-01 0.234E+00 -.686E+00   0.110E-01 -.380E-01 -.350E+00
   -.106E+01 -.205E+01 0.141E+04   0.969E+00 0.204E+01 -.141E+04   0.447E-01 0.208E-01 -.777E+00   0.584E-01 -.584E-02 -.403E+00
   0.105E+00 -.451E-01 0.141E+04   0.338E-01 0.129E+00 -.141E+04   -.654E-01 -.372E-01 -.708E+00   -.489E-01 -.393E-01 -.471E+00
   -.110E+02 0.667E+01 -.115E+04   0.109E+02 -.669E+01 0.115E+04   0.675E-01 0.530E-01 0.616E+00   -.237E-01 0.546E-02 0.167E+00
   0.178E+02 0.108E+02 -.113E+04   -.173E+02 -.105E+02 0.113E+04   -.841E+00 -.494E+00 -.115E+01   0.336E+00 0.196E+00 0.477E+00
   -.670E+01 0.230E+02 -.111E+04   0.657E+01 -.228E+02 0.111E+04   0.482E+00 -.301E+00 -.320E+00   -.346E+00 0.115E+00 0.577E+00
   0.388E+01 -.337E+01 -.115E+04   -.417E+01 0.343E+01 0.115E+04   0.175E+00 -.588E-01 0.859E+00   0.135E+00 -.389E-01 0.137E+00
   0.163E+02 -.164E+02 -.111E+04   -.161E+02 0.163E+02 0.111E+04   -.573E-01 0.495E+00 -.319E+00   -.842E-01 -.384E+00 0.567E+00
   -.201E+02 -.109E+02 -.112E+04   0.202E+02 0.110E+02 0.112E+04   -.297E-01 -.532E-01 0.394E+00   -.908E-01 -.660E-01 0.195E+00
   0.156E+01 -.114E+00 -.115E+04   -.143E+01 0.203E+00 0.115E+04   -.385E-01 -.573E-01 0.959E+00   -.658E-01 -.299E-01 0.227E+00
   -.149E+00 -.139E+02 -.115E+04   0.771E-01 0.137E+02 0.115E+04   0.807E-01 0.131E+00 0.464E+00   -.857E-02 -.129E-01 0.149E+00
   -.138E+01 0.421E+01 -.115E+04   0.136E+01 -.455E+01 0.115E+04   -.307E-01 0.216E+00 0.870E+00   0.285E-01 0.165E+00 0.127E+00
   -.953E+01 -.962E+01 -.373E+04   0.949E+01 0.952E+01 0.373E+04   0.170E+00 0.150E+00 0.234E+01   -.993E-01 -.178E-01 0.623E+00
   0.138E+02 0.861E+01 -.373E+04   -.138E+02 -.871E+01 0.373E+04   -.283E+00 -.292E+00 0.227E+01   0.215E+00 0.357E+00 0.432E+00
   -.418E+01 0.722E+02 -.372E+04   0.406E+01 -.739E+02 0.371E+04   0.238E+00 0.965E+00 0.309E+01   -.105E+00 0.362E+00 0.524E+00
   0.183E+02 0.104E+02 -.373E+04   -.183E+02 -.103E+02 0.373E+04   -.458E+00 -.107E+00 0.226E+01   0.382E+00 0.160E-01 0.456E+00
   -.168E+03 0.736E+02 -.360E+04   0.172E+03 -.750E+02 0.359E+04   -.253E+01 0.109E+01 0.390E+01   -.534E+00 0.102E-01 0.674E+00
   0.669E+02 -.443E+02 -.371E+04   -.685E+02 0.451E+02 0.370E+04   0.113E+01 -.392E+00 0.330E+01   0.223E+00 -.286E+00 0.508E+00
   -.284E+02 -.186E+03 -.358E+04   0.293E+02 0.190E+03 0.358E+04   -.558E+00 -.249E+01 0.333E+01   -.243E+00 -.504E+00 0.661E+00
   -.437E+02 -.256E+02 -.372E+04   0.442E+02 0.259E+02 0.372E+04   -.358E+00 -.222E+00 0.289E+01   0.116E-01 -.691E-02 0.706E+00
   0.147E+03 0.936E+02 -.313E+04   -.149E+03 -.948E+02 0.313E+04   0.133E+01 0.964E+00 0.538E+00   0.109E+00 0.552E-01 0.360E+00
   -.402E+02 0.230E+01 -.243E+04   0.483E+02 -.377E+00 0.243E+04   -.773E+01 -.166E+01 0.447E-01   -.423E+00 -.274E+00 0.231E-01
   0.952E+02 -.159E+02 -.237E+04   -.134E+03 0.315E+02 0.237E+04   0.387E+02 -.155E+02 -.202E+01   0.292E-01 -.581E-01 -.188E+00
   -.693E+02 0.358E+02 -.404E+03   0.761E+02 -.390E+02 0.407E+03   -.672E+01 0.321E+01 -.335E+01   -.223E-01 0.926E-02 -.187E-01
 -----------------------------------------------------------------------------------------------
   -.222E+02 0.148E+02 0.672E+01   -.995E-13 0.142E-12 -.261E-11   0.227E+02 -.145E+02 -.422E+01   -.532E+00 -.393E+00 -.266E+01
 
 
 POSITION                                       TOTAL-FORCE (eV/Angst)
 -----------------------------------------------------------------------------------
      0.00000      0.00000      5.37156         0.037378      0.020665      0.073249
      2.56560      0.00000      5.37156        -0.013985      0.016866      0.081800
      5.13119      0.00000      5.37156        -0.017155      0.005360      0.092751
      1.28280      2.22187      5.37156         0.009996     -0.024689      0.082902
      3.84839      2.22187      5.37156         0.003582      0.002552      0.081382
      6.41399      2.22187      5.37156        -0.010823      0.003205      0.098882
      2.56560      4.44374      5.37156        -0.001098     -0.014152      0.097925
      5.13119      4.44374      5.37156        -0.003656     -0.007026      0.092947
      7.69679      4.44374      5.37156         0.004801      0.002623      0.060693
      1.28280      0.74062      7.46636         0.000111     -0.000937     -0.050882
      3.84839      0.74062      7.46636         0.016455     -0.036498     -0.100844
      6.41399      0.74062      7.46636        -0.024538     -0.015232     -0.081062
      2.56560      2.96249      7.46636        -0.014683      0.032496     -0.104377
      5.13119      2.96249      7.46636         0.015324      0.004636     -0.164614
      7.69679      2.96249      7.46636         0.002951      0.019392     -0.087829
      3.84839      5.18437      7.46636        -0.029411     -0.009336     -0.085571
      6.41399      5.18437      7.46636         0.009991      0.004409     -0.089403
      8.97958      5.18437      7.46636         0.024848      0.008813     -0.051319
      7.69679      1.48353      9.55071        -0.060958      0.045012      0.068582
      2.56540      1.48114      9.54275         0.035159      0.022707     -0.005546
      5.13138      1.48114      9.54275         0.006587      0.028314     -0.110101
      8.97935      3.70325      9.54809         0.024582     -0.034128      0.004741
      3.84839      3.70334      9.54275         0.016746     -0.011406     -0.120567
      6.41422      3.70325      9.54809        -0.046379     -0.027765     -0.014482
     10.26040      5.92385      9.55071         0.022634      0.002217      0.038042
      5.13317      5.92385      9.55071         0.001255     -0.085153      0.092823
      7.69679      5.92472      9.54809        -0.023411      0.037143      0.000823
      0.00000      0.00000     11.61525         0.027628      0.027899     -0.034616
      2.57297      0.01446     11.62005        -0.049539     -0.033630     -0.049900
      5.12381      0.01446     11.62005         0.017652     -0.285820     -0.109483
      1.29901      2.22103     11.62005        -0.074553     -0.025614     -0.047096
      6.39777      2.22103     11.62005         0.525404     -0.257568      0.086037
      2.57443      4.43012     11.62005        -0.265121      0.170037     -0.097136
      5.12235      4.43012     11.62005         0.042370      0.538830      0.133410
      7.69679      4.44374     11.61370         0.159265      0.093593     -0.058643
      3.84839      2.22187     11.53520        -0.337102     -0.199743      0.364820
      4.94902      2.88070     12.90962        -0.025016     -0.012590     -0.046119
      4.43656      2.86725     14.45500        -0.027377      0.003111     -0.048004
      5.24740      2.48158     14.84759         0.020085     -0.008595      0.005785
 -----------------------------------------------------------------------------------
    total drift:                               -0.025870     -0.052462     -0.155154


--------------------------------------------------------------------------------------------------------



  FREE ENERGIE OF THE ION-ELECTRON SYSTEM (eV)
  ---------------------------------------------------
  free  energy   TOTEN  =      -142.29503105 eV

  energy  without entropy=     -142.29503105  energy(sigma->0) =     -142.29503105
 


--------------------------------------------------------------------------------------------------------


    POTLOK:  cpu time    0.0333: real time    0.0333


--------------------------------------------------------------------------------------------------------


 stress matrix after NEB project (eV)
     -3.62853     -0.09915      0.20169
     -0.09915     -4.12884      0.26809
      0.20169      0.26809      1.62540
  FORCES: max atom, RMS     0.055350    0.012896
  FORCE total and by dimension    0.080533    0.048004
  Stress total and by dimension    5.753278    4.128840
     LOOP+:  cpu time  260.2636: real time  260.2784
 -----------------------------------------------------------------------------
|                                                                             |
|           W    W    AA    RRRRR   N    N  II  N    N   GGGG   !!!           |
|           W    W   A  A   R    R  NN   N  II  NN   N  G    G  !!!           |
|           W    W  A    A  R    R  N N  N  II  N N  N  G       !!!           |
|           W WW W  AAAAAA  RRRRR   N  N N  II  N  N N  G  GGG   !            |
|           WW  WW  A    A  R   R   N   NN  II  N   NN  G    G                |
|           W    W  A    A  R    R  N    N  II  N    N   GGGG   !!!           |
|                                                                             |
|     Tetrahedron method does not include variations of the Fermi             |
|     occupations, so forces and stress will be inaccurate. We suggest        |
|     using a different smearing scheme ISMEAR = 1 or 2 for metals in         |
|     relaxations.                                                            |
|                                                                             |
 -----------------------------------------------------------------------------

    4ORBIT:  cpu time    0.0000: real time    0.0000



 total charge

# of ion       s       p       d       tot
------------------------------------------
    1        0.447   0.284   9.190   9.921
    2        0.451   0.285   9.186   9.921
    3        0.448   0.284   9.188   9.920
    4        0.450   0.285   9.185   9.920
    5        0.447   0.286   9.186   9.919
    6        0.447   0.285   9.188   9.920
    7        0.449   0.284   9.188   9.920
    8        0.447   0.285   9.188   9.920
    9        0.446   0.285   9.188   9.919
   10        0.442   0.373   9.175   9.990
   11        0.442   0.369   9.181   9.992
   12        0.440   0.371   9.180   9.992
   13        0.443   0.369   9.182   9.993
   14        0.442   0.370   9.181   9.994
   15        0.440   0.371   9.180   9.992
   16        0.441   0.371   9.180   9.992
   17        0.440   0.371   9.180   9.991
   18        0.440   0.370   9.180   9.991
   19        0.440   0.376   9.180   9.996
   20        0.454   0.386   9.167  10.007
   21        0.447   0.384   9.179  10.010
   22        0.440   0.373   9.183   9.996
   23        0.448   0.383   9.180  10.010
   24        0.440   0.380   9.178   9.998
   25        0.440   0.373   9.180   9.993
   26        0.440   0.378   9.178   9.996
   27        0.440   0.373   9.184   9.996
   28        0.451   0.282   9.198   9.931
   29        0.450   0.289   9.191   9.929
   30        0.443   0.284   9.200   9.927
   31        0.450   0.289   9.190   9.929
   32        0.429   0.330   9.189   9.948
   33        0.442   0.282   9.202   9.926
   34        0.427   0.341   9.182   9.950
   35        0.443   0.283   9.199   9.926
   36        0.459   0.438   8.365   9.262
   37        1.593   3.254   0.000   4.847
   38        1.600   3.334   0.000   4.933
   39        0.624   0.115   0.000   0.738
--------------------------------------------------
tot         19.804  18.823 329.829 368.456
 
 BZINTS: Fermi energy:   -0.665272;  408.000000 electrons
         Band energy:-0.147955E+04;  BLOECHL correction:   -0.043837

 total amount of memory used by VASP MPI-rank0   231826. kBytes
=======================================================================

   base      :      30000. kBytes
   nonlr-proj:      17346. kBytes
   fftplans  :       3394. kBytes
   grid      :      15015. kBytes
   one-center:        606. kBytes
   wavefun   :     165465. kBytes
 
  
  
 General timing and accounting informations for this job:
 ========================================================
  
                  Total CPU time used (sec):      279.874
                            User time (sec):      269.994
                          System time (sec):        9.880
                         Elapsed time (sec):      280.381
  
                   Maximum memory used (kb):      508956.
                   Average memory used (kb):          N/A
  
                          Minor page faults:       121337
                          Major page faults:            0
                 Voluntary context switches:         7115
