PROCAR new format
# of k-points:   10         # of bands:  252         # of ions:   36

 k-point     1 :    0.00000000 0.00000000 0.00000000     weight = 0.01562500

band     1 # energy   -8.64956718 # occ.  2.00000000
 
ion      s      p      d    tot
    1  0.007  0.001  0.000  0.008
    2  0.007  0.001  0.000  0.008
    3  0.007  0.001  0.000  0.008
    4  0.007  0.001  0.000  0.008
    5  0.007  0.001  0.000  0.008
    6  0.007  0.001  0.000  0.008
    7  0.007  0.001  0.000  0.008
    8  0.007  0.001  0.000  0.008
    9  0.007  0.001  0.000  0.008
   10  0.026  0.000  0.000  0.026
   11  0.026  0.000  0.000  0.026
   12  0.026  0.000  0.000  0.026
   13  0.026  0.000  0.000  0.026
   14  0.026  0.000  0.000  0.026
   15  0.026  0.000  0.000  0.026
   16  0.026  0.000  0.000  0.026
   17  0.026  0.000  0.000  0.026
   18  0.026  0.000  0.000  0.026
   19  0.024  0.000  0.000  0.025
   20  0.023  0.000  0.000  0.023
   21  0.023  0.000  0.000  0.023
   22  0.024  0.000  0.000  0.024
   23  0.023  0.000  0.000  0.023
   24  0.024  0.000  0.000  0.024
   25  0.024  0.000  0.000  0.025
   26  0.024  0.000  0.000  0.025
   27  0.024  0.000  0.000  0.024
   28  0.006  0.001  0.000  0.007
   29  0.006  0.001  0.000  0.007
   30  0.006  0.001  0.000  0.007
   31  0.006  0.001  0.000  0.007
   32  0.006  0.001  0.000  0.007
   33  0.006  0.001  0.000  0.007
   34  0.006  0.001  0.000  0.007
   35  0.006  0.001  0.000  0.007
   36  0.008  0.001  0.000  0.009
tot    0.566  0.017  0.001  0.584
 
band     2 # energy   -7.33713667 # occ.  2.00000000
 
ion      s      p      d    tot
    1  0.018  0.001  0.001  0.019
    2  0.018  0.001  0.001  0.019
    3  0.018  0.001  0.001  0.019
    4  0.018  0.001  0.001  0.019
    5  0.018  0.001  0.001  0.019
    6  0.018  0.001  0.001  0.019
    7  0.018  0.001  0.001  0.019
    8  0.018  0.001  0.001  0.019
    9  0.018  0.001  0.001  0.019
   10  0.009  0.002  0.001  0.012
   11  0.009  0.002  0.000  0.012
   12  0.009  0.002  0.001  0.012
   13  0.009  0.002  0.000  0.012
   14  0.009  0.002  0.000  0.012
   15  0.008  0.002  0.001  0.011
   16  0.009  0.002  0.001  0.012
   17  0.008  0.002  0.001  0.011
   18  0.008  0.002  0.001  0.011
   19  0.013  0.002  0.001  0.015
   20  0.009  0.002  0.001  0.012
   21  0.009  0.002  0.001  0.012
   22  0.012  0.002  0.001  0.015
   23  0.009  0.002  0.001  0.012
   24  0.012  0.002  0.001  0.015
   25  0.013  0.002  0.001  0.015
   26  0.013  0.002  0.001  0.015
   27  0.012  0.002  0.001  0.015
   28  0.020  0.001  0.000  0.022
   29  0.018  0.001  0.000  0.019
   30  0.018  0.001  0.000  0.019
   31  0.018  0.001  0.000  0.019
   32  0.018  0.001  0.000  0.019
   33  0.018  0.001  0.000  0.019
   34  0.018  0.001  0.000  0.019
   35  0.020  0.001  0.000  0.022
   36  0.020  0.001  0.001  0.022
tot    0.513  0.055  0.020  0.588
 
band     3 # energy   -5.74559655 # occ.  2.00000000
 
ion      s      p      d    tot
    1  0.018  0.000  0.006  0.023
    2  0.015  0.000  0.006  0.021
    3  0.015  0.000  0.006  0.021
    4  0.015  0.000  0.006  0.021
    5  0.005  0.001  0.007  0.013
    6  0.015  0.000  0.006  0.021
    7  0.015  0.000  0.006  0.021
    8  0.015  0.000  0.006  0.021
    9  0.025  0.000  0.004  0.029
   10  0.003  0.003  0.003  0.009
   11  0.014  0.005  0.001  0.021
   12  0.003  0.003  0.003  0.009
   13  0.014  0.005  0.001  0.021
   14  0.014  0.005  0.001  0.021
   15  0.000  0.003  0.005  0.007
   16  0.003  0.003  0.003  0.009
   17  0.000  0.003  0.005  0.007
   18  0.000  0.003  0.005  0.007
   19  0.000  0.003  0.005  0.008
   20  0.017  0.005  0.002  0.024
   21  0.017  0.005  0.002  0.024
   22  0.000  0.004  0.003  0.008
   23  0.017  0.005  0.002  0.024
   24  0.000  0.004  0.003  0.008
   25  0.000  0.003  0.005  0.008
   26  0.000  0.003  0.005  0.008
   27  0.000  0.004  0.003  0.008
   28  0.022  0.000  0.005  0.026
   29  0.015  0.000  0.006  0.022
   30  0.015  0.000  0.006  0.022
   31  0.015  0.000  0.006  0.022
   32  0.015  0.000  0.006  0.022
   33  0.015  0.000  0.006  0.022
   34  0.015  0.000  0.006  0.022
   35  0.025  0.000  0.005  0.030
   36  0.004  0.002  0.016  0.022
tot    0.384  0.072  0.176  0.632
 
band     4 # energy   -5.67582621 # occ.  2.00000000
 
ion      s      p      d    tot
    1  0.000  0.003  0.005  0.009
    2  0.009  0.002  0.003  0.014
    3  0.007  0.002  0.002  0.011
    4  0.008  0.002  0.003  0.013
    5  0.000  0.001  0.002  0.003
    6  0.000  0.001  0.002  0.003
    7  0.006  0.002  0.002  0.010
    8  0.000  0.001  0.002  0.003
    9  0.000  0.001  0.004  0.005
   10  0.057  0.002  0.006  0.065
   11  0.001  0.009  0.003  0.013
   12  0.015  0.006  0.009  0.030
   13  0.001  0.009  0.003  0.013
   14  0.003  0.001  0.006  0.009
   15  0.007  0.001  0.013  0.022
   16  0.013  0.007  0.009  0.028
   17  0.009  0.002  0.012  0.023
   18  0.033  0.005  0.002  0.040
   19  0.013  0.007  0.008  0.028
   20  0.037  0.005  0.003  0.045
   21  0.010  0.001  0.012  0.024
   22  0.001  0.009  0.003  0.013
   23  0.008  0.001  0.013  0.023
   24  0.002  0.001  0.005  0.008
   25  0.055  0.002  0.006  0.063
   26  0.015  0.007  0.008  0.030
   27  0.001  0.009  0.003  0.013
   28  0.000  0.004  0.005  0.009
   29  0.007  0.002  0.003  0.012
   30  0.010  0.002  0.003  0.015
   31  0.007  0.002  0.003  0.011
   32  0.000  0.001  0.003  0.004
   33  0.009  0.002  0.003  0.014
   34  0.000  0.001  0.003  0.004
   35  0.000  0.001  0.002  0.003
   36  0.000  0.002  0.010  0.012
tot    0.346  0.114  0.183  0.643
 
band     5 # energy   -5.67577536 # occ.  2.00000000
 
ion      s      p      d    tot
    1  0.000  0.003  0.005  0.009
    2  0.002  0.001  0.002  0.005
    3  0.003  0.001  0.002  0.007
    4  0.002  0.001  0.002  0.005
    5  0.000  0.001  0.002  0.003
    6  0.010  0.002  0.002  0.015
    7  0.004  0.002  0.002  0.008
    8  0.010  0.002  0.002  0.015
    9  0.000  0.001  0.004  0.005
   10  0.000  0.008  0.010  0.017
   11  0.002  0.003  0.005  0.010
   12  0.041  0.004  0.007  0.052
   13  0.002  0.004  0.005  0.011
   14  0.000  0.012  0.002  0.014
   15  0.026  0.004  0.005  0.035
   16  0.044  0.004  0.007  0.054
   17  0.024  0.003  0.006  0.034
   18  0.000  0.000  0.016  0.016
   19  0.043  0.004  0.007  0.053
   20  0.000  0.000  0.016  0.016
   21  0.027  0.003  0.006  0.036
   22  0.002  0.004  0.005  0.010
   23  0.028  0.004  0.006  0.038
   24  0.000  0.012  0.002  0.014
   25  0.000  0.008  0.009  0.017
   26  0.041  0.004  0.007  0.051
   27  0.002  0.003  0.005  0.010
   28  0.000  0.004  0.005  0.009
   29  0.004  0.001  0.003  0.008
   30  0.001  0.001  0.003  0.005
   31  0.005  0.001  0.003  0.009
   32  0.011  0.003  0.003  0.016
   33  0.002  0.001  0.003  0.006
   34  0.011  0.003  0.003  0.016
   35  0.000  0.001  0.002  0.003
   36  0.000  0.002  0.010  0.012
tot    0.346  0.114  0.183  0.643
 
band     6 # energy   -5.66215457 # occ.  2.00000000
 
ion      s      p      d    tot
    1  0.021  0.003  0.001  0.025
    2  0.000  0.002  0.004  0.006
    3  0.000  0.002  0.004  0.006
    4  0.000  0.002  0.004  0.006
    5  0.001  0.000  0.000  0.001
    6  0.000  0.002  0.004  0.006
    7  0.000  0.002  0.004  0.006
    8  0.000  0.002  0.004  0.006
    9  0.011  0.002  0.000  0.013
   10  0.029  0.005  0.007  0.041
   11  0.004  0.001  0.011  0.016
   12  0.030  0.005  0.007  0.041
   13  0.003  0.001  0.011  0.016
   14  0.003  0.001  0.012  0.015
   15  0.015  0.009  0.003  0.026
   16  0.030  0.005  0.007  0.041
   17  0.015  0.009  0.003  0.026
   18  0.015  0.009  0.003  0.026
   19  0.020  0.009  0.002  0.031
   20  0.000  0.002  0.010  0.012
   21  0.000  0.002  0.010  0.012
   22  0.026  0.003  0.008  0.037
   23  0.000  0.002  0.010  0.012
   24  0.026  0.003  0.008  0.037
   25  0.020  0.009  0.002  0.031
   26  0.020  0.009  0.002  0.031
   27  0.026  0.003  0.008  0.038
   28  0.017  0.002  0.000  0.020
   29  0.000  0.002  0.004  0.006
   30  0.000  0.002  0.004  0.006
   31  0.000  0.002  0.004  0.006
   32  0.000  0.002  0.004  0.006
   33  0.000  0.002  0.004  0.006
   34  0.000  0.002  0.004  0.006
   35  0.014  0.003  0.001  0.018
   36  0.000  0.000  0.000  0.000
tot    0.346  0.115  0.177  0.638
 
band     7 # energy   -5.65742135 # occ.  2.00000000
 
ion      s      p      d    tot
    1  0.000  0.000  0.003  0.003
    2  0.009  0.002  0.003  0.014
    3  0.008  0.002  0.002  0.012
    4  0.008  0.002  0.003  0.013
    5  0.000  0.003  0.006  0.009
    6  0.000  0.001  0.002  0.003
    7  0.007  0.002  0.002  0.011
    8  0.000  0.001  0.002  0.003
    9  0.000  0.003  0.004  0.007
   10  0.000  0.006  0.010  0.016
   11  0.048  0.004  0.006  0.059
   12  0.005  0.004  0.005  0.014
   13  0.044  0.004  0.007  0.055
   14  0.000  0.002  0.017  0.018
   15  0.022  0.003  0.006  0.031
   16  0.005  0.003  0.005  0.013
   17  0.020  0.004  0.006  0.030
   18  0.000  0.013  0.002  0.016
   19  0.005  0.003  0.004  0.013
   20  0.000  0.013  0.003  0.016
   21  0.019  0.004  0.006  0.029
   22  0.042  0.004  0.007  0.053
   23  0.021  0.003  0.006  0.030
   24  0.000  0.002  0.015  0.017
   25  0.000  0.005  0.009  0.015
   26  0.005  0.003  0.005  0.013
   27  0.046  0.004  0.006  0.056
   28  0.000  0.000  0.003  0.003
   29  0.007  0.002  0.002  0.011
   30  0.007  0.002  0.003  0.012
   31  0.006  0.002  0.002  0.010
   32  0.000  0.001  0.002  0.003
   33  0.007  0.002  0.003  0.012
   34  0.000  0.001  0.002  0.003
   35  0.000  0.003  0.006  0.008
   36  0.000  0.004  0.007  0.011
tot    0.343  0.117  0.182  0.643
 
band     8 # energy   -5.65737189 # occ.  2.00000000
 
ion      s      p      d    tot
    1  0.000  0.000  0.003  0.003
    2  0.002  0.001  0.002  0.005
    3  0.003  0.001  0.002  0.007
    4  0.002  0.001  0.002  0.006
    5  0.000  0.003  0.006  0.009
    6  0.011  0.003  0.003  0.016
    7  0.004  0.002  0.002  0.008
    8  0.011  0.003  0.003  0.016
    9  0.000  0.003  0.004  0.007
   10  0.006  0.003  0.004  0.013
   11  0.013  0.002  0.014  0.029
   12  0.002  0.005  0.008  0.015
   13  0.017  0.002  0.013  0.033
   14  0.062  0.005  0.003  0.070
   15  0.006  0.011  0.003  0.020
   16  0.001  0.005  0.008  0.015
   17  0.008  0.010  0.004  0.022
   18  0.028  0.000  0.007  0.035
   19  0.001  0.005  0.008  0.014
   20  0.026  0.000  0.007  0.033
   21  0.007  0.010  0.004  0.021
   22  0.017  0.003  0.012  0.031
   23  0.006  0.011  0.004  0.020
   24  0.060  0.004  0.003  0.068
   25  0.007  0.003  0.003  0.013
   26  0.002  0.005  0.008  0.014
   27  0.013  0.002  0.013  0.028
   28  0.000  0.000  0.003  0.003
   29  0.002  0.001  0.003  0.006
   30  0.002  0.001  0.002  0.005
   31  0.003  0.001  0.003  0.007
   32  0.009  0.002  0.003  0.014
   33  0.003  0.001  0.002  0.006
   34  0.009  0.002  0.003  0.014
   35  0.000  0.003  0.006  0.008
   36  0.000  0.004  0.007  0.011
tot    0.343  0.117  0.182  0.643
 
band     9 # energy   -5.57989591 # occ.  2.00000000
 
ion      s      p      d    tot
    1  0.000  0.001  0.001  0.002
    2  0.002  0.002  0.006  0.010
    3  0.002  0.002  0.006  0.010
    4  0.002  0.002  0.006  0.010
    5  0.041  0.003  0.000  0.044
    6  0.002  0.002  0.006  0.010
    7  0.002  0.002  0.006  0.010
    8  0.002  0.002  0.006  0.010
    9  0.003  0.002  0.004  0.009
   10  0.005  0.005  0.008  0.018
   11  0.021  0.009  0.004  0.034
   12  0.005  0.005  0.008  0.018
   13  0.021  0.009  0.004  0.034
   14  0.021  0.009  0.004  0.034
   15  0.026  0.001  0.012  0.039
   16  0.005  0.005  0.008  0.018
   17  0.026  0.001  0.012  0.039
   18  0.026  0.001  0.012  0.039
   19  0.010  0.002  0.008  0.020
   20  0.017  0.005  0.006  0.027
   21  0.017  0.005  0.006  0.027
   22  0.006  0.006  0.005  0.017
   23  0.017  0.005  0.006  0.027
   24  0.006  0.006  0.005  0.017
   25  0.010  0.002  0.008  0.020
   26  0.010  0.002  0.008  0.020
   27  0.006  0.006  0.005  0.017
   28  0.000  0.001  0.003  0.004
   29  0.003  0.001  0.003  0.006
   30  0.003  0.001  0.003  0.006
   31  0.003  0.001  0.003  0.006
   32  0.003  0.001  0.003  0.006
   33  0.003  0.001  0.003  0.006
   34  0.003  0.001  0.003  0.006
   35  0.000  0.000  0.002  0.002
   36  0.024  0.003  0.000  0.027
tot    0.354  0.108  0.193  0.655
 
band    10 # energy   -4.93018970 # occ.  2.00000000
 
ion      s      p      d    tot
    1  0.000  0.004  0.011  0.015
    2  0.018  0.003  0.005  0.026
    3  0.000  0.002  0.005  0.007
    4  0.017  0.003  0.005  0.026
    5  0.000  0.000  0.011  0.011
    6  0.013  0.003  0.005  0.021
    7  0.000  0.002  0.005  0.007
    8  0.013  0.003  0.005  0.021
    9  0.000  0.005  0.008  0.013
   10  0.000  0.004  0.022  0.026
   11  0.003  0.002  0.010  0.014
   12  0.006  0.002  0.010  0.018
   13  0.003  0.002  0.010  0.014
   14  0.000  0.002  0.014  0.016
   15  0.017  0.004  0.010  0.031
   16  0.006  0.002  0.010  0.018
   17  0.017  0.004  0.010  0.031
   18  0.000  0.000  0.022  0.022
   19  0.012  0.004  0.010  0.026
   20  0.000  0.003  0.015  0.018
   21  0.000  0.001  0.011  0.013
   22  0.009  0.003  0.009  0.021
   23  0.000  0.001  0.011  0.013
   24  0.000  0.002  0.027  0.030
   25  0.000  0.000  0.017  0.017
   26  0.012  0.004  0.010  0.026
   27  0.009  0.003  0.010  0.021
   28  0.000  0.004  0.008  0.012
   29  0.020  0.003  0.007  0.030
   30  0.000  0.002  0.007  0.009
   31  0.020  0.003  0.007  0.030
   32  0.017  0.003  0.007  0.026
   33  0.000  0.002  0.007  0.009
   34  0.017  0.003  0.007  0.027
   35  0.000  0.005  0.010  0.015
   36  0.000  0.000  0.026  0.026
tot    0.230  0.093  0.383  0.706
 
band    11 # energy   -4.93017162 # occ.  2.00000000
 
ion      s      p      d    tot
    1  0.000  0.004  0.011  0.015
    2  0.003  0.002  0.005  0.010
    3  0.020  0.004  0.005  0.029
    4  0.003  0.002  0.005  0.010
    5  0.000  0.000  0.011  0.011
    6  0.008  0.002  0.005  0.015
    7  0.020  0.004  0.005  0.029
    8  0.007  0.002  0.005  0.015
    9  0.000  0.005  0.008  0.013
   10  0.009  0.001  0.006  0.016
   11  0.001  0.002  0.013  0.016
   12  0.002  0.003  0.018  0.023
   13  0.001  0.002  0.013  0.016
   14  0.003  0.002  0.009  0.014
   15  0.006  0.001  0.018  0.025
   16  0.002  0.003  0.018  0.023
   17  0.006  0.001  0.018  0.025
   18  0.023  0.005  0.005  0.034
   19  0.004  0.001  0.014  0.020
   20  0.001  0.001  0.010  0.011
   21  0.000  0.002  0.014  0.016
   22  0.003  0.002  0.021  0.027
   23  0.000  0.002  0.014  0.016
   24  0.012  0.003  0.004  0.018
   25  0.016  0.006  0.007  0.029
   26  0.004  0.001  0.015  0.020
   27  0.003  0.002  0.021  0.027
   28  0.000  0.004  0.008  0.012
   29  0.005  0.002  0.007  0.014
   30  0.024  0.003  0.007  0.034
   31  0.005  0.002  0.007  0.014
   32  0.008  0.003  0.007  0.017
   33  0.024  0.003  0.007  0.034
   34  0.007  0.003  0.007  0.017
   35  0.000  0.005  0.010  0.015
   36  0.000  0.000  0.026  0.026
tot    0.230  0.093  0.383  0.706
 
band    12 # energy   -4.91483673 # occ.  2.00000000
 
ion      s      p      d    tot
    1  0.005  0.000  0.009  0.015
    2  0.005  0.001  0.009  0.014
    3  0.005  0.001  0.009  0.014
    4  0.005  0.001  0.009  0.014
    5  0.001  0.001  0.009  0.011
    6  0.005  0.001  0.009  0.014
    7  0.005  0.001  0.009  0.014
    8  0.005  0.001  0.009  0.014
    9  0.010  0.000  0.008  0.018
   10  0.007  0.000  0.025  0.032
   11  0.009  0.000  0.022  0.032
   12  0.007  0.000  0.025  0.032
   13  0.009  0.000  0.022  0.032
   14  0.009  0.000  0.022  0.031
   15  0.003  0.000  0.022  0.026
   16  0.007  0.000  0.025  0.032
   17  0.003  0.000  0.022  0.026
   18  0.003  0.000  0.022  0.026
   19  0.005  0.000  0.021  0.026
   20  0.010  0.000  0.025  0.035
   21  0.010  0.000  0.025  0.035
   22  0.004  0.000  0.022  0.026
   23  0.010  0.000  0.025  0.035
   24  0.004  0.000  0.022  0.026
   25  0.005  0.000  0.021  0.026
   26  0.005  0.000  0.021  0.026
   27  0.004  0.000  0.022  0.026
   28  0.005  0.000  0.008  0.013
   29  0.005  0.000  0.008  0.013
   30  0.004  0.000  0.008  0.013
   31  0.005  0.000  0.008  0.013
   32  0.005  0.000  0.008  0.013
   33  0.004  0.000  0.008  0.013
   34  0.005  0.000  0.008  0.013
   35  0.009  0.000  0.008  0.016
   36  0.001  0.002  0.016  0.019
tot    0.200  0.013  0.571  0.784
 
band    13 # energy   -4.90320186 # occ.  2.00000000
 
ion      s      p      d    tot
    1  0.033  0.003  0.000  0.037
    2  0.000  0.003  0.010  0.013
    3  0.000  0.003  0.010  0.013
    4  0.000  0.003  0.010  0.013
    5  0.000  0.000  0.000  0.000
    6  0.000  0.003  0.010  0.013
    7  0.000  0.003  0.010  0.013
    8  0.000  0.003  0.010  0.013
    9  0.031  0.004  0.001  0.035
   10  0.008  0.004  0.010  0.022
   11  0.001  0.000  0.015  0.016
   12  0.008  0.004  0.010  0.022
   13  0.001  0.000  0.015  0.016
   14  0.001  0.000  0.015  0.016
   15  0.006  0.003  0.018  0.028
   16  0.008  0.004  0.010  0.022
   17  0.006  0.003  0.018  0.028
   18  0.006  0.003  0.018  0.028
   19  0.005  0.004  0.017  0.026
   20  0.000  0.000  0.014  0.015
   21  0.000  0.000  0.014  0.015
   22  0.012  0.004  0.010  0.025
   23  0.000  0.000  0.014  0.015
   24  0.012  0.004  0.010  0.025
   25  0.005  0.004  0.017  0.026
   26  0.005  0.004  0.017  0.026
   27  0.012  0.004  0.010  0.025
   28  0.036  0.003  0.000  0.040
   29  0.000  0.003  0.010  0.014
   30  0.000  0.003  0.010  0.014
   31  0.000  0.003  0.010  0.014
   32  0.000  0.003  0.010  0.014
   33  0.000  0.003  0.010  0.014
   34  0.000  0.003  0.010  0.014
   35  0.030  0.004  0.001  0.035
   36  0.000  0.000  0.000  0.000
tot    0.230  0.093  0.381  0.704
 
band    14 # energy   -4.87283099 # occ.  2.00000000
 
ion      s      p      d    tot
    1  0.000  0.002  0.010  0.012
    2  0.019  0.004  0.006  0.028
    3  0.001  0.002  0.005  0.008
    4  0.019  0.003  0.006  0.028
    5  0.000  0.006  0.009  0.015
    6  0.013  0.003  0.006  0.021
    7  0.001  0.002  0.005  0.008
    8  0.013  0.003  0.006  0.022
    9  0.000  0.001  0.014  0.015
   10  0.013  0.005  0.010  0.028
   11  0.004  0.002  0.023  0.030
   12  0.003  0.001  0.015  0.019
   13  0.004  0.002  0.024  0.030
   14  0.017  0.004  0.005  0.026
   15  0.000  0.002  0.017  0.020
   16  0.003  0.001  0.015  0.020
   17  0.000  0.002  0.018  0.020
   18  0.000  0.000  0.009  0.009
   19  0.001  0.003  0.017  0.020
   20  0.023  0.005  0.005  0.033
   21  0.006  0.002  0.022  0.030
   22  0.002  0.001  0.014  0.018
   23  0.006  0.002  0.022  0.030
   24  0.010  0.003  0.009  0.022
   25  0.003  0.000  0.008  0.011
   26  0.001  0.003  0.017  0.021
   27  0.003  0.002  0.014  0.019
   28  0.000  0.002  0.012  0.014
   29  0.015  0.003  0.006  0.025
   30  0.000  0.001  0.005  0.006
   31  0.015  0.003  0.006  0.025
   32  0.012  0.003  0.006  0.021
   33  0.000  0.001  0.005  0.006
   34  0.013  0.003  0.006  0.022
   35  0.000  0.001  0.010  0.011
   36  0.000  0.010  0.014  0.023
tot    0.221  0.096  0.399  0.716
 
band    15 # energy   -4.87278480 # occ.  2.00000000
 
ion      s      p      d    tot
    1  0.000  0.002  0.010  0.012
    2  0.002  0.002  0.006  0.010
    3  0.021  0.004  0.006  0.031
    4  0.003  0.002  0.006  0.010
    5  0.000  0.006  0.009  0.015
    6  0.009  0.002  0.005  0.017
    7  0.021  0.004  0.006  0.031
    8  0.009  0.002  0.005  0.016
    9  0.000  0.001  0.014  0.015
   10  0.000  0.000  0.017  0.017
   11  0.012  0.004  0.011  0.027
   12  0.010  0.004  0.012  0.025
   13  0.013  0.004  0.011  0.027
   14  0.000  0.002  0.030  0.032
   15  0.000  0.001  0.012  0.013
   16  0.010  0.004  0.012  0.025
   17  0.000  0.001  0.011  0.012
   18  0.000  0.003  0.021  0.024
   19  0.002  0.001  0.011  0.014
   20  0.000  0.001  0.028  0.029
   21  0.018  0.004  0.010  0.032
   22  0.008  0.003  0.010  0.021
   23  0.017  0.004  0.011  0.032
   24  0.000  0.001  0.016  0.017
   25  0.000  0.004  0.020  0.024
   26  0.002  0.001  0.011  0.014
   27  0.008  0.003  0.011  0.021
   28  0.000  0.002  0.012  0.014
   29  0.003  0.002  0.005  0.010
   30  0.018  0.004  0.007  0.029
   31  0.004  0.002  0.005  0.010
   32  0.006  0.002  0.005  0.014
   33  0.018  0.004  0.007  0.029
   34  0.006  0.002  0.005  0.013
   35  0.000  0.001  0.010  0.011
   36  0.000  0.010  0.014  0.023
tot    0.221  0.096  0.399  0.716
 
band    16 # energy   -4.73188975 # occ.  2.00000000
 
ion      s      p      d    tot
    1  0.015  0.002  0.000  0.017
    2  0.000  0.003  0.012  0.015
    3  0.000  0.003  0.012  0.015
    4  0.000  0.003  0.012  0.015
    5  0.045  0.004  0.000  0.049
    6  0.000  0.003  0.012  0.015
    7  0.000  0.003  0.012  0.015
    8  0.000  0.003  0.012  0.015
    9  0.005  0.001  0.001  0.007
   10  0.001  0.001  0.029  0.031
   11  0.004  0.004  0.022  0.030
   12  0.001  0.001  0.029  0.031
   13  0.004  0.004  0.022  0.030
   14  0.004  0.004  0.022  0.030
   15  0.003  0.001  0.008  0.012
   16  0.001  0.001  0.029  0.031
   17  0.003  0.001  0.008  0.012
   18  0.003  0.001  0.008  0.012
   19  0.010  0.001  0.023  0.034
   20  0.013  0.004  0.006  0.022
   21  0.013  0.004  0.006  0.022
   22  0.002  0.002  0.017  0.021
   23  0.013  0.004  0.006  0.022
   24  0.002  0.002  0.017  0.021
   25  0.010  0.001  0.023  0.034
   26  0.010  0.001  0.023  0.034
   27  0.002  0.002  0.017  0.021
   28  0.003  0.002  0.005  0.010
   29  0.001  0.002  0.008  0.011
   30  0.001  0.002  0.008  0.011
   31  0.001  0.002  0.008  0.011
   32  0.001  0.002  0.008  0.011
   33  0.001  0.002  0.008  0.011
   34  0.001  0.002  0.008  0.011
   35  0.004  0.001  0.002  0.006
   36  0.045  0.006  0.000  0.051
tot    0.221  0.084  0.446  0.751
 
band    17 # energy   -4.26555249 # occ.  2.00000000
 
ion      s      p      d    tot
    1  0.000  0.001  0.032  0.033
    2  0.014  0.001  0.009  0.025
    3  0.007  0.001  0.008  0.016
    4  0.014  0.001  0.009  0.025
    5  0.000  0.001  0.015  0.016
    6  0.001  0.001  0.009  0.011
    7  0.007  0.001  0.008  0.016
    8  0.001  0.001  0.009  0.011
    9  0.000  0.003  0.004  0.007
   10  0.000  0.000  0.062  0.062
   11  0.000  0.003  0.017  0.021
   12  0.000  0.000  0.019  0.020
   13  0.000  0.003  0.017  0.021
   14  0.000  0.000  0.010  0.010
   15  0.001  0.005  0.016  0.022
   16  0.000  0.000  0.019  0.019
   17  0.001  0.005  0.016  0.022
   18  0.000  0.000  0.027  0.027
   19  0.002  0.004  0.015  0.021
   20  0.000  0.000  0.057  0.057
   21  0.000  0.000  0.022  0.022
   22  0.002  0.003  0.016  0.020
   23  0.000  0.000  0.022  0.022
   24  0.000  0.000  0.027  0.027
   25  0.000  0.000  0.012  0.012
   26  0.002  0.004  0.015  0.021
   27  0.002  0.003  0.016  0.020
   28  0.000  0.001  0.007  0.008
   29  0.011  0.001  0.015  0.027
   30  0.000  0.001  0.013  0.014
   31  0.011  0.001  0.015  0.027
   32  0.012  0.000  0.014  0.026
   33  0.000  0.001  0.013  0.014
   34  0.011  0.000  0.014  0.026
   35  0.000  0.002  0.009  0.011
   36  0.000  0.000  0.052  0.052
tot    0.099  0.048  0.662  0.809
 
band    18 # energy   -4.26548918 # occ.  2.00000000
 
ion      s      p      d    tot
    1  0.000  0.001  0.032  0.033
    2  0.001  0.001  0.008  0.010
    3  0.008  0.001  0.009  0.018
    4  0.001  0.001  0.008  0.010
    5  0.000  0.001  0.015  0.016
    6  0.014  0.001  0.009  0.024
    7  0.008  0.001  0.009  0.018
    8  0.014  0.001  0.009  0.024
    9  0.000  0.003  0.004  0.007
   10  0.000  0.000  0.005  0.005
   11  0.000  0.001  0.012  0.014
   12  0.000  0.000  0.048  0.048
   13  0.000  0.001  0.013  0.014
   14  0.000  0.004  0.020  0.024
   15  0.000  0.002  0.024  0.025
   16  0.000  0.000  0.048  0.048
   17  0.000  0.002  0.023  0.025
   18  0.001  0.006  0.013  0.020
   19  0.001  0.001  0.013  0.015
   20  0.000  0.000  0.010  0.010
   21  0.000  0.000  0.045  0.045
   22  0.001  0.001  0.023  0.025
   23  0.000  0.000  0.046  0.046
   24  0.002  0.004  0.012  0.018
   25  0.003  0.005  0.016  0.024
   26  0.001  0.001  0.013  0.015
   27  0.001  0.001  0.023  0.025
   28  0.000  0.001  0.007  0.008
   29  0.004  0.001  0.013  0.018
   30  0.015  0.000  0.015  0.030
   31  0.004  0.001  0.013  0.018
   32  0.003  0.001  0.014  0.018
   33  0.015  0.000  0.015  0.030
   34  0.003  0.001  0.014  0.019
   35  0.000  0.002  0.009  0.011
   36  0.000  0.000  0.052  0.052
tot    0.099  0.048  0.662  0.809
 
band    19 # energy   -4.20462514 # occ.  2.00000000
 
ion      s      p      d    tot
    1  0.003  0.000  0.001  0.004
    2  0.000  0.001  0.019  0.020
    3  0.000  0.001  0.019  0.020
    4  0.000  0.001  0.019  0.020
    5  0.014  0.000  0.000  0.014
    6  0.000  0.001  0.018  0.020
    7  0.000  0.001  0.019  0.020
    8  0.000  0.001  0.018  0.020
    9  0.029  0.001  0.002  0.032
   10  0.001  0.001  0.012  0.014
   11  0.000  0.000  0.019  0.019
   12  0.001  0.001  0.012  0.014
   13  0.000  0.000  0.019  0.019
   14  0.000  0.000  0.019  0.019
   15  0.001  0.003  0.040  0.044
   16  0.001  0.001  0.012  0.014
   17  0.001  0.003  0.040  0.044
   18  0.001  0.003  0.040  0.044
   19  0.000  0.001  0.029  0.030
   20  0.000  0.001  0.006  0.007
   21  0.000  0.001  0.006  0.007
   22  0.001  0.004  0.034  0.038
   23  0.000  0.001  0.006  0.007
   24  0.001  0.004  0.034  0.038
   25  0.000  0.001  0.029  0.030
   26  0.000  0.001  0.029  0.030
   27  0.001  0.004  0.034  0.038
   28  0.022  0.001  0.001  0.023
   29  0.000  0.001  0.019  0.020
   30  0.000  0.001  0.019  0.020
   31  0.000  0.001  0.019  0.020
   32  0.000  0.001  0.019  0.020
   33  0.000  0.001  0.019  0.020
   34  0.000  0.001  0.019  0.020
   35  0.024  0.001  0.003  0.028
   36  0.000  0.000  0.001  0.001
tot    0.098  0.052  0.648  0.799
 
band    20 # energy   -4.18809847 # occ.  2.00000000
 
ion      s      p      d    tot
    1  0.000  0.002  0.002  0.004
    2  0.014  0.001  0.011  0.026
    3  0.008  0.001  0.010  0.018
    4  0.014  0.001  0.011  0.026
    5  0.000  0.002  0.022  0.024
    6  0.001  0.001  0.010  0.012
    7  0.008  0.001  0.010  0.018
    8  0.001  0.001  0.010  0.012
    9  0.000  0.000  0.034  0.034
   10  0.001  0.007  0.021  0.030
   11  0.000  0.001  0.039  0.040
   12  0.000  0.002  0.013  0.015
   13  0.000  0.001  0.039  0.040
   14  0.001  0.002  0.006  0.009
   15  0.000  0.000  0.032  0.033
   16  0.000  0.002  0.013  0.015
   17  0.000  0.000  0.032  0.033
   18  0.000  0.001  0.012  0.013
   19  0.000  0.000  0.048  0.048
   20  0.001  0.007  0.019  0.027
   21  0.000  0.002  0.014  0.016
   22  0.000  0.001  0.022  0.023
   23  0.000  0.002  0.014  0.016
   24  0.000  0.003  0.016  0.019
   25  0.000  0.001  0.003  0.004
   26  0.000  0.000  0.048  0.048
   27  0.000  0.001  0.022  0.023
   28  0.000  0.002  0.032  0.033
   29  0.012  0.001  0.011  0.024
   30  0.000  0.001  0.009  0.010
   31  0.012  0.001  0.011  0.024
   32  0.011  0.001  0.011  0.023
   33  0.000  0.001  0.009  0.010
   34  0.011  0.001  0.011  0.023
   35  0.000  0.000  0.027  0.028
   36  0.000  0.004  0.000  0.004
tot    0.097  0.053  0.654  0.804
 
band    21 # energy   -4.18800866 # occ.  2.00000000
 
ion      s      p      d    tot
    1  0.000  0.002  0.002  0.004
    2  0.001  0.001  0.010  0.012
    3  0.007  0.001  0.011  0.019
    4  0.001  0.001  0.010  0.011
    5  0.000  0.002  0.022  0.024
    6  0.014  0.001  0.010  0.025
    7  0.007  0.001  0.011  0.019
    8  0.014  0.001  0.010  0.025
    9  0.000  0.000  0.034  0.034
   10  0.000  0.000  0.010  0.010
   11  0.001  0.002  0.017  0.019
   12  0.001  0.005  0.019  0.025
   13  0.001  0.002  0.017  0.019
   14  0.000  0.000  0.051  0.051
   15  0.000  0.001  0.019  0.020
   16  0.001  0.005  0.019  0.025
   17  0.000  0.001  0.018  0.020
   18  0.000  0.000  0.039  0.039
   19  0.000  0.001  0.018  0.019
   20  0.000  0.000  0.013  0.013
   21  0.001  0.005  0.018  0.024
   22  0.000  0.002  0.018  0.020
   23  0.001  0.005  0.018  0.023
   24  0.000  0.000  0.024  0.024
   25  0.000  0.000  0.063  0.063
   26  0.000  0.001  0.017  0.019
   27  0.000  0.002  0.018  0.020
   28  0.000  0.002  0.032  0.033
   29  0.003  0.001  0.009  0.013
   30  0.015  0.001  0.012  0.028
   31  0.003  0.001  0.009  0.014
   32  0.004  0.001  0.010  0.015
   33  0.015  0.001  0.012  0.028
   34  0.004  0.001  0.010  0.015
   35  0.000  0.000  0.027  0.028
   36  0.000  0.004  0.000  0.004
tot    0.097  0.053  0.654  0.804
 
band    22 # energy   -4.09154258 # occ.  2.00000000
 
ion      s      p      d    tot
    1  0.026  0.001  0.003  0.030
    2  0.000  0.001  0.020  0.021
    3  0.000  0.001  0.020  0.021
    4  0.000  0.001  0.020  0.021
    5  0.009  0.000  0.007  0.015
    6  0.000  0.001  0.020  0.021
    7  0.000  0.001  0.020  0.021
    8  0.000  0.001  0.020  0.021
    9  0.005  0.000  0.000  0.005
   10  0.001  0.002  0.029  0.031
   11  0.001  0.001  0.030  0.033
   12  0.001  0.002  0.029  0.031
   13  0.001  0.001  0.030  0.033
   14  0.001  0.001  0.030  0.033
   15  0.000  0.000  0.016  0.016
   16  0.001  0.002  0.029  0.031