PROCAR new format
# of k-points:   10         # of bands:  252         # of ions:   37

 k-point     1 :    0.00000000 0.00000000 0.00000000     weight = 0.01562500

band     1 # energy  -10.64443034 # occ.  2.00000000
 
ion      s      p      d    tot
    1  0.000  0.000  0.000  0.000
    2  0.000  0.000  0.000  0.000
    3  0.000  0.000  0.000  0.000
    4  0.000  0.000  0.000  0.000
    5  0.000  0.000  0.000  0.000
    6  0.000  0.000  0.000  0.000
    7  0.000  0.000  0.000  0.000
    8  0.000  0.000  0.000  0.000
    9  0.000  0.000  0.000  0.000
   10  0.000  0.000  0.000  0.000
   11  0.000  0.000  0.000  0.000
   12  0.000  0.000  0.000  0.000
   13  0.000  0.000  0.000  0.000
   14  0.000  0.000  0.000  0.000
   15  0.000  0.000  0.000  0.000
   16  0.000  0.000  0.000  0.000
   17  0.000  0.000  0.000  0.000
   18  0.000  0.000  0.000  0.000
   19  0.000  0.000  0.000  0.000
   20  0.002  0.001  0.001  0.003
   21  0.002  0.001  0.001  0.003
   22  0.000  0.000  0.000  0.000
   23  0.002  0.001  0.001  0.003
   24  0.000  0.000  0.000  0.000
   25  0.000  0.000  0.000  0.000
   26  0.000  0.000  0.000  0.000
   27  0.000  0.000  0.000  0.000
   28  0.000  0.000  0.000  0.000
   29  0.001  0.000  0.000  0.001
   30  0.001  0.000  0.000  0.001
   31  0.001  0.000  0.000  0.001
   32  0.001  0.000  0.000  0.001
   33  0.001  0.000  0.000  0.001
   34  0.001  0.000  0.000  0.001
   35  0.000  0.000  0.000  0.000
   36  0.087  0.064  0.240  0.391
   37  0.414  0.032  0.000  0.446
tot    0.518  0.099  0.243  0.859
 
band     2 # energy   -9.14555526 # occ.  2.00000000
 
ion      s      p      d    tot
    1  0.007  0.001  0.000  0.008
    2  0.007  0.001  0.000  0.008
    3  0.007  0.001  0.000  0.008
    4  0.007  0.001  0.000  0.008
    5  0.007  0.001  0.000  0.008
    6  0.007  0.001  0.000  0.008
    7  0.007  0.001  0.000  0.008
    8  0.007  0.001  0.000  0.008
    9  0.007  0.001  0.000  0.008
   10  0.025  0.000  0.000  0.025
   11  0.025  0.000  0.000  0.025
   12  0.025  0.000  0.000  0.025
   13  0.025  0.000  0.000  0.025
   14  0.025  0.000  0.000  0.025
   15  0.025  0.000  0.000  0.025
   16  0.025  0.000  0.000  0.025
   17  0.025  0.000  0.000  0.025
   18  0.025  0.000  0.000  0.025
   19  0.025  0.000  0.000  0.025
   20  0.023  0.000  0.000  0.023
   21  0.023  0.000  0.000  0.023
   22  0.024  0.000  0.000  0.024
   23  0.023  0.000  0.000  0.023
   24  0.024  0.000  0.000  0.024
   25  0.025  0.000  0.000  0.025
   26  0.025  0.000  0.000  0.025
   27  0.024  0.000  0.000  0.024
   28  0.006  0.001  0.000  0.007
   29  0.006  0.001  0.000  0.006
   30  0.006  0.001  0.000  0.006
   31  0.006  0.001  0.000  0.006
   32  0.006  0.001  0.000  0.006
   33  0.006  0.001  0.000  0.006
   34  0.006  0.001  0.000  0.006
   35  0.006  0.001  0.000  0.007
   36  0.002  0.006  0.007  0.014
   37  0.009  0.000  0.000  0.009
tot    0.559  0.022  0.008  0.590
 
band     3 # energy   -7.84315298 # occ.  2.00000000
 
ion      s      p      d    tot
    1  0.018  0.001  0.001  0.019
    2  0.018  0.001  0.001  0.019
    3  0.018  0.001  0.001  0.019
    4  0.018  0.001  0.001  0.019
    5  0.018  0.001  0.000  0.019
    6  0.018  0.001  0.001  0.019
    7  0.018  0.001  0.001  0.019
    8  0.018  0.001  0.001  0.019
    9  0.018  0.001  0.001  0.019
   10  0.009  0.002  0.001  0.012
   11  0.010  0.002  0.000  0.012
   12  0.009  0.002  0.001  0.012
   13  0.010  0.002  0.000  0.012
   14  0.010  0.002  0.000  0.012
   15  0.009  0.002  0.001  0.012
   16  0.009  0.002  0.001  0.012
   17  0.009  0.002  0.001  0.012
   18  0.009  0.002  0.001  0.012
   19  0.012  0.002  0.001  0.015
   20  0.008  0.002  0.001  0.011
   21  0.008  0.002  0.001  0.011
   22  0.012  0.002  0.001  0.014
   23  0.008  0.002  0.001  0.011
   24  0.012  0.002  0.001  0.014
   25  0.012  0.002  0.001  0.015
   26  0.012  0.002  0.001  0.015
   27  0.012  0.002  0.001  0.014
   28  0.020  0.001  0.000  0.021
   29  0.018  0.001  0.001  0.020
   30  0.018  0.001  0.001  0.020
   31  0.018  0.001  0.001  0.020
   32  0.018  0.001  0.001  0.020
   33  0.018  0.001  0.001  0.020
   34  0.018  0.001  0.001  0.020
   35  0.020  0.001  0.000  0.021
   36  0.011  0.004  0.015  0.030
   37  0.004  0.000  0.000  0.004
tot    0.502  0.058  0.034  0.594
 
band     4 # energy   -6.34080407 # occ.  2.00000000
 
ion      s      p      d    tot
    1  0.014  0.000  0.004  0.018
    2  0.013  0.000  0.004  0.018
    3  0.013  0.000  0.004  0.018
    4  0.013  0.000  0.004  0.018
    5  0.006  0.000  0.005  0.011
    6  0.013  0.000  0.004  0.018
    7  0.013  0.000  0.004  0.018
    8  0.013  0.000  0.004  0.018
    9  0.021  0.000  0.003  0.024
   10  0.002  0.003  0.002  0.007
   11  0.009  0.005  0.001  0.014
   12  0.002  0.003  0.002  0.007
   13  0.009  0.005  0.001  0.014
   14  0.009  0.005  0.001  0.014
   15  0.000  0.002  0.003  0.005
   16  0.002  0.003  0.002  0.007
   17  0.000  0.002  0.003  0.005
   18  0.000  0.002  0.003  0.005
   19  0.001  0.002  0.005  0.009
   20  0.020  0.004  0.005  0.030
   21  0.020  0.004  0.005  0.029
   22  0.001  0.003  0.004  0.008
   23  0.020  0.004  0.005  0.029
   24  0.001  0.003  0.004  0.008
   25  0.001  0.002  0.005  0.009
   26  0.001  0.002  0.005  0.009
   27  0.001  0.003  0.004  0.008
   28  0.018  0.000  0.005  0.023
   29  0.016  0.000  0.007  0.024
   30  0.016  0.000  0.007  0.024
   31  0.016  0.000  0.007  0.024
   32  0.016  0.000  0.007  0.024
   33  0.016  0.000  0.007  0.024
   34  0.016  0.000  0.007  0.024
   35  0.022  0.000  0.005  0.027
   36  0.007  0.003  0.062  0.072
   37  0.002  0.004  0.000  0.006
tot    0.366  0.069  0.212  0.647
 
band     5 # energy   -6.24152518 # occ.  2.00000000
 
ion      s      p      d    tot
    1  0.000  0.002  0.004  0.006
    2  0.007  0.002  0.002  0.011
    3  0.001  0.001  0.002  0.003
    4  0.007  0.002  0.002  0.011
    5  0.000  0.002  0.003  0.005
    6  0.004  0.001  0.002  0.007
    7  0.001  0.001  0.002  0.003
    8  0.004  0.001  0.002  0.007
    9  0.000  0.000  0.002  0.002
   10  0.048  0.005  0.003  0.056
   11  0.008  0.008  0.005  0.021
   12  0.012  0.002  0.011  0.024
   13  0.008  0.009  0.005  0.021
   14  0.031  0.001  0.006  0.037
   15  0.000  0.005  0.005  0.011
   16  0.012  0.002  0.011  0.025
   17  0.000  0.005  0.005  0.011
   18  0.002  0.002  0.003  0.007
   19  0.005  0.010  0.003  0.017
   20  0.071  0.003  0.007  0.081
   21  0.018  0.003  0.014  0.035
   22  0.003  0.004  0.009  0.016
   23  0.018  0.003  0.014  0.036
   24  0.013  0.004  0.003  0.019
   25  0.019  0.000  0.007  0.025
   26  0.005  0.010  0.003  0.017
   27  0.003  0.004  0.009  0.016
   28  0.000  0.002  0.003  0.005
   29  0.011  0.003  0.004  0.018
   30  0.003  0.001  0.003  0.006
   31  0.011  0.003  0.004  0.018
   32  0.003  0.002  0.004  0.008
   33  0.003  0.001  0.003  0.006
   34  0.003  0.002  0.004  0.008
   35  0.000  0.000  0.003  0.003
   36  0.000  0.004  0.049  0.054
   37  0.000  0.002  0.000  0.002
tot    0.330  0.111  0.218  0.659
 
band     6 # energy   -6.24133550 # occ.  2.00000000
 
ion      s      p      d    tot
    1  0.000  0.002  0.004  0.006
    2  0.000  0.001  0.002  0.003
    3  0.007  0.002  0.002  0.011
    4  0.000  0.001  0.002  0.003
    5  0.000  0.002  0.003  0.005
    6  0.004  0.001  0.002  0.007
    7  0.007  0.002  0.002  0.011
    8  0.004  0.001  0.002  0.007
    9  0.000  0.000  0.002  0.002
   10  0.000  0.001  0.013  0.014
   11  0.023  0.003  0.005  0.032
   12  0.036  0.004  0.006  0.045
   13  0.023  0.003  0.005  0.032
   14  0.000  0.011  0.004  0.015
   15  0.001  0.003  0.004  0.008
   16  0.036  0.004  0.006  0.045
   17  0.001  0.003  0.004  0.008
   18  0.000  0.006  0.006  0.012
   19  0.014  0.003  0.005  0.023
   20  0.000  0.004  0.017  0.020
   21  0.054  0.003  0.009  0.066
   22  0.010  0.004  0.005  0.018
   23  0.053  0.003  0.009  0.066
   24  0.000  0.004  0.012  0.015
   25  0.000  0.013  0.001  0.015
   26  0.014  0.003  0.005  0.023
   27  0.010  0.004  0.005  0.018
   28  0.000  0.002  0.003  0.005
   29  0.000  0.001  0.003  0.004
   30  0.008  0.003  0.004  0.015
   31  0.000  0.001  0.003  0.004
   32  0.008  0.002  0.003  0.013
   33  0.008  0.003  0.004  0.015
   34  0.008  0.002  0.003  0.013
   35  0.000  0.000  0.003  0.003
   36  0.000  0.004  0.049  0.054
   37  0.000  0.002  0.000  0.002
tot    0.330  0.111  0.218  0.659
 
band     7 # energy   -6.18711168 # occ.  2.00000000
 
ion      s      p      d    tot
    1  0.000  0.001  0.002  0.003
    2  0.009  0.002  0.002  0.013
    3  0.001  0.001  0.002  0.003
    4  0.009  0.002  0.002  0.013
    5  0.000  0.001  0.003  0.004
    6  0.004  0.001  0.002  0.008
    7  0.001  0.001  0.002  0.003
    8  0.004  0.001  0.002  0.008
    9  0.000  0.003  0.005  0.008
   10  0.000  0.012  0.002  0.014
   11  0.018  0.003  0.005  0.026
   12  0.005  0.003  0.005  0.013
   13  0.018  0.003  0.005  0.026
   14  0.000  0.001  0.013  0.014
   15  0.042  0.004  0.006  0.052
   16  0.005  0.003  0.005  0.013
   17  0.042  0.004  0.006  0.052
   18  0.000  0.006  0.011  0.016
   19  0.034  0.004  0.006  0.044
   20  0.000  0.012  0.003  0.015
   21  0.000  0.004  0.005  0.009
   22  0.039  0.004  0.006  0.049
   23  0.000  0.004  0.005  0.009
   24  0.000  0.010  0.007  0.017
   25  0.000  0.000  0.017  0.017
   26  0.034  0.004  0.006  0.044
   27  0.039  0.004  0.006  0.049
   28  0.000  0.002  0.005  0.007
   29  0.013  0.003  0.003  0.019
   30  0.002  0.002  0.003  0.007
   31  0.013  0.003  0.003  0.019
   32  0.005  0.001  0.003  0.009
   33  0.002  0.002  0.003  0.007
   34  0.005  0.001  0.003  0.009
   35  0.000  0.004  0.005  0.009
   36  0.000  0.001  0.013  0.014
   37  0.000  0.000  0.000  0.000
tot    0.344  0.116  0.182  0.641
 
band     8 # energy   -6.18692713 # occ.  2.00000000
 
ion      s      p      d    tot
    1  0.000  0.001  0.002  0.003
    2  0.000  0.001  0.002  0.003
    3  0.008  0.002  0.002  0.013
    4  0.000  0.001  0.002  0.003
    5  0.000  0.001  0.003  0.004
    6  0.005  0.001  0.002  0.008
    7  0.008  0.002  0.002  0.013
    8  0.005  0.001  0.002  0.008
    9  0.000  0.003  0.005  0.008
   10  0.007  0.000  0.006  0.013
   11  0.006  0.002  0.010  0.018
   12  0.002  0.009  0.003  0.014
   13  0.006  0.002  0.010  0.018
   14  0.024  0.004  0.002  0.030
   15  0.014  0.005  0.009  0.028
   16  0.002  0.009  0.003  0.014
   17  0.014  0.005  0.009  0.028
   18  0.056  0.003  0.005  0.064
   19  0.012  0.001  0.013  0.026
   20  0.000  0.001  0.005  0.007
   21  0.000  0.009  0.003  0.013
   22  0.013  0.008  0.006  0.028
   23  0.000  0.009  0.003  0.013
   24  0.052  0.002  0.006  0.060
   25  0.045  0.005  0.002  0.052
   26  0.012  0.001  0.014  0.026
   27  0.013  0.008  0.006  0.028
   28  0.000  0.002  0.005  0.007
   29  0.000  0.001  0.003  0.004
   30  0.011  0.002  0.003  0.016
   31  0.000  0.001  0.003  0.004
   32  0.009  0.003  0.003  0.014
   33  0.011  0.002  0.003  0.016
   34  0.009  0.003  0.003  0.014
   35  0.000  0.004  0.005  0.009
   36  0.000  0.001  0.013  0.014
   37  0.000  0.000  0.000  0.000
tot    0.344  0.116  0.182  0.641
 
band     9 # energy   -6.16910941 # occ.  2.00000000
 
ion      s      p      d    tot
    1  0.020  0.003  0.001  0.024
    2  0.000  0.002  0.004  0.006
    3  0.000  0.002  0.004  0.006
    4  0.000  0.002  0.004  0.006
    5  0.001  0.000  0.000  0.002
    6  0.000  0.002  0.004  0.006
    7  0.000  0.002  0.004  0.006
    8  0.000  0.002  0.004  0.006
    9  0.009  0.002  0.000  0.011
   10  0.029  0.005  0.006  0.040
   11  0.005  0.000  0.011  0.016
   12  0.029  0.005  0.006  0.040
   13  0.005  0.000  0.011  0.016
   14  0.005  0.000  0.011  0.016
   15  0.013  0.008  0.003  0.024
   16  0.029  0.005  0.006  0.040
   17  0.013  0.008  0.003  0.024
   18  0.012  0.008  0.003  0.024
   19  0.022  0.009  0.002  0.033
   20  0.000  0.002  0.010  0.013
   21  0.000  0.002  0.010  0.013
   22  0.026  0.003  0.009  0.037
   23  0.000  0.002  0.010  0.013
   24  0.026  0.002  0.009  0.038
   25  0.022  0.009  0.002  0.034
   26  0.022  0.009  0.002  0.033
   27  0.026  0.003  0.009  0.037
   28  0.020  0.003  0.000  0.023
   29  0.000  0.002  0.004  0.006
   30  0.000  0.002  0.004  0.006
   31  0.000  0.002  0.004  0.006
   32  0.000  0.002  0.004  0.006
   33  0.000  0.002  0.004  0.006
   34  0.000  0.002  0.004  0.006
   35  0.013  0.003  0.001  0.017
   36  0.000  0.000  0.000  0.000
   37  0.000  0.000  0.000  0.000
tot    0.346  0.115  0.178  0.640
 
band    10 # energy   -6.09971996 # occ.  2.00000000
 
ion      s      p      d    tot
    1  0.000  0.000  0.001  0.001
    2  0.002  0.002  0.005  0.009
    3  0.002  0.002  0.005  0.009
    4  0.002  0.002  0.005  0.009
    5  0.036  0.003  0.000  0.039
    6  0.002  0.002  0.005  0.009
    7  0.002  0.002  0.005  0.009
    8  0.002  0.002  0.005  0.009
    9  0.003  0.002  0.004  0.009
   10  0.003  0.004  0.008  0.016
   11  0.020  0.009  0.004  0.033
   12  0.003  0.004  0.008  0.016
   13  0.020  0.009  0.004  0.033
   14  0.020  0.009  0.004  0.033
   15  0.026  0.002  0.011  0.038
   16  0.003  0.004  0.008  0.016
   17  0.026  0.002  0.011  0.038
   18  0.026  0.002  0.011  0.038
   19  0.010  0.001  0.009  0.020
   20  0.019  0.005  0.006  0.030
   21  0.019  0.005  0.006  0.030
   22  0.008  0.007  0.005  0.019
   23  0.019  0.005  0.006  0.030
   24  0.008  0.007  0.005  0.019
   25  0.010  0.001  0.009  0.020
   26  0.010  0.001  0.009  0.020
   27  0.008  0.007  0.005  0.019
   28  0.000  0.001  0.003  0.003
   29  0.003  0.001  0.004  0.007
   30  0.003  0.001  0.004  0.007
   31  0.003  0.001  0.004  0.007
   32  0.003  0.001  0.004  0.007
   33  0.003  0.001  0.004  0.007
   34  0.003  0.001  0.004  0.007
   35  0.000  0.001  0.002  0.002
   36  0.019  0.007  0.005  0.031
   37  0.003  0.000  0.000  0.003
tot    0.346  0.112  0.197  0.655
 
band    11 # energy   -5.51415052 # occ.  2.00000000
 
ion      s      p      d    tot
    1  0.008  0.000  0.010  0.019
    2  0.007  0.001  0.010  0.018
    3  0.007  0.001  0.010  0.018
    4  0.007  0.001  0.010  0.018
    5  0.001  0.001  0.011  0.014
    6  0.007  0.001  0.010  0.018
    7  0.007  0.001  0.010  0.018
    8  0.007  0.001  0.010  0.018
    9  0.015  0.000  0.009  0.024
   10  0.008  0.000  0.024  0.032
   11  0.013  0.000  0.021  0.034
   12  0.008  0.000  0.024  0.032
   13  0.013  0.000  0.021  0.034
   14  0.013  0.000  0.021  0.034
   15  0.003  0.000  0.021  0.025
   16  0.008  0.000  0.024  0.032
   17  0.003  0.000  0.021  0.025
   18  0.003  0.000  0.021  0.025
   19  0.003  0.000  0.014  0.018
   20  0.007  0.001  0.025  0.034
   21  0.007  0.001  0.025  0.034
   22  0.003  0.000  0.014  0.017
   23  0.007  0.001  0.025  0.034
   24  0.003  0.000  0.014  0.017
   25  0.003  0.000  0.014  0.018
   26  0.003  0.000  0.014  0.018
   27  0.003  0.000  0.014  0.017
   28  0.001  0.000  0.003  0.004
   29  0.002  0.000  0.005  0.008
   30  0.002  0.000  0.005  0.008
   31  0.002  0.000  0.005  0.008
   32  0.002  0.000  0.005  0.008
   33  0.002  0.000  0.005  0.008
   34  0.002  0.000  0.005  0.008
   35  0.002  0.000  0.003  0.005
   36  0.002  0.004  0.056  0.061
   37  0.005  0.006  0.000  0.011
tot    0.202  0.026  0.545  0.772
 
band    12 # energy   -5.49750578 # occ.  2.00000000
 
ion      s      p      d    tot
    1  0.000  0.000  0.009  0.009
    2  0.015  0.003  0.005  0.023
    3  0.013  0.003  0.004  0.020
    4  0.015  0.003  0.005  0.022
    5  0.000  0.004  0.008  0.012
    6  0.000  0.001  0.004  0.006
    7  0.013  0.003  0.004  0.020
    8  0.000  0.001  0.004  0.006
    9  0.000  0.004  0.008  0.013
   10  0.000  0.003  0.014  0.017
   11  0.019  0.003  0.008  0.031
   12  0.001  0.001  0.009  0.011
   13  0.019  0.003  0.008  0.030
   14  0.000  0.000  0.020  0.020
   15  0.011  0.002  0.008  0.021
   16  0.001  0.001  0.009  0.011
   17  0.011  0.002  0.008  0.021
   18  0.000  0.004  0.015  0.019
   19  0.002  0.002  0.008  0.012
   20  0.000  0.003  0.043  0.046
   21  0.003  0.002  0.015  0.020
   22  0.008  0.005  0.010  0.022
   23  0.003  0.002  0.015  0.020
   24  0.000  0.000  0.017  0.017
   25  0.000  0.001  0.007  0.008
   26  0.002  0.002  0.008  0.012
   27  0.008  0.005  0.010  0.022
   28  0.000  0.001  0.007  0.007
   29  0.017  0.003  0.006  0.026
   30  0.005  0.003  0.010  0.018
   31  0.017  0.003  0.006  0.026
   32  0.003  0.001  0.007  0.011
   33  0.005  0.003  0.010  0.018
   34  0.003  0.001  0.007  0.011
   35  0.000  0.004  0.004  0.008
   36  0.000  0.002  0.108  0.110
   37  0.000  0.006  0.000  0.006
tot    0.194  0.089  0.446  0.729
 
band    13 # energy   -5.49734896 # occ.  2.00000000
 
ion      s      p      d    tot
    1  0.000  0.000  0.009  0.009
    2  0.004  0.002  0.004  0.009
    3  0.006  0.002  0.004  0.012
    4  0.004  0.002  0.004  0.010
    5  0.000  0.004  0.008  0.012
    6  0.018  0.003  0.005  0.026
    7  0.006  0.002  0.004  0.012
    8  0.018  0.003  0.005  0.026
    9  0.000  0.004  0.008  0.013
   10  0.001  0.001  0.007  0.009
   11  0.006  0.001  0.016  0.023
   12  0.000  0.003  0.012  0.015
   13  0.007  0.001  0.016  0.023
   14  0.026  0.004  0.004  0.034
   15  0.004  0.003  0.013  0.020
   16  0.000  0.003  0.012  0.015
   17  0.004  0.003  0.013  0.020
   18  0.015  0.001  0.006  0.022
   19  0.001  0.001  0.007  0.009
   20  0.004  0.002  0.005  0.011
   21  0.001  0.002  0.033  0.037
   22  0.003  0.002  0.015  0.019
   23  0.001  0.002  0.034  0.037
   24  0.010  0.006  0.008  0.024
   25  0.002  0.002  0.009  0.013
   26  0.001  0.001  0.007  0.009
   27  0.003  0.002  0.015  0.019
   28  0.000  0.001  0.007  0.007
   29  0.000  0.001  0.009  0.010
   30  0.012  0.001  0.006  0.019
   31  0.000  0.001  0.009  0.010
   32  0.014  0.004  0.008  0.026
   33  0.012  0.001  0.005  0.019
   34  0.014  0.004  0.008  0.026
   35  0.000  0.004  0.004  0.008
   36  0.000  0.002  0.108  0.110
   37  0.000  0.006  0.000  0.006
tot    0.194  0.088  0.446  0.729
 
band    14 # energy   -5.46202641 # occ.  2.00000000
 
ion      s      p      d    tot
    1  0.000  0.006  0.009  0.016
    2  0.019  0.004  0.006  0.028
    3  0.014  0.003  0.005  0.022
    4  0.019  0.004  0.006  0.028
    5  0.000  0.002  0.011  0.013
    6  0.000  0.002  0.005  0.007
    7  0.014  0.003  0.005  0.022
    8  0.000  0.002  0.005  0.007
    9  0.000  0.001  0.010  0.011
   10  0.029  0.004  0.006  0.040
   11  0.001  0.004  0.015  0.020
   12  0.007  0.002  0.019  0.029
   13  0.001  0.004  0.015  0.020
   14  0.004  0.000  0.007  0.011
   15  0.003  0.002  0.014  0.019
   16  0.007  0.002  0.019  0.028
   17  0.003  0.002  0.014  0.019
   18  0.012  0.003  0.007  0.022
   19  0.002  0.002  0.018  0.022
   20  0.010  0.006  0.008  0.023
   21  0.002  0.002  0.010  0.014
   22  0.000  0.001  0.015  0.016
   23  0.002  0.002  0.010  0.014
   24  0.000  0.000  0.006  0.006
   25  0.009  0.004  0.003  0.017
   26  0.002  0.002  0.018  0.022
   27  0.000  0.001  0.015  0.016
   28  0.000  0.005  0.005  0.010
   29  0.014  0.003  0.007  0.024
   30  0.015  0.002  0.006  0.022
   31  0.014  0.003  0.007  0.024
   32  0.000  0.001  0.007  0.009
   33  0.015  0.002  0.006  0.022
   34  0.000  0.001  0.007  0.009
   35  0.000  0.001  0.009  0.010
   36  0.000  0.002  0.066  0.068
   37  0.000  0.002  0.000  0.002
tot    0.222  0.094  0.401  0.716
 
band    15 # energy   -5.46186849 # occ.  2.00000000
 
ion      s      p      d    tot
    1  0.000  0.006  0.009  0.016
    2  0.003  0.002  0.005  0.010
    3  0.008  0.003  0.005  0.016
    4  0.003  0.002  0.005  0.010
    5  0.000  0.002  0.011  0.013
    6  0.022  0.004  0.005  0.031
    7  0.008  0.003  0.005  0.016
    8  0.022  0.004  0.005  0.031
    9  0.000  0.001  0.010  0.011
   10  0.000  0.002  0.023  0.025
   11  0.003  0.001  0.010  0.014
   12  0.022  0.004  0.010  0.036
   13  0.003  0.001  0.010  0.014
   14  0.000  0.005  0.017  0.022
   15  0.009  0.003  0.009  0.021
   16  0.022  0.004  0.010  0.036
   17  0.009  0.003  0.009  0.021
   18  0.000  0.001  0.017  0.018
   19  0.007  0.003  0.008  0.019
   20  0.000  0.000  0.011  0.011
   21  0.007  0.004  0.008  0.020
   22  0.000  0.001  0.009  0.010
   23  0.007  0.004  0.008  0.020
   24  0.000  0.002  0.018  0.020
   25  0.000  0.001  0.023  0.024
   26  0.007  0.003  0.008  0.019
   27  0.000  0.000  0.009  0.010
   28  0.000  0.005  0.005  0.010
   29  0.005  0.001  0.006  0.012
   30  0.004  0.003  0.008  0.015
   31  0.005  0.001  0.006  0.013
   32  0.019  0.003  0.006  0.028
   33  0.005  0.003  0.008  0.015
   34  0.019  0.003  0.006  0.028
   35  0.000  0.001  0.009  0.010
   36  0.000  0.002  0.066  0.068
   37  0.000  0.002  0.000  0.002
tot    0.222  0.094  0.401  0.716
 
band    16 # energy   -5.40027189 # occ.  2.00000000
 
ion      s      p      d    tot
    1  0.034  0.003  0.000  0.037
    2  0.000  0.003  0.010  0.013
    3  0.000  0.003  0.010  0.013
    4  0.000  0.003  0.010  0.013
    5  0.000  0.000  0.000  0.000
    6  0.000  0.003  0.010  0.013
    7  0.000  0.003  0.010  0.013
    8  0.000  0.003  0.010  0.013
    9  0.031  0.004  0.001  0.035
   10  0.009  0.004  0.010  0.023
   11  0.001  0.000  0.015  0.017
   12  0.009  0.004  0.010  0.023
   13  0.001  0.000  0.015  0.017
   14  0.001  0.000  0.015  0.017
   15  0.007  0.004  0.017  0.028
   16  0.009  0.004  0.010  0.023
   17  0.007  0.004  0.017  0.028
   18  0.007  0.004  0.017  0.028
   19  0.005  0.004  0.019  0.027
   20  0.000  0.000  0.015  0.015
   21  0.000  0.000  0.015  0.015
   22  0.011  0.004  0.010  0.024
   23  0.000  0.000  0.015  0.015
   24  0.011  0.004  0.010  0.024
   25  0.005  0.004  0.019  0.027
   26  0.005  0.004  0.019  0.027
   27  0.011  0.004  0.010  0.024
   28  0.036  0.003  0.000  0.039
   29  0.000  0.003  0.010  0.013
   30  0.000  0.003  0.010  0.013
   31  0.000  0.003  0.010  0.013
   32  0.000  0.003  0.010  0.013
   33  0.000  0.003  0.010  0.013
   34  0.000  0.003  0.010  0.013
   35  0.028  0.004  0.001  0.033
   36  0.000  0.000  0.000  0.000
   37  0.000  0.000  0.000  0.000
tot    0.228  0.093  0.383  0.705
 
band    17 # energy   -5.28235393 # occ.  2.00000000
 
ion      s      p      d    tot
    1  0.012  0.001  0.000  0.014
    2  0.000  0.003  0.011  0.014
    3  0.000  0.003  0.011  0.014
    4  0.000  0.003  0.011  0.014
    5  0.044  0.004  0.000  0.048
    6  0.000  0.003  0.011  0.014
    7  0.000  0.003  0.011  0.014
    8  0.000  0.003  0.011  0.014
    9  0.006  0.001  0.001  0.008
   10  0.001  0.001  0.024  0.026
   11  0.005  0.004  0.019  0.028
   12  0.001  0.001  0.024  0.026
   13  0.005  0.004  0.019  0.028
   14  0.005  0.004  0.019  0.028
   15  0.004  0.001  0.009  0.015
   16  0.001  0.001  0.024  0.026
   17  0.004  0.001  0.009  0.015
   18  0.004  0.001  0.009  0.015
   19  0.009  0.001  0.019  0.028
   20  0.011  0.004  0.008  0.023
   21  0.011  0.004  0.008  0.023
   22  0.002  0.002  0.019  0.023
   23  0.011  0.004  0.008  0.023
   24  0.002  0.002  0.019  0.023
   25  0.009  0.001  0.019  0.028
   26  0.009  0.001  0.019  0.028
   27  0.002  0.002  0.019  0.023
   28  0.004  0.002  0.004  0.009
   29  0.001  0.002  0.011  0.014
   30  0.001  0.002  0.011  0.014
   31  0.001  0.002  0.011  0.014
   32  0.001  0.002  0.011  0.014
   33  0.001  0.002  0.011  0.014
   34  0.001  0.002  0.011  0.014
   35  0.006  0.001  0.001  0.009
   36  0.037  0.011  0.006  0.053
   37  0.003  0.000  0.000  0.003
tot    0.214  0.091  0.437  0.742
 
band    18 # energy   -5.00017031 # occ.  2.00000000
 
ion      s      p      d    tot
    1  0.000  0.000  0.005  0.005
    2  0.001  0.000  0.001  0.003
    3  0.001  0.000  0.001  0.003
    4  0.001  0.000  0.001  0.003
    5  0.000  0.001  0.001  0.002
    6  0.004  0.001  0.001  0.006
    7  0.001  0.000  0.001  0.003
    8  0.004  0.001  0.001  0.006
    9  0.000  0.001  0.003  0.004
   10  0.000  0.000  0.002  0.002
   11  0.000  0.001  0.003  0.003
   12  0.000  0.000  0.003  0.003
   13  0.000  0.000  0.003  0.003
   14  0.000  0.002  0.005  0.007
   15  0.000  0.000  0.010  0.011
   16  0.000  0.000  0.003  0.003
   17  0.000  0.000  0.011  0.012
   18  0.001  0.001  0.000  0.002
   19  0.000  0.003  0.010  0.013
   20  0.002  0.003  0.031  0.036
   21  0.000  0.001  0.013  0.014
   22  0.002  0.000  0.011  0.013
   23  0.000  0.001  0.014  0.015
   24  0.008  0.000  0.005  0.013
   25  0.000  0.000  0.002  0.003
   26  0.000  0.003  0.010  0.013
   27  0.002  0.000  0.010  0.013
   28  0.000  0.002  0.011  0.013
   29  0.016  0.001  0.013  0.031
   30  0.001  0.001  0.004  0.005
   31  0.016  0.001  0.013  0.029
   32  0.009  0.001  0.014  0.024
   33  0.001  0.001  0.003  0.006
   34  0.010  0.001  0.015  0.026
   35  0.000  0.001  0.016  0.017
   36  0.000  0.010  0.333  0.343
   37  0.000  0.067  0.000  0.067
tot    0.083  0.107  0.586  0.776
 
band    19 # energy   -5.00015123 # occ.  2.00000000
 
ion      s      p      d    tot
    1  0.000  0.000  0.005  0.005
    2  0.003  0.001  0.001  0.005
    3  0.003  0.000  0.001  0.005
    4  0.003  0.001  0.001  0.005
    5  0.000  0.001  0.001  0.002
    6  0.000  0.000  0.001  0.002
    7  0.003  0.000  0.001  0.005
    8  0.000  0.000  0.001  0.002
    9  0.000  0.001  0.003  0.004
   10  0.000  0.000  0.003  0.003
   11  0.000  0.001  0.004  0.006
   12  0.000  0.000  0.002  0.003
   13  0.000  0.002  0.004  0.006
   14  0.000  0.000  0.002  0.002
   15  0.000  0.001  0.004  0.005
   16  0.000  0.000  0.002  0.003
   17  0.000  0.001  0.003  0.005
   18  0.000  0.000  0.014  0.014
   19  0.000  0.001  0.005  0.007
   20  0.000  0.000  0.008  0.008
   21  0.001  0.002  0.026  0.029
   22  0.007  0.000  0.006  0.013
   23  0.001  0.002  0.025  0.028
   24  0.000  0.000  0.012  0.013
   25  0.000  0.004  0.013  0.016
   26  0.000  0.001  0.005  0.006
   27  0.006  0.000  0.007  0.013
   28  0.000  0.002  0.011  0.013
   29  0.001  0.001  0.007  0.010
   30  0.017  0.001  0.017  0.035
   31  0.002  0.001  0.008  0.011
   32  0.008  0.001  0.006  0.016
   33  0.017  0.001  0.017  0.035
   34  0.007  0.001  0.006  0.014
   35  0.000  0.001  0.016  0.017
   36  0.000  0.010  0.333  0.343
   37  0.000  0.067  0.000  0.067
tot    0.083  0.107  0.586  0.776
 
band    20 # energy   -4.84400193 # occ.  2.00000000
 
ion      s      p      d    tot
    1  0.000  0.001  0.020  0.021
    2  0.012  0.001  0.006  0.019
    3  0.005  0.001  0.006  0.011
    4  0.012  0.001  0.006  0.019
    5  0.000  0.001  0.010  0.011
    6  0.001  0.001  0.006  0.008
    7  0.005  0.001  0.006  0.011
    8  0.001  0.001  0.006  0.008
    9  0.000  0.002  0.003  0.005
   10  0.000  0.000  0.053  0.053
   11  0.000  0.002  0.013  0.015
   12  0.000  0.000  0.017  0.017
   13  0.000  0.002  0.013  0.015
   14  0.000  0.000  0.004  0.004
   15  0.000  0.004  0.013  0.017
   16  0.000  0.000  0.017  0.017
   17  0.000  0.004  0.013  0.017
   18  0.000  0.000  0.020  0.020
   19  0.007  0.002  0.012  0.021
   20  0.000  0.000  0.046  0.046
   21  0.000  0.001  0.028  0.028
   22  0.001  0.002  0.013  0.016
   23  0.000  0.001  0.028  0.028
   24  0.000  0.001  0.007  0.008
   25  0.000  0.000  0.021  0.021
   26  0.007  0.002  0.012  0.021
   27  0.001  0.002  0.013  0.016
   28  0.000  0.000  0.013  0.013
   29  0.011  0.001  0.019  0.031
   30  0.001  0.001  0.018  0.020
   31  0.011  0.001  0.019  0.031
   32  0.005  0.000  0.020  0.025
   33  0.001  0.001  0.018  0.020
   34  0.004  0.000  0.020  0.025
   35  0.000  0.002  0.001  0.002
   36  0.000  0.001  0.149  0.150
   37  0.000  0.007  0.000  0.007
tot    0.087  0.046  0.687  0.820
 
band    21 # energy   -4.84390098 # occ.  2.00000000
 
ion      s      p      d    tot
    1  0.000  0.001  0.020  0.021
    2  0.000  0.001  0.006  0.007
    3  0.007  0.001  0.006  0.014
    4  0.000  0.001  0.006  0.007
    5  0.000  0.001  0.010  0.011
    6  0.011  0.001  0.006  0.018
    7  0.007  0.001  0.006  0.014
    8  0.011  0.001  0.006  0.018
    9  0.000  0.002  0.003  0.005
   10  0.000  0.000  0.005  0.005
   11  0.000  0.001  0.007  0.008
   12  0.000  0.000  0.041  0.041
   13  0.000  0.001  0.007  0.008
   14  0.000  0.003  0.015  0.019
   15  0.000  0.001  0.018  0.019
   16  0.000  0.000  0.041  0.041
   17  0.000  0.001  0.018  0.019
   18  0.000  0.005  0.011  0.016
   19  0.002  0.001  0.018  0.021
   20  0.000  0.001  0.022  0.022
   21  0.000  0.000  0.040  0.040
   22  0.000  0.001  0.009  0.011
   23  0.000  0.000  0.040  0.040
   24  0.002  0.002  0.015  0.019
   25  0.010  0.003  0.009  0.021
   26  0.002  0.001  0.018  0.021
   27  0.000  0.001  0.009  0.011
   28  0.000  0.000  0.013  0.013
   29  0.000  0.000  0.019  0.020
   30  0.010  0.000  0.021  0.031
   31  0.000  0.000  0.019  0.020
   32  0.006  0.001  0.018  0.025
   33  0.010  0.000  0.021  0.031
   34  0.006  0.001  0.018  0.025
   35  0.000  0.002  0.001  0.002
   36  0.000  0.001  0.149  0.150