PROCAR new format
# of k-points:   10         # of bands:  252         # of ions:   39

 k-point     1 :    0.00000000 0.00000000 0.00000000     weight = 0.01562500

band     1 # energy  -23.68599591 # occ.  2.00000000
 
ion      s      p      d    tot
    1  0.000  0.000  0.000  0.000
    2  0.000  0.000  0.000  0.000
    3  0.000  0.000  0.000  0.000
    4  0.000  0.000  0.000  0.000
    5  0.000  0.000  0.000  0.000
    6  0.000  0.000  0.000  0.000
    7  0.000  0.000  0.000  0.000
    8  0.000  0.000  0.000  0.000
    9  0.000  0.000  0.000  0.000
   10  0.000  0.000  0.000  0.000
   11  0.000  0.000  0.000  0.000
   12  0.000  0.000  0.000  0.000
   13  0.000  0.000  0.000  0.000
   14  0.000  0.000  0.000  0.000
   15  0.000  0.000  0.000  0.000
   16  0.000  0.000  0.000  0.000
   17  0.000  0.000  0.000  0.000
   18  0.000  0.000  0.000  0.000
   19  0.000  0.000  0.000  0.000
   20  0.000  0.000  0.000  0.000
   21  0.000  0.000  0.000  0.000
   22  0.000  0.000  0.000  0.000
   23  0.000  0.000  0.000  0.000
   24  0.000  0.000  0.000  0.000
   25  0.000  0.000  0.000  0.000
   26  0.000  0.000  0.000  0.000
   27  0.000  0.000  0.000  0.000
   28  0.000  0.000  0.000  0.000
   29  0.000  0.000  0.000  0.000
   30  0.000  0.000  0.000  0.000
   31  0.000  0.000  0.000  0.000
   32  0.000  0.000  0.000  0.000
   33  0.000  0.000  0.000  0.000
   34  0.000  0.000  0.000  0.000
   35  0.000  0.000  0.000  0.000
   36  0.000  0.000  0.000  0.000
   37  0.074  0.054  0.000  0.128
   38  0.726  0.006  0.000  0.731
   39  0.064  0.014  0.000  0.078
tot    0.864  0.073  0.000  0.937
 
band     2 # energy  -14.42744599 # occ.  2.00000000
 
ion      s      p      d    tot
    1  0.000  0.000  0.000  0.000
    2  0.000  0.000  0.000  0.000
    3  0.000  0.000  0.000  0.000
    4  0.000  0.000  0.000  0.000
    5  0.000  0.000  0.000  0.000
    6  0.000  0.000  0.000  0.000
    7  0.000  0.000  0.000  0.000
    8  0.000  0.000  0.000  0.000
    9  0.000  0.000  0.000  0.000
   10  0.000  0.000  0.000  0.000
   11  0.000  0.000  0.000  0.000
   12  0.000  0.000  0.000  0.000
   13  0.000  0.000  0.000  0.000
   14  0.000  0.000  0.000  0.000
   15  0.000  0.000  0.000  0.000
   16  0.000  0.000  0.000  0.000
   17  0.000  0.000  0.000  0.000
   18  0.000  0.000  0.000  0.000
   19  0.000  0.000  0.000  0.000
   20  0.000  0.000  0.000  0.000
   21  0.000  0.000  0.000  0.000
   22  0.000  0.000  0.000  0.000
   23  0.000  0.000  0.000  0.000
   24  0.000  0.000  0.000  0.000
   25  0.000  0.000  0.000  0.000
   26  0.000  0.000  0.000  0.000
   27  0.000  0.000  0.000  0.000
   28  0.000  0.000  0.000  0.000
   29  0.000  0.000  0.000  0.000
   30  0.000  0.000  0.000  0.000
   31  0.000  0.000  0.000  0.000
   32  0.000  0.000  0.000  0.000
   33  0.000  0.000  0.000  0.000
   34  0.000  0.000  0.000  0.000
   35  0.000  0.000  0.000  0.000
   36  0.002  0.002  0.002  0.005
   37  0.159  0.051  0.000  0.209
   38  0.015  0.521  0.000  0.536
   39  0.200  0.032  0.000  0.232
tot    0.377  0.605  0.002  0.983
 
band     3 # energy   -7.17004400 # occ.  2.00000000
 
ion      s      p      d    tot
    1  0.000  0.000  0.000  0.000
    2  0.000  0.000  0.000  0.000
    3  0.000  0.000  0.000  0.000
    4  0.000  0.000  0.000  0.000
    5  0.000  0.000  0.000  0.000
    6  0.000  0.000  0.000  0.000
    7  0.000  0.000  0.000  0.000
    8  0.000  0.000  0.000  0.000
    9  0.000  0.000  0.000  0.000
   10  0.002  0.000  0.000  0.002
   11  0.002  0.000  0.000  0.002
   12  0.002  0.000  0.000  0.002
   13  0.002  0.000  0.000  0.002
   14  0.002  0.000  0.000  0.002
   15  0.001  0.000  0.000  0.001
   16  0.002  0.000  0.000  0.002
   17  0.001  0.000  0.000  0.001
   18  0.001  0.000  0.000  0.001
   19  0.003  0.000  0.000  0.003
   20  0.009  0.001  0.004  0.013
   21  0.009  0.001  0.004  0.013
   22  0.003  0.000  0.000  0.003
   23  0.009  0.001  0.004  0.013
   24  0.003  0.000  0.000  0.003
   25  0.003  0.000  0.000  0.003
   26  0.003  0.000  0.000  0.003
   27  0.003  0.000  0.000  0.003
   28  0.002  0.000  0.000  0.002
   29  0.005  0.001  0.003  0.009
   30  0.005  0.001  0.003  0.009
   31  0.005  0.001  0.003  0.009
   32  0.005  0.001  0.003  0.009
   33  0.005  0.001  0.003  0.009
   34  0.005  0.001  0.003  0.009
   35  0.002  0.000  0.000  0.002
   36  0.108  0.037  0.116  0.261
   37  0.158  0.140  0.000  0.298
   38  0.012  0.044  0.000  0.056
   39  0.013  0.001  0.000  0.014
tot    0.386  0.229  0.147  0.761
 
band     4 # energy   -6.60707944 # occ.  2.00000000
 
ion      s      p      d    tot
    1  0.007  0.001  0.000  0.008
    2  0.007  0.001  0.000  0.008
    3  0.007  0.001  0.000  0.008
    4  0.007  0.001  0.000  0.008
    5  0.007  0.001  0.000  0.008
    6  0.007  0.001  0.000  0.008
    7  0.007  0.001  0.000  0.008
    8  0.007  0.001  0.000  0.008
    9  0.007  0.001  0.000  0.008
   10  0.024  0.000  0.001  0.024
   11  0.024  0.000  0.000  0.025
   12  0.024  0.000  0.001  0.024
   13  0.024  0.000  0.000  0.025
   14  0.024  0.000  0.000  0.025
   15  0.025  0.000  0.001  0.025
   16  0.024  0.000  0.001  0.024
   17  0.025  0.000  0.001  0.025
   18  0.025  0.000  0.001  0.025
   19  0.018  0.000  0.000  0.019
   20  0.015  0.001  0.001  0.017
   21  0.015  0.001  0.001  0.017
   22  0.019  0.000  0.000  0.020
   23  0.015  0.001  0.001  0.017
   24  0.019  0.000  0.000  0.020
   25  0.018  0.000  0.000  0.019
   26  0.018  0.000  0.000  0.019
   27  0.019  0.000  0.000  0.020
   28  0.003  0.000  0.000  0.004
   29  0.001  0.001  0.001  0.003
   30  0.001  0.001  0.001  0.003
   31  0.001  0.001  0.001  0.003
   32  0.001  0.001  0.001  0.003
   33  0.001  0.001  0.001  0.003
   34  0.001  0.001  0.001  0.003
   35  0.003  0.000  0.000  0.004
   36  0.006  0.011  0.020  0.037
   37  0.026  0.021  0.000  0.048
   38  0.002  0.006  0.000  0.008
   39  0.002  0.000  0.000  0.002
tot    0.489  0.053  0.040  0.582
 
band     5 # energy   -6.51524815 # occ.  2.00000000
 
ion      s      p      d    tot
    1  0.000  0.000  0.000  0.000
    2  0.000  0.000  0.000  0.000
    3  0.000  0.000  0.000  0.000
    4  0.000  0.000  0.000  0.000
    5  0.000  0.000  0.000  0.000
    6  0.000  0.000  0.000  0.000
    7  0.000  0.000  0.000  0.000
    8  0.000  0.000  0.000  0.000
    9  0.000  0.000  0.000  0.000
   10  0.000  0.000  0.000  0.000
   11  0.000  0.000  0.000  0.000
   12  0.000  0.000  0.000  0.000
   13  0.000  0.000  0.000  0.000
   14  0.000  0.000  0.000  0.000
   15  0.000  0.000  0.000  0.000
   16  0.000  0.000  0.000  0.000
   17  0.000  0.000  0.000  0.000
   18  0.000  0.000  0.000  0.000
   19  0.000  0.000  0.000  0.000
   20  0.000  0.000  0.000  0.000
   21  0.000  0.000  0.000  0.000
   22  0.000  0.000  0.000  0.000
   23  0.000  0.000  0.000  0.000
   24  0.000  0.000  0.000  0.000
   25  0.000  0.000  0.000  0.000
   26  0.000  0.000  0.000  0.000
   27  0.000  0.000  0.000  0.000
   28  0.000  0.000  0.000  0.000
   29  0.001  0.000  0.001  0.002
   30  0.000  0.000  0.000  0.000
   31  0.001  0.000  0.001  0.002
   32  0.001  0.000  0.001  0.002
   33  0.000  0.000  0.000  0.000
   34  0.001  0.000  0.001  0.002
   35  0.000  0.000  0.000  0.000
   36  0.000  0.002  0.011  0.014
   37  0.000  0.110  0.000  0.110
   38  0.000  0.529  0.000  0.529
   39  0.000  0.008  0.000  0.008
tot    0.003  0.650  0.018  0.671
 
band     6 # energy   -6.51504236 # occ.  2.00000000
 
ion      s      p      d    tot
    1  0.000  0.000  0.000  0.000
    2  0.000  0.000  0.000  0.000
    3  0.000  0.000  0.000  0.000
    4  0.000  0.000  0.000  0.000
    5  0.000  0.000  0.000  0.000
    6  0.000  0.000  0.000  0.000
    7  0.000  0.000  0.000  0.000
    8  0.000  0.000  0.000  0.000
    9  0.000  0.000  0.000  0.000
   10  0.000  0.000  0.000  0.000
   11  0.000  0.000  0.000  0.000
   12  0.000  0.000  0.000  0.000
   13  0.000  0.000  0.000  0.000
   14  0.000  0.000  0.000  0.000
   15  0.000  0.000  0.000  0.000
   16  0.000  0.000  0.000  0.000
   17  0.000  0.000  0.000  0.000
   18  0.000  0.000  0.000  0.000
   19  0.000  0.000  0.000  0.000
   20  0.000  0.000  0.000  0.000
   21  0.000  0.000  0.000  0.000
   22  0.000  0.000  0.000  0.000
   23  0.000  0.000  0.000  0.000
   24  0.000  0.000  0.000  0.000
   25  0.000  0.000  0.000  0.000
   26  0.000  0.000  0.000  0.000
   27  0.000  0.000  0.000  0.000
   28  0.000  0.000  0.000  0.000
   29  0.000  0.000  0.001  0.001
   30  0.001  0.000  0.002  0.003
   31  0.000  0.000  0.001  0.001
   32  0.000  0.000  0.001  0.001
   33  0.001  0.000  0.002  0.003
   34  0.000  0.000  0.001  0.001
   35  0.000  0.000  0.000  0.000
   36  0.000  0.002  0.011  0.014
   37  0.000  0.110  0.000  0.110
   38  0.000  0.529  0.000  0.529
   39  0.000  0.008  0.000  0.008
tot    0.003  0.650  0.018  0.671
 
band     7 # energy   -5.78610323 # occ.  2.00000000
 
ion      s      p      d    tot
    1  0.007  0.000  0.000  0.007
    2  0.006  0.000  0.000  0.006
    3  0.006  0.000  0.000  0.006
    4  0.006  0.000  0.000  0.006
    5  0.006  0.000  0.000  0.006
    6  0.006  0.000  0.000  0.006
    7  0.006  0.000  0.000  0.006
    8  0.006  0.000  0.000  0.006
    9  0.006  0.000  0.000  0.006
   10  0.010  0.001  0.016  0.027
   11  0.008  0.001  0.017  0.027
   12  0.010  0.001  0.016  0.027
   13  0.008  0.001  0.017  0.027
   14  0.008  0.001  0.017  0.027
   15  0.008  0.001  0.016  0.025
   16  0.010  0.001  0.016  0.027
   17  0.008  0.001  0.016  0.025
   18  0.008  0.001  0.016  0.025
   19  0.014  0.001  0.022  0.037
   20  0.012  0.000  0.028  0.041
   21  0.012  0.000  0.028  0.041
   22  0.016  0.001  0.020  0.037
   23  0.012  0.000  0.028  0.041
   24  0.016  0.001  0.020  0.037
   25  0.014  0.001  0.022  0.037
   26  0.014  0.001  0.022  0.037
   27  0.016  0.001  0.020  0.037
   28  0.005  0.001  0.000  0.006
   29  0.003  0.001  0.001  0.005
   30  0.003  0.001  0.001  0.005
   31  0.003  0.001  0.001  0.005
   32  0.003  0.001  0.001  0.005
   33  0.003  0.001  0.001  0.005
   34  0.003  0.001  0.001  0.005
   35  0.005  0.000  0.000  0.006
   36  0.000  0.003  0.003  0.006
   37  0.004  0.003  0.000  0.007
   38  0.000  0.001  0.000  0.001
   39  0.000  0.000  0.000  0.000
tot    0.292  0.027  0.372  0.691
 
band     8 # energy   -5.51929095 # occ.  2.00000000
 
ion      s      p      d    tot
    1  0.022  0.000  0.030  0.051
    2  0.018  0.000  0.030  0.048
    3  0.018  0.000  0.030  0.048
    4  0.018  0.000  0.030  0.048
    5  0.016  0.000  0.030  0.046
    6  0.018  0.000  0.030  0.048
    7  0.018  0.000  0.030  0.048
    8  0.018  0.000  0.030  0.048
    9  0.017  0.000  0.030  0.048
   10  0.000  0.001  0.025  0.026
   11  0.001  0.001  0.020  0.021
   12  0.000  0.001  0.025  0.026
   13  0.001  0.001  0.020  0.021
   14  0.001  0.001  0.020  0.021
   15  0.001  0.001  0.020  0.022
   16  0.000  0.001  0.025  0.026
   17  0.001  0.001  0.020  0.022
   18  0.001  0.001  0.020  0.022
   19  0.000  0.000  0.004  0.004
   20  0.000  0.000  0.006  0.006
   21  0.000  0.000  0.006  0.006
   22  0.001  0.000  0.005  0.006
   23  0.000  0.000  0.006  0.006
   24  0.001  0.000  0.005  0.006
   25  0.000  0.000  0.004  0.004
   26  0.000  0.000  0.004  0.004
   27  0.001  0.000  0.005  0.006
   28  0.004  0.000  0.002  0.007
   29  0.003  0.000  0.004  0.007
   30  0.003  0.000  0.004  0.007
   31  0.003  0.000  0.004  0.007
   32  0.003  0.000  0.004  0.007
   33  0.003  0.000  0.004  0.007
   34  0.003  0.000  0.004  0.007
   35  0.005  0.000  0.003  0.009
   36  0.000  0.000  0.003  0.003
   37  0.001  0.001  0.000  0.002
   38  0.000  0.000  0.000  0.000
   39  0.000  0.000  0.000  0.000
tot    0.206  0.009  0.539  0.754
 
band     9 # energy   -5.41912070 # occ.  2.00000000
 
ion      s      p      d    tot
    1  0.001  0.000  0.006  0.007
    2  0.000  0.000  0.005  0.005
    3  0.000  0.000  0.005  0.005
    4  0.000  0.000  0.005  0.005
    5  0.000  0.000  0.001  0.002
    6  0.000  0.000  0.005  0.005
    7  0.000  0.000  0.005  0.005
    8  0.000  0.000  0.005  0.005
    9  0.003  0.001  0.001  0.005
   10  0.001  0.000  0.044  0.045
   11  0.005  0.001  0.016  0.022
   12  0.001  0.000  0.044  0.045
   13  0.005  0.001  0.016  0.022
   14  0.005  0.001  0.016  0.022
   15  0.009  0.001  0.033  0.043
   16  0.001  0.000  0.044  0.045
   17  0.009  0.001  0.033  0.043
   18  0.009  0.001  0.033  0.043
   19  0.000  0.001  0.036  0.037
   20  0.010  0.001  0.062  0.073
   21  0.010  0.001  0.062  0.073
   22  0.009  0.001  0.011  0.021
   23  0.010  0.001  0.062  0.073
   24  0.009  0.001  0.011  0.021
   25  0.000  0.001  0.036  0.037
   26  0.000  0.001  0.036  0.037
   27  0.009  0.001  0.011  0.021
   28  0.001  0.000  0.000  0.001
   29  0.000  0.000  0.005  0.006
   30  0.000  0.000  0.005  0.006
   31  0.000  0.000  0.005  0.006
   32  0.000  0.000  0.005  0.006
   33  0.000  0.000  0.005  0.006
   34  0.000  0.000  0.005  0.006
   35  0.002  0.000  0.001  0.003
   36  0.000  0.002  0.000  0.003
   37  0.001  0.001  0.000  0.002
   38  0.000  0.000  0.000  0.000
   39  0.000  0.000  0.000  0.000
tot    0.114  0.018  0.675  0.807
 
band    10 # energy   -5.40790772 # occ.  2.00000000
 
ion      s      p      d    tot
    1  0.001  0.000  0.002  0.003
    2  0.000  0.000  0.006  0.006
    3  0.000  0.000  0.006  0.006
    4  0.000  0.000  0.006  0.006
    5  0.006  0.001  0.002  0.009
    6  0.000  0.000  0.006  0.006
    7  0.000  0.000  0.006  0.006
    8  0.000  0.000  0.006  0.006
    9  0.001  0.000  0.003  0.004
   10  0.009  0.001  0.004  0.015
   11  0.010  0.000  0.041  0.051
   12  0.010  0.001  0.004  0.015
   13  0.010  0.000  0.041  0.051
   14  0.009  0.000  0.042  0.052
   15  0.000  0.000  0.037  0.037
   16  0.010  0.001  0.004  0.015
   17  0.000  0.000  0.037  0.037
   18  0.000  0.000  0.038  0.039
   19  0.015  0.001  0.019  0.036
   20  0.003  0.001  0.022  0.027
   21  0.003  0.001  0.022  0.026
   22  0.003  0.000  0.067  0.069
   23  0.003  0.001  0.022  0.026
   24  0.003  0.000  0.065  0.068
   25  0.016  0.001  0.018  0.035
   26  0.015  0.001  0.019  0.036
   27  0.003  0.000  0.066  0.069
   28  0.003  0.001  0.006  0.010
   29  0.000  0.000  0.004  0.004
   30  0.000  0.000  0.004  0.004
   31  0.000  0.000  0.004  0.004
   32  0.000  0.000  0.003  0.004
   33  0.000  0.000  0.004  0.004
   34  0.000  0.000  0.003  0.004
   35  0.003  0.001  0.006  0.010
   36  0.000  0.000  0.000  0.000
   37  0.000  0.000  0.000  0.000
   38  0.000  0.000  0.000  0.000
   39  0.000  0.000  0.000  0.000
tot    0.136  0.018  0.645  0.798
 
band    11 # energy   -5.40757675 # occ.  2.00000000
 
ion      s      p      d    tot
    1  0.000  0.000  0.010  0.010
    2  0.001  0.000  0.003  0.004
    3  0.002  0.000  0.004  0.007
    4  0.001  0.000  0.003  0.004
    5  0.000  0.000  0.003  0.003
    6  0.000  0.000  0.003  0.003
    7  0.002  0.000  0.004  0.007
    8  0.000  0.000  0.003  0.003
    9  0.000  0.000  0.002  0.002
   10  0.000  0.001  0.043  0.044
   11  0.005  0.000  0.029  0.034
   12  0.016  0.001  0.021  0.038
   13  0.005  0.001  0.028  0.034
   14  0.000  0.001  0.013  0.015
   15  0.004  0.000  0.021  0.025
   16  0.017  0.001  0.020  0.038
   17  0.004  0.000  0.022  0.026
   18  0.000  0.000  0.056  0.056
   19  0.013  0.001  0.028  0.042
   20  0.000  0.000  0.104  0.104
   21  0.018  0.001  0.031  0.049
   22  0.000  0.000  0.032  0.033
   23  0.018  0.001  0.029  0.048
   24  0.000  0.001  0.050  0.051
   25  0.000  0.002  0.016  0.017
   26  0.013  0.001  0.028  0.041
   27  0.000  0.000  0.031  0.032
   28  0.000  0.000  0.004  0.004
   29  0.001  0.000  0.004  0.005
   30  0.000  0.000  0.002  0.002
   31  0.001  0.000  0.004  0.006
   32  0.001  0.001  0.005  0.006
   33  0.000  0.000  0.002  0.002
   34  0.001  0.001  0.005  0.006
   35  0.000  0.000  0.001  0.001
   36  0.000  0.000  0.001  0.001
   37  0.000  0.000  0.000  0.000
   38  0.000  0.000  0.000  0.000
   39  0.000  0.000  0.000  0.000
tot    0.122  0.017  0.666  0.805
 
band    12 # energy   -5.40757290 # occ.  2.00000000
 
ion      s      p      d    tot
    1  0.000  0.000  0.010  0.010
    2  0.001  0.000  0.004  0.005
    3  0.000  0.000  0.002  0.003
    4  0.001  0.000  0.004  0.005
    5  0.000  0.000  0.003  0.003
    6  0.002  0.000  0.004  0.006
    7  0.000  0.000  0.002  0.003
    8  0.002  0.000  0.004  0.006
    9  0.000  0.000  0.002  0.002
   10  0.023  0.001  0.013  0.036
   11  0.001  0.001  0.019  0.021
   12  0.006  0.001  0.035  0.042
   13  0.002  0.001  0.019  0.022
   14  0.007  0.000  0.033  0.040
   15  0.001  0.000  0.045  0.047
   16  0.005  0.001  0.036  0.042
   17  0.001  0.000  0.044  0.046
   18  0.005  0.001  0.010  0.015
   19  0.004  0.001  0.019  0.025
   20  0.023  0.001  0.005  0.030
   21  0.006  0.000  0.078  0.085
   22  0.000  0.001  0.043  0.044
   23  0.006  0.000  0.080  0.087
   24  0.000  0.000  0.026  0.027
   25  0.017  0.000  0.033  0.050
   26  0.005  0.001  0.020  0.026
   27  0.000  0.001  0.044  0.045
   28  0.000  0.000  0.004  0.004
   29  0.001  0.000  0.003  0.004
   30  0.001  0.001  0.005  0.007
   31  0.001  0.000  0.003  0.004
   32  0.000  0.000  0.003  0.003
   33  0.001  0.001  0.005  0.007
   34  0.000  0.000  0.003  0.003
   35  0.000  0.000  0.001  0.001
   36  0.000  0.000  0.001  0.001
   37  0.000  0.000  0.000  0.000
   38  0.000  0.000  0.000  0.000
   39  0.000  0.000  0.000  0.000
tot    0.122  0.017  0.667  0.805
 
band    13 # energy   -5.40588430 # occ.  2.00000000
 
ion      s      p      d    tot
    1  0.000  0.000  0.001  0.001
    2  0.000  0.000  0.003  0.003
    3  0.001  0.001  0.006  0.008
    4  0.000  0.000  0.003  0.003
    5  0.000  0.000  0.008  0.008
    6  0.001  0.000  0.004  0.005
    7  0.001  0.001  0.006  0.008
    8  0.001  0.000  0.003  0.004
    9  0.000  0.000  0.005  0.006
   10  0.000  0.000  0.027  0.027
   11  0.006  0.000  0.073  0.079
   12  0.000  0.001  0.048  0.049
   13  0.006  0.000  0.075  0.081
   14  0.024  0.001  0.005  0.030
   15  0.005  0.001  0.020  0.027
   16  0.000  0.001  0.047  0.048
   17  0.004  0.001  0.020  0.026
   18  0.019  0.000  0.033  0.052
   19  0.002  0.000  0.043  0.045
   20  0.004  0.000  0.034  0.038
   21  0.001  0.001  0.025  0.027
   22  0.005  0.001  0.031  0.037
   23  0.001  0.001  0.025  0.027
   24  0.020  0.001  0.014  0.035
   25  0.007  0.001  0.010  0.017
   26  0.002  0.000  0.044  0.046
   27  0.005  0.001  0.031  0.037
   28  0.000  0.000  0.003  0.003
   29  0.001  0.000  0.003  0.004
   30  0.000  0.000  0.002  0.002
   31  0.001  0.000  0.003  0.004
   32  0.001  0.000  0.003  0.004
   33  0.000  0.000  0.002  0.002
   34  0.001  0.000  0.003  0.004
   35  0.000  0.000  0.007  0.007
   36  0.000  0.000  0.000  0.000
   37  0.000  0.000  0.000  0.000
   38  0.000  0.000  0.000  0.000
   39  0.000  0.000  0.000  0.000
tot    0.119  0.016  0.671  0.806
 
band    14 # energy   -5.40587910 # occ.  2.00000000
 
ion      s      p      d    tot
    1  0.000  0.000  0.001  0.001
    2  0.001  0.001  0.005  0.007
    3  0.000  0.000  0.002  0.003
    4  0.001  0.001  0.005  0.007
    5  0.000  0.000  0.008  0.008
    6  0.001  0.000  0.005  0.006
    7  0.000  0.000  0.002  0.003
    8  0.001  0.000  0.005  0.006
    9  0.000  0.000  0.005  0.006
   10  0.000  0.001  0.055  0.056
   11  0.018  0.001  0.029  0.047
   12  0.000  0.000  0.034  0.034
   13  0.018  0.001  0.027  0.046
   14  0.000  0.000  0.096  0.096
   15  0.014  0.001  0.029  0.044
   16  0.000  0.000  0.034  0.035
   17  0.014  0.001  0.029  0.044
   18  0.000  0.002  0.015  0.017
   19  0.005  0.000  0.022  0.027
   20  0.000  0.001  0.022  0.024
   21  0.003  0.001  0.031  0.034
   22  0.015  0.001  0.020  0.036
   23  0.003  0.001  0.031  0.034
   24  0.000  0.001  0.036  0.037
   25  0.000  0.000  0.055  0.055
   26  0.005  0.000  0.021  0.026
   27  0.015  0.001  0.020  0.036
   28  0.000  0.000  0.003  0.003
   29  0.000  0.000  0.002  0.002
   30  0.001  0.000  0.003  0.005
   31  0.000  0.000  0.002  0.002
   32  0.000  0.000  0.002  0.003
   33  0.001  0.000  0.003  0.005
   34  0.000  0.000  0.002  0.003
   35  0.000  0.000  0.007  0.007
   36  0.000  0.000  0.000  0.000
   37  0.000  0.000  0.000  0.000
   38  0.000  0.000  0.000  0.000
   39  0.000  0.000  0.000  0.000
tot    0.118  0.016  0.671  0.806
 
band    15 # energy   -5.38831345 # occ.  2.00000000
 
ion      s      p      d    tot
    1  0.000  0.001  0.018  0.019
    2  0.000  0.000  0.009  0.009
    3  0.000  0.000  0.009  0.009
    4  0.000  0.000  0.009  0.009
    5  0.001  0.000  0.002  0.003
    6  0.000  0.000  0.009  0.009
    7  0.000  0.000  0.009  0.009
    8  0.000  0.000  0.009  0.009
    9  0.007  0.001  0.000  0.008
   10  0.005  0.000  0.056  0.061
   11  0.000  0.000  0.060  0.060
   12  0.005  0.000  0.056  0.061
   13  0.000  0.000  0.060  0.060
   14  0.000  0.000  0.060  0.060
   15  0.005  0.000  0.006  0.011
   16  0.005  0.000  0.056  0.061
   17  0.005  0.000  0.006  0.011
   18  0.005  0.000  0.006  0.011
   19  0.001  0.000  0.011  0.012
   20  0.001  0.000  0.042  0.043
   21  0.001  0.000  0.042  0.043
   22  0.002  0.000  0.033  0.034
   23  0.001  0.000  0.042  0.043
   24  0.002  0.000  0.033  0.034
   25  0.001  0.000  0.011  0.012
   26  0.001  0.000  0.011  0.012
   27  0.002  0.000  0.033  0.034
   28  0.008  0.001  0.001  0.009
   29  0.001  0.000  0.010  0.011
   30  0.001  0.000  0.010  0.011
   31  0.001  0.000  0.010  0.011
   32  0.001  0.000  0.010  0.011
   33  0.001  0.000  0.010  0.011
   34  0.001  0.000  0.010  0.011
   35  0.000  0.000  0.012  0.013
   36  0.001  0.000  0.000  0.001
   37  0.000  0.000  0.000  0.000
   38  0.000  0.000  0.000  0.000
   39  0.000  0.000  0.000  0.000
tot    0.066  0.007  0.766  0.839
 
band    16 # energy   -5.37028128 # occ.  2.00000000
 
ion      s      p      d    tot
    1  0.000  0.000  0.018  0.018
    2  0.003  0.000  0.006  0.009
    3  0.000  0.000  0.011  0.011
    4  0.003  0.000  0.006  0.009
    5  0.000  0.000  0.008  0.009
    6  0.002  0.001  0.007  0.010
    7  0.000  0.000  0.011  0.011
    8  0.002  0.001  0.007  0.010
    9  0.000  0.000  0.007  0.007
   10  0.000  0.000  0.057  0.057
   11  0.000  0.000  0.036  0.036
   12  0.007  0.000  0.037  0.045
   13  0.000  0.000  0.036  0.036
   14  0.000  0.000  0.017  0.017
   15  0.008  0.000  0.028  0.037
   16  0.007  0.000  0.037  0.045
   17  0.008  0.000  0.028  0.036
   18  0.000  0.000  0.094  0.094
   19  0.002  0.000  0.030  0.032
   20  0.000  0.000  0.064  0.064
   21  0.004  0.000  0.022  0.026
   22  0.001  0.000  0.026  0.027
   23  0.004  0.000  0.022  0.026
   24  0.000  0.000  0.020  0.020
   25  0.000  0.000  0.034  0.034
   26  0.002  0.000  0.030  0.032
   27  0.001  0.000  0.026  0.027
   28  0.000  0.000  0.011  0.011
   29  0.000  0.000  0.006  0.006
   30  0.002  0.000  0.004  0.006
   31  0.000  0.000  0.006  0.006
   32  0.001  0.000  0.005  0.006
   33  0.002  0.000  0.004  0.006
   34  0.001  0.000  0.005  0.006
   35  0.000  0.000  0.005  0.005
   36  0.000  0.000  0.001  0.001
   37  0.000  0.000  0.000  0.000
   38  0.000  0.000  0.000  0.000
   39  0.000  0.000  0.000  0.000
tot    0.062  0.008  0.771  0.841
 
band    17 # energy   -5.37025218 # occ.  2.00000000
 
ion      s      p      d    tot
    1  0.000  0.000  0.018  0.018
    2  0.001  0.000  0.010  0.011
    3  0.003  0.001  0.006  0.009
    4  0.001  0.000  0.010  0.011
    5  0.000  0.000  0.008  0.009
    6  0.001  0.000  0.009  0.010
    7  0.003  0.001  0.006  0.009
    8  0.001  0.000  0.009  0.010
    9  0.000  0.000  0.007  0.007
   10  0.009  0.000  0.031  0.041
   11  0.000  0.000  0.023  0.023
   12  0.002  0.000  0.050  0.053
   13  0.000  0.000  0.023  0.023
   14  0.000  0.000  0.043  0.043
   15  0.003  0.000  0.072  0.075
   16  0.002  0.000  0.050  0.053
   17  0.003  0.000  0.072  0.075
   18  0.011  0.000  0.006  0.017
   19  0.001  0.000  0.033  0.033
   20  0.006  0.000  0.008  0.014
   21  0.001  0.000  0.050  0.051
   22  0.000  0.000  0.022  0.022
   23  0.001  0.000  0.050  0.051
   24  0.001  0.000  0.028  0.030
   25  0.002  0.000  0.029  0.031
   26  0.001  0.000  0.033  0.033
   27  0.000  0.000  0.022  0.022
   28  0.000  0.000  0.011  0.011
   29  0.002  0.000  0.004  0.006
   30  0.000  0.000  0.006  0.006
   31  0.002  0.000  0.004  0.006
   32  0.001  0.000  0.005  0.006
   33  0.000  0.000  0.006  0.006
   34  0.001  0.000  0.005  0.006
   35  0.000  0.000  0.005  0.005
   36  0.000  0.000  0.001  0.001
   37  0.000  0.000  0.000  0.000
   38  0.000  0.000  0.000  0.000
   39  0.000  0.000  0.000  0.000
tot    0.062  0.008  0.771  0.841
 
band    18 # energy   -5.36483644 # occ.  2.00000000
 
ion      s      p      d    tot
    1  0.003  0.000  0.000  0.004
    2  0.000  0.000  0.011  0.012
    3  0.000  0.000  0.011  0.012
    4  0.000  0.000  0.011  0.012
    5  0.004  0.001  0.000  0.005
    6  0.000  0.000  0.011  0.012
    7  0.000  0.000  0.011  0.012
    8  0.000  0.000  0.011  0.012
    9  0.002  0.000  0.015  0.017
   10  0.002  0.000  0.033  0.035
   11  0.002  0.000  0.008  0.011
   12  0.002  0.000  0.033  0.035
   13  0.002  0.000  0.008  0.011
   14  0.002  0.000  0.008  0.011
   15  0.001  0.000  0.060  0.061
   16  0.002  0.000  0.033  0.035
   17  0.001  0.000  0.060  0.061
   18  0.001  0.000  0.060  0.061
   19  0.000  0.000  0.055  0.056
   20  0.005  0.000  0.023  0.028
   21  0.005  0.000  0.023  0.029
   22  0.001  0.000  0.030  0.031
   23  0.005  0.000  0.023  0.029
   24  0.001  0.000  0.030  0.031
   25  0.000  0.000  0.055  0.055
   26  0.000  0.000  0.055  0.056
   27  0.001  0.000  0.030  0.031
   28  0.000  0.000  0.003  0.004
   29  0.001  0.000  0.008  0.009
   30  0.001  0.000  0.008  0.009
   31  0.001  0.000  0.008  0.009
   32  0.001  0.000  0.008  0.009
   33  0.001  0.000  0.008  0.009
   34  0.001  0.000  0.008  0.009
   35  0.008  0.000  0.005  0.012
   36  0.000  0.002  0.000  0.002
   37  0.000  0.000  0.000  0.001
   38  0.000  0.000  0.000  0.000
   39  0.000  0.000  0.000  0.000
tot    0.062  0.008  0.770  0.841
 
band    19 # energy   -5.35268643 # occ.  2.00000000
 
ion      s      p      d    tot
    1  0.000  0.000  0.006  0.006
    2  0.004  0.000  0.007  0.011
    3  0.000  0.000  0.010  0.011
    4  0.004  0.000  0.007  0.011
    5  0.000  0.000  0.012  0.012
    6  0.002  0.000  0.008  0.010
    7  0.000  0.000  0.010  0.011
    8  0.002  0.000  0.008  0.010
    9  0.000  0.000  0.021  0.021
   10  0.004  0.000  0.021  0.026
   11  0.002  0.000  0.049  0.051
   12  0.001  0.000  0.032  0.033
   13  0.002  0.000  0.048  0.050
   14  0.007  0.000  0.011  0.018
   15  0.000  0.000  0.027  0.027
   16  0.001  0.000  0.032  0.033
   17  0.000  0.000  0.027  0.028
   18  0.000  0.000  0.044  0.044
   19  0.002  0.000  0.060  0.061
   20  0.001  0.000  0.047  0.048
   21  0.000  0.000  0.021  0.021
   22  0.003  0.000  0.059  0.063
   23  0.000  0.000  0.020  0.020
   24  0.012  0.000  0.019  0.031
   25  0.007  0.000  0.009  0.016
   26  0.002  0.000  0.058  0.060
   27  0.003  0.000  0.061  0.064
   28  0.000  0.000  0.003  0.004
   29  0.000  0.000  0.007  0.007
   30  0.001  0.000  0.002  0.003
   31  0.000  0.000  0.007  0.007
   32  0.001  0.001  0.007  0.008
   33  0.001  0.000  0.002  0.003
   34  0.001  0.001  0.007  0.008
   35  0.000  0.000  0.008  0.008
   36  0.000  0.000  0.001  0.001
   37  0.000  0.000  0.000  0.000
   38  0.000  0.000  0.000  0.000
   39  0.000  0.000  0.000  0.000
tot    0.061  0.008  0.774  0.843
 
band    20 # energy   -5.35265772 # occ.  2.00000000
 
ion      s      p      d    tot
    1  0.000  0.000  0.006  0.006
    2  0.000  0.000  0.010  0.010
    3  0.003  0.001  0.006  0.010
    4  0.000  0.000  0.010  0.010
    5  0.000  0.000  0.012  0.012
    6  0.002  0.000  0.009  0.011
    7  0.003  0.001  0.006  0.010
    8  0.002  0.000  0.009  0.011
    9  0.000  0.000  0.021  0.021
   10  0.000  0.000  0.035  0.035
   11  0.005  0.000  0.023  0.028
   12  0.003  0.000  0.025  0.028
   13  0.005  0.000  0.024  0.029
   14  0.000  0.000  0.061  0.061
   15  0.000  0.000  0.039  0.039
   16  0.003  0.000  0.024  0.028
   17  0.000  0.000  0.038  0.038
   18  0.000  0.000  0.021  0.022
   19  0.005  0.000  0.025  0.030
   20  0.000  0.000  0.011  0.012
   21  0.000  0.000  0.038  0.038
   22  0.009  0.000  0.033  0.042
   23  0.000  0.000  0.039  0.039
   24  0.000  0.000  0.074  0.074
   25  0.000  0.000  0.075  0.076
   26  0.005  0.000  0.027  0.032
   27  0.009  0.000  0.032  0.041
   28  0.000  0.000  0.003  0.004
   29  0.002  0.001  0.003  0.005
   30  0.000  0.000  0.008  0.009
   31  0.002  0.001  0.003  0.005
   32  0.001  0.000  0.003  0.004
   33  0.000  0.000  0.008  0.009
   34  0.001  0.000  0.003  0.004
   35  0.000  0.000  0.008  0.008
   36  0.000  0.000  0.001  0.001
   37  0.000  0.000  0.000  0.000
   38  0.000  0.000  0.000  0.000
   39  0.000  0.000  0.000  0.000