PROCAR new format
# of k-points:   10         # of bands:  252         # of ions:   37

 k-point     1 :    0.00000000 0.00000000 0.00000000     weight = 0.01562500

band     1 # energy   -8.12878605 # occ.  2.00000000
 
ion      s      p      d    tot
    1  0.007  0.001  0.000  0.008
    2  0.007  0.001  0.000  0.007
    3  0.007  0.001  0.000  0.007
    4  0.007  0.001  0.000  0.007
    5  0.007  0.001  0.000  0.007
    6  0.007  0.001  0.000  0.007
    7  0.007  0.001  0.000  0.007
    8  0.007  0.001  0.000  0.007
    9  0.007  0.001  0.000  0.007
   10  0.027  0.000  0.000  0.028
   11  0.027  0.000  0.000  0.028
   12  0.027  0.000  0.000  0.028
   13  0.027  0.000  0.000  0.028
   14  0.027  0.000  0.000  0.028
   15  0.027  0.000  0.000  0.028
   16  0.027  0.000  0.000  0.028
   17  0.027  0.000  0.000  0.028
   18  0.027  0.000  0.000  0.028
   19  0.024  0.000  0.000  0.024
   20  0.024  0.000  0.000  0.025
   21  0.024  0.000  0.000  0.025
   22  0.024  0.000  0.000  0.025
   23  0.024  0.000  0.000  0.025
   24  0.024  0.000  0.000  0.024
   25  0.024  0.000  0.000  0.024
   26  0.024  0.000  0.000  0.024
   27  0.024  0.000  0.000  0.025
   28  0.005  0.000  0.000  0.005
   29  0.004  0.000  0.000  0.005
   30  0.004  0.000  0.000  0.005
   31  0.004  0.000  0.000  0.005
   32  0.004  0.000  0.000  0.005
   33  0.004  0.000  0.000  0.005
   34  0.004  0.000  0.000  0.005
   35  0.005  0.000  0.000  0.005
   36  0.004  0.000  0.000  0.004
   37  0.000  0.000  0.000  0.000
tot    0.565  0.012  0.004  0.581
 
band     2 # energy   -6.93794641 # occ.  2.00000000
 
ion      s      p      d    tot
    1  0.017  0.000  0.001  0.019
    2  0.017  0.000  0.001  0.018
    3  0.017  0.000  0.001  0.018
    4  0.017  0.000  0.001  0.018
    5  0.017  0.000  0.001  0.018
    6  0.017  0.000  0.001  0.018
    7  0.017  0.000  0.001  0.018
    8  0.017  0.000  0.001  0.018
    9  0.017  0.000  0.001  0.018
   10  0.010  0.002  0.003  0.014
   11  0.010  0.002  0.003  0.014
   12  0.010  0.002  0.003  0.014
   13  0.010  0.002  0.003  0.014
   14  0.010  0.002  0.003  0.014
   15  0.009  0.002  0.003  0.013
   16  0.010  0.002  0.003  0.014
   17  0.009  0.002  0.003  0.013
   18  0.009  0.002  0.003  0.013
   19  0.016  0.001  0.004  0.021
   20  0.014  0.001  0.004  0.019
   21  0.014  0.001  0.004  0.019
   22  0.016  0.001  0.004  0.021
   23  0.014  0.001  0.004  0.019
   24  0.016  0.001  0.004  0.021
   25  0.016  0.001  0.004  0.021
   26  0.016  0.001  0.004  0.021
   27  0.016  0.001  0.004  0.021
   28  0.015  0.001  0.000  0.016
   29  0.013  0.001  0.000  0.014
   30  0.013  0.001  0.000  0.014
   31  0.013  0.001  0.000  0.014
   32  0.013  0.001  0.000  0.014
   33  0.013  0.001  0.000  0.014
   34  0.013  0.001  0.000  0.014
   35  0.015  0.001  0.000  0.016
   36  0.009  0.000  0.000  0.009
   37  0.001  0.000  0.000  0.001
tot    0.494  0.032  0.072  0.598
 
band     3 # energy   -6.01340907 # occ.  2.00000000
 
ion      s      p      d    tot
    1  0.017  0.000  0.023  0.039
    2  0.020  0.000  0.020  0.040
    3  0.020  0.000  0.020  0.040
    4  0.020  0.000  0.020  0.040
    5  0.016  0.000  0.020  0.036
    6  0.020  0.000  0.020  0.040
    7  0.020  0.000  0.020  0.040
    8  0.020  0.000  0.020  0.040
    9  0.029  0.000  0.017  0.047
   10  0.010  0.001  0.023  0.034
   11  0.013  0.001  0.021  0.035
   12  0.010  0.001  0.023  0.034
   13  0.013  0.001  0.021  0.035
   14  0.013  0.001  0.021  0.035
   15  0.002  0.001  0.026  0.029
   16  0.010  0.001  0.023  0.034
   17  0.002  0.001  0.026  0.029
   18  0.002  0.001  0.026  0.029
   19  0.000  0.001  0.003  0.004
   20  0.001  0.001  0.004  0.005
   21  0.001  0.001  0.004  0.005
   22  0.001  0.001  0.002  0.003
   23  0.001  0.001  0.004  0.005
   24  0.001  0.001  0.002  0.003
   25  0.000  0.001  0.003  0.004
   26  0.000  0.001  0.003  0.004
   27  0.001  0.001  0.002  0.003
   28  0.003  0.000  0.000  0.003
   29  0.002  0.000  0.001  0.003
   30  0.002  0.000  0.001  0.003
   31  0.002  0.000  0.001  0.003
   32  0.002  0.000  0.001  0.003
   33  0.002  0.000  0.001  0.003
   34  0.002  0.000  0.001  0.003
   35  0.003  0.000  0.000  0.004
   36  0.000  0.000  0.000  0.000
   37  0.000  0.000  0.000  0.000
tot    0.287  0.013  0.418  0.718
 
band     4 # energy   -5.97935466 # occ.  2.00000000
 
ion      s      p      d    tot
    1  0.018  0.002  0.000  0.020
    2  0.000  0.001  0.006  0.007
    3  0.000  0.001  0.006  0.007
    4  0.000  0.001  0.006  0.007
    5  0.000  0.000  0.003  0.003
    6  0.000  0.001  0.006  0.007
    7  0.000  0.001  0.006  0.007
    8  0.000  0.001  0.006  0.007
    9  0.006  0.001  0.002  0.009
   10  0.016  0.001  0.026  0.043
   11  0.000  0.001  0.023  0.024
   12  0.016  0.001  0.026  0.043
   13  0.000  0.001  0.023  0.024
   14  0.000  0.001  0.023  0.024
   15  0.029  0.003  0.002  0.033
   16  0.016  0.001  0.026  0.043
   17  0.029  0.003  0.002  0.033
   18  0.029  0.003  0.002  0.034
   19  0.007  0.002  0.014  0.023
   20  0.013  0.000  0.025  0.037
   21  0.013  0.000  0.024  0.037
   22  0.020  0.002  0.009  0.032
   23  0.013  0.000  0.024  0.037
   24  0.020  0.002  0.009  0.031
   25  0.007  0.002  0.014  0.023
   26  0.007  0.002  0.014  0.023
   27  0.020  0.002  0.009  0.032
   28  0.000  0.000  0.000  0.000
   29  0.000  0.000  0.004  0.005
   30  0.000  0.000  0.004  0.005
   31  0.000  0.000  0.004  0.005
   32  0.000  0.000  0.004  0.005
   33  0.000  0.000  0.004  0.005
   34  0.000  0.000  0.004  0.005
   35  0.012  0.001  0.000  0.014
   36  0.003  0.001  0.005  0.009
   37  0.001  0.000  0.000  0.001
tot    0.298  0.039  0.364  0.701
 
band     5 # energy   -5.97044579 # occ.  2.00000000
 
ion      s      p      d    tot
    1  0.000  0.001  0.010  0.010
    2  0.003  0.001  0.004  0.008
    3  0.008  0.001  0.004  0.012
    4  0.004  0.001  0.004  0.008
    5  0.000  0.001  0.007  0.008
    6  0.001  0.000  0.003  0.004
    7  0.008  0.001  0.004  0.013
    8  0.001  0.000  0.003  0.004
    9  0.000  0.000  0.002  0.002
   10  0.000  0.000  0.044  0.044
   11  0.038  0.001  0.015  0.054
   12  0.034  0.002  0.013  0.048
   13  0.040  0.001  0.015  0.056
   14  0.000  0.004  0.020  0.024
   15  0.000  0.001  0.012  0.013
   16  0.032  0.002  0.014  0.048
   17  0.000  0.001  0.012  0.013
   18  0.000  0.003  0.007  0.011
   19  0.010  0.001  0.011  0.023
   20  0.000  0.002  0.034  0.035
   21  0.042  0.002  0.013  0.056
   22  0.010  0.001  0.010  0.021
   23  0.040  0.002  0.014  0.056
   24  0.000  0.001  0.024  0.024
   25  0.000  0.004  0.004  0.009
   26  0.010  0.001  0.012  0.023
   27  0.009  0.001  0.011  0.021
   28  0.000  0.000  0.001  0.002
   29  0.000  0.000  0.002  0.003
   30  0.003  0.001  0.002  0.006
   31  0.000  0.000  0.002  0.002
   32  0.004  0.001  0.003  0.008
   33  0.003  0.001  0.002  0.006
   34  0.004  0.001  0.003  0.008
   35  0.000  0.000  0.003  0.003
   36  0.000  0.001  0.004  0.006
   37  0.000  0.000  0.000  0.000
tot    0.305  0.043  0.346  0.694
 
band     6 # energy   -5.97043780 # occ.  2.00000000
 
ion      s      p      d    tot
    1  0.000  0.001  0.010  0.010
    2  0.005  0.001  0.003  0.009
    3  0.000  0.000  0.004  0.004
    4  0.004  0.001  0.003  0.008
    5  0.000  0.001  0.007  0.008
    6  0.007  0.001  0.004  0.012
    7  0.000  0.000  0.003  0.004
    8  0.007  0.001  0.004  0.012
    9  0.000  0.000  0.002  0.002
   10  0.044  0.002  0.004  0.050
   11  0.014  0.003  0.018  0.035
   12  0.011  0.000  0.035  0.046
   13  0.012  0.003  0.019  0.034
   14  0.051  0.001  0.013  0.065
   15  0.000  0.003  0.009  0.012
   16  0.012  0.001  0.033  0.046
   17  0.000  0.003  0.009  0.012
   18  0.000  0.000  0.014  0.014
   19  0.004  0.003  0.007  0.014
   20  0.055  0.002  0.006  0.063
   21  0.013  0.002  0.027  0.042
   22  0.003  0.001  0.019  0.023
   23  0.014  0.002  0.026  0.043
   24  0.013  0.001  0.006  0.020
   25  0.014  0.000  0.014  0.028
   26  0.003  0.003  0.007  0.013
   27  0.003  0.001  0.019  0.023
   28  0.000  0.000  0.001  0.002
   29  0.005  0.001  0.003  0.008
   30  0.002  0.001  0.003  0.005
   31  0.005  0.001  0.003  0.008
   32  0.001  0.000  0.002  0.003
   33  0.002  0.001  0.003  0.005
   34  0.001  0.000  0.002  0.003
   35  0.000  0.000  0.003  0.003
   36  0.000  0.001  0.004  0.006
   37  0.000  0.000  0.000  0.000
tot    0.305  0.043  0.346  0.694
 
band     7 # energy   -5.96012289 # occ.  2.00000000
 
ion      s      p      d    tot
    1  0.000  0.001  0.003  0.003
    2  0.004  0.001  0.004  0.008
    3  0.008  0.001  0.004  0.013
    4  0.004  0.001  0.004  0.009
    5  0.000  0.000  0.005  0.005
    6  0.001  0.000  0.003  0.004
    7  0.008  0.001  0.004  0.013
    8  0.001  0.000  0.003  0.004
    9  0.000  0.001  0.011  0.012
   10  0.021  0.000  0.017  0.038
   11  0.003  0.001  0.022  0.027
   12  0.005  0.004  0.006  0.014
   13  0.003  0.001  0.023  0.027
   14  0.012  0.001  0.007  0.020
   15  0.018  0.001  0.031  0.050
   16  0.005  0.003  0.007  0.016
   17  0.015  0.001  0.033  0.049
   18  0.063  0.002  0.006  0.071
   19  0.010  0.001  0.028  0.039
   20  0.000  0.001  0.012  0.013
   21  0.000  0.002  0.009  0.011
   22  0.009  0.003  0.017  0.029
   23  0.000  0.002  0.009  0.011
   24  0.040  0.001  0.012  0.053
   25  0.038  0.002  0.003  0.043
   26  0.009  0.001  0.029  0.038
   27  0.011  0.003  0.016  0.030
   28  0.000  0.000  0.006  0.007
   29  0.000  0.000  0.002  0.003
   30  0.003  0.001  0.002  0.005
   31  0.000  0.000  0.002  0.003
   32  0.005  0.001  0.003  0.008
   33  0.002  0.001  0.002  0.005
   34  0.005  0.001  0.003  0.008
   35  0.000  0.001  0.004  0.005
   36  0.000  0.000  0.000  0.000
   37  0.000  0.000  0.000  0.000
tot    0.301  0.042  0.351  0.694
 
band     8 # energy   -5.96011020 # occ.  2.00000000
 
ion      s      p      d    tot
    1  0.000  0.001  0.003  0.003
    2  0.005  0.001  0.003  0.009
    3  0.000  0.000  0.004  0.004
    4  0.004  0.001  0.003  0.008
    5  0.000  0.000  0.005  0.005
    6  0.007  0.001  0.004  0.013
    7  0.000  0.000  0.004  0.004
    8  0.008  0.001  0.004  0.013
    9  0.000  0.001  0.011  0.012
   10  0.000  0.005  0.003  0.008
   11  0.008  0.001  0.012  0.022
   12  0.016  0.001  0.014  0.031
   13  0.009  0.001  0.012  0.022
   14  0.000  0.001  0.028  0.029
   15  0.046  0.001  0.016  0.063
   16  0.015  0.001  0.013  0.030
   17  0.049  0.002  0.014  0.065
   18  0.000  0.001  0.041  0.042
   19  0.028  0.002  0.012  0.042
   20  0.000  0.003  0.008  0.010
   21  0.000  0.001  0.011  0.012
   22  0.031  0.001  0.013  0.045
   23  0.000  0.001  0.011  0.012
   24  0.000  0.004  0.018  0.022
   25  0.000  0.000  0.037  0.037
   26  0.030  0.002  0.011  0.042
   27  0.029  0.001  0.013  0.044
   28  0.000  0.000  0.006  0.007
   29  0.005  0.001  0.002  0.008
   30  0.002  0.001  0.003  0.005
   31  0.005  0.001  0.002  0.008
   32  0.000  0.000  0.002  0.002
   33  0.002  0.001  0.003  0.006
   34  0.000  0.000  0.002  0.002
   35  0.000  0.001  0.004  0.005
   36  0.000  0.000  0.000  0.000
   37  0.000  0.000  0.000  0.000
tot    0.301  0.042  0.351  0.694
 
band     9 # energy   -5.95845589 # occ.  2.00000000
 
ion      s      p      d    tot
    1  0.002  0.000  0.000  0.002
    2  0.000  0.001  0.006  0.007
    3  0.000  0.001  0.006  0.007
    4  0.000  0.001  0.006  0.007
    5  0.020  0.002  0.000  0.023
    6  0.000  0.001  0.006  0.007
    7  0.000  0.001  0.006  0.007
    8  0.000  0.001  0.006  0.007
    9  0.003  0.001  0.004  0.007
   10  0.013  0.003  0.009  0.024
   11  0.025  0.002  0.013  0.041
   12  0.013  0.003  0.009  0.025
   13  0.025  0.002  0.013  0.041
   14  0.026  0.002  0.013  0.042
   15  0.008  0.000  0.030  0.038
   16  0.013  0.003  0.009  0.025
   17  0.008  0.000  0.030  0.038
   18  0.009  0.000  0.030  0.039
   19  0.017  0.001  0.017  0.034
   20  0.018  0.003  0.005  0.026
   21  0.019  0.003  0.005  0.027
   22  0.002  0.001  0.024  0.026
   23  0.019  0.003  0.005  0.027
   24  0.002  0.001  0.024  0.026
   25  0.017  0.001  0.017  0.035
   26  0.017  0.001  0.017  0.034
   27  0.002  0.001  0.024  0.026
   28  0.013  0.001  0.000  0.014
   29  0.000  0.000  0.004  0.004
   30  0.000  0.000  0.004  0.005
   31  0.000  0.000  0.004  0.004
   32  0.000  0.000  0.004  0.004
   33  0.000  0.000  0.004  0.005
   34  0.000  0.000  0.004  0.004
   35  0.000  0.000  0.003  0.003
   36  0.002  0.001  0.001  0.003
   37  0.000  0.000  0.000  0.000
tot    0.297  0.040  0.362  0.699
 
band    10 # energy   -5.82447252 # occ.  2.00000000
 
ion      s      p      d    tot
    1  0.001  0.000  0.000  0.001
    2  0.000  0.000  0.001  0.001
    3  0.000  0.000  0.001  0.001
    4  0.000  0.000  0.001  0.001
    5  0.002  0.000  0.000  0.003
    6  0.000  0.000  0.001  0.001
    7  0.000  0.000  0.001  0.001
    8  0.000  0.000  0.001  0.001
    9  0.000  0.000  0.001  0.001
   10  0.000  0.000  0.005  0.005
   11  0.002  0.000  0.002  0.004
   12  0.000  0.000  0.005  0.005
   13  0.002  0.000  0.002  0.004
   14  0.002  0.000  0.002  0.004
   15  0.002  0.000  0.005  0.008
   16  0.000  0.000  0.005  0.005
   17  0.002  0.000  0.005  0.008
   18  0.002  0.000  0.005  0.008
   19  0.005  0.001  0.021  0.027
   20  0.002  0.000  0.025  0.027
   21  0.002  0.000  0.025  0.027
   22  0.009  0.001  0.025  0.035
   23  0.002  0.000  0.025  0.027
   24  0.009  0.001  0.025  0.035
   25  0.005  0.001  0.021  0.027
   26  0.005  0.001  0.021  0.027
   27  0.009  0.001  0.025  0.035
   28  0.028  0.000  0.024  0.052
   29  0.024  0.000  0.020  0.044
   30  0.024  0.000  0.020  0.044
   31  0.024  0.000  0.020  0.044
   32  0.024  0.000  0.020  0.044
   33  0.024  0.000  0.020  0.044
   34  0.024  0.000  0.020  0.044
   35  0.029  0.000  0.022  0.051
   36  0.011  0.000  0.005  0.016
   37  0.000  0.000  0.000  0.000
tot    0.283  0.013  0.421  0.717
 
band    11 # energy   -5.48979742 # occ.  2.00000000
 
ion      s      p      d    tot
    1  0.011  0.002  0.002  0.015
    2  0.000  0.001  0.008  0.009
    3  0.000  0.001  0.008  0.009
    4  0.000  0.001  0.008  0.009
    5  0.001  0.000  0.001  0.003
    6  0.000  0.001  0.008  0.009
    7  0.000  0.001  0.008  0.009
    8  0.000  0.001  0.008  0.009
    9  0.019  0.002  0.000  0.020
   10  0.009  0.001  0.015  0.026
   11  0.002  0.000  0.044  0.046
   12  0.009  0.001  0.015  0.026
   13  0.002  0.000  0.044  0.046
   14  0.002  0.000  0.044  0.045
   15  0.004  0.001  0.022  0.027
   16  0.009  0.001  0.015  0.026
   17  0.004  0.001  0.022  0.027
   18  0.004  0.001  0.022  0.027
   19  0.003  0.001  0.018  0.022
   20  0.003  0.000  0.045  0.048
   21  0.003  0.000  0.045  0.048
   22  0.013  0.001  0.014  0.028
   23  0.003  0.000  0.045  0.048
   24  0.013  0.001  0.014  0.028
   25  0.003  0.001  0.018  0.022
   26  0.003  0.001  0.018  0.022
   27  0.013  0.001  0.014  0.028
   28  0.010  0.001  0.000  0.012
   29  0.000  0.001  0.006  0.006
   30  0.000  0.001  0.006  0.006
   31  0.000  0.001  0.006  0.006
   32  0.000  0.001  0.006  0.006
   33  0.000  0.001  0.006  0.006
   34  0.000  0.001  0.006  0.006
   35  0.012  0.002  0.002  0.016
   36  0.000  0.000  0.002  0.002
   37  0.000  0.000  0.000  0.000
tot    0.155  0.030  0.565  0.750
 
band    12 # energy   -5.47866968 # occ.  2.00000000
 
ion      s      p      d    tot
    1  0.000  0.001  0.005  0.006
    2  0.009  0.001  0.004  0.015
    3  0.004  0.001  0.004  0.009
    4  0.009  0.001  0.004  0.015
    5  0.000  0.001  0.013  0.014
    6  0.001  0.001  0.005  0.007
    7  0.004  0.001  0.004  0.009
    8  0.001  0.001  0.005  0.007
    9  0.000  0.000  0.006  0.006
   10  0.013  0.002  0.006  0.022
   11  0.003  0.000  0.033  0.037
   12  0.003  0.001  0.049  0.053
   13  0.003  0.000  0.033  0.037
   14  0.014  0.001  0.017  0.031
   15  0.000  0.001  0.016  0.017
   16  0.003  0.001  0.048  0.052
   17  0.000  0.001  0.016  0.017
   18  0.000  0.001  0.022  0.023
   19  0.005  0.001  0.023  0.028
   20  0.022  0.001  0.005  0.028
   21  0.005  0.000  0.054  0.059
   22  0.000  0.001  0.022  0.023
   23  0.005  0.001  0.053  0.059
   24  0.000  0.000  0.018  0.018
   25  0.018  0.000  0.021  0.039
   26  0.004  0.001  0.023  0.028
   27  0.000  0.001  0.022  0.023
   28  0.000  0.001  0.009  0.010
   29  0.008  0.001  0.004  0.013
   30  0.001  0.001  0.004  0.006
   31  0.008  0.001  0.004  0.013
   32  0.003  0.000  0.003  0.006
   33  0.001  0.001  0.004  0.006
   34  0.003  0.000  0.003  0.006
   35  0.000  0.000  0.004  0.004
   36  0.000  0.002  0.003  0.004
   37  0.000  0.000  0.000  0.000
tot    0.152  0.030  0.570  0.752
 
band    13 # energy   -5.47865440 # occ.  2.00000000
 
ion      s      p      d    tot
    1  0.000  0.001  0.005  0.006
    2  0.000  0.000  0.005  0.006
    3  0.006  0.001  0.005  0.012
    4  0.000  0.000  0.005  0.006
    5  0.000  0.001  0.013  0.014
    6  0.008  0.001  0.004  0.014
    7  0.006  0.001  0.005  0.012
    8  0.008  0.001  0.004  0.013
    9  0.000  0.000  0.006  0.006
   10  0.000  0.000  0.062  0.063
   11  0.010  0.001  0.023  0.033
   12  0.010  0.002  0.020  0.032
   13  0.010  0.001  0.022  0.033
   14  0.000  0.000  0.039  0.039
   15  0.000  0.001  0.020  0.021
   16  0.010  0.002  0.021  0.032
   17  0.000  0.001  0.020  0.021
   18  0.000  0.001  0.014  0.015
   19  0.013  0.000  0.021  0.035
   20  0.000  0.000  0.069  0.070
   21  0.016  0.001  0.021  0.038
   22  0.000  0.001  0.019  0.020
   23  0.016  0.001  0.021  0.038
   24  0.000  0.002  0.023  0.025
   25  0.000  0.001  0.024  0.025
   26  0.014  0.000  0.021  0.036
   27  0.000  0.001  0.019  0.020
   28  0.000  0.001  0.009  0.010
   29  0.000  0.000  0.004  0.004
   30  0.007  0.001  0.003  0.011
   31  0.000  0.000  0.004  0.004
   32  0.005  0.001  0.004  0.010
   33  0.007  0.001  0.003  0.011
   34  0.005  0.001  0.004  0.010
   35  0.000  0.000  0.004  0.004
   36  0.000  0.002  0.003  0.004
   37  0.000  0.000  0.000  0.000
tot    0.152  0.030  0.570  0.752
 
band    14 # energy   -5.46983290 # occ.  2.00000000
 
ion      s      p      d    tot
    1  0.000  0.000  0.013  0.013
    2  0.010  0.001  0.005  0.016
    3  0.004  0.001  0.005  0.010
    4  0.010  0.001  0.005  0.016
    5  0.000  0.001  0.004  0.004
    6  0.001  0.001  0.006  0.007
    7  0.005  0.001  0.005  0.010
    8  0.001  0.001  0.006  0.007
    9  0.000  0.001  0.011  0.012
   10  0.000  0.001  0.016  0.017
   11  0.004  0.002  0.019  0.024
   12  0.003  0.000  0.022  0.026
   13  0.004  0.002  0.019  0.024
   14  0.000  0.001  0.036  0.037
   15  0.013  0.001  0.022  0.037
   16  0.003  0.000  0.022  0.026
   17  0.013  0.001  0.022  0.037
   18  0.000  0.000  0.063  0.063
   19  0.007  0.001  0.019  0.027
   20  0.000  0.001  0.010  0.011
   21  0.003  0.000  0.021  0.024
   22  0.020  0.001  0.021  0.042
   23  0.003  0.000  0.020  0.024
   24  0.000  0.000  0.052  0.052
   25  0.000  0.001  0.054  0.055
   26  0.007  0.001  0.019  0.027
   27  0.020  0.001  0.021  0.042
   28  0.000  0.000  0.003  0.004
   29  0.007  0.001  0.003  0.011
   30  0.001  0.001  0.004  0.006
   31  0.007  0.001  0.003  0.011
   32  0.002  0.000  0.002  0.005
   33  0.001  0.001  0.004  0.006
   34  0.002  0.000  0.002  0.005
   35  0.000  0.001  0.008  0.009
   36  0.000  0.000  0.002  0.002
   37  0.000  0.000  0.000  0.000
tot    0.152  0.029  0.570  0.751
 
band    15 # energy   -5.46980956 # occ.  2.00000000
 
ion      s      p      d    tot
    1  0.000  0.000  0.013  0.013
    2  0.000  0.000  0.005  0.006
    3  0.006  0.001  0.005  0.012
    4  0.000  0.000  0.005  0.006
    5  0.000  0.000  0.004  0.004
    6  0.009  0.001  0.004  0.015
    7  0.006  0.001  0.005  0.012
    8  0.009  0.001  0.004  0.015
    9  0.000  0.001  0.011  0.012
   10  0.004  0.000  0.024  0.029
   11  0.001  0.001  0.030  0.033
   12  0.001  0.001  0.018  0.020
   13  0.001  0.001  0.031  0.033
   14  0.005  0.002  0.013  0.020
   15  0.004  0.000  0.049  0.054
   16  0.001  0.001  0.018  0.020
   17  0.004  0.000  0.049  0.054
   18  0.018  0.002  0.009  0.028
   19  0.002  0.001  0.043  0.046
   20  0.004  0.000  0.024  0.028
   21  0.001  0.001  0.013  0.016
   22  0.007  0.000  0.042  0.049
   23  0.001  0.001  0.013  0.016
   24  0.027  0.001  0.011  0.039
   25  0.009  0.001  0.007  0.018
   26  0.002  0.001  0.043  0.046
   27  0.007  0.000  0.042  0.049
   28  0.000  0.000  0.003  0.004
   29  0.000  0.000  0.003  0.003
   30  0.005  0.001  0.002  0.009
   31  0.000  0.000  0.003  0.003
   32  0.005  0.001  0.004  0.010
   33  0.005  0.001  0.002  0.009
   34  0.005  0.001  0.004  0.010
   35  0.000  0.001  0.008  0.009
   36  0.000  0.000  0.002  0.002
   37  0.000  0.000  0.000  0.000
tot    0.152  0.029  0.570  0.751
 
band    16 # energy   -5.45331655 # occ.  2.00000000
 
ion      s      p      d    tot
    1  0.013  0.001  0.000  0.014
    2  0.000  0.001  0.009  0.010
    3  0.000  0.001  0.009  0.010
    4  0.000  0.001  0.009  0.010
    5  0.016  0.002  0.001  0.019
    6  0.000  0.001  0.009  0.010
    7  0.000  0.001  0.009  0.010
    8  0.000  0.001  0.009  0.010
    9  0.000  0.000  0.002  0.003
   10  0.000  0.001  0.042  0.042
   11  0.007  0.002  0.009  0.017
   12  0.000  0.001  0.042  0.042
   13  0.007  0.002  0.009  0.017
   14  0.007  0.002  0.009  0.017
   15  0.004  0.001  0.031  0.036
   16  0.000  0.001  0.042  0.042
   17  0.004  0.001  0.031  0.036
   18  0.004  0.001  0.031  0.036
   19  0.011  0.001  0.041  0.053
   20  0.009  0.001  0.006  0.017
   21  0.010  0.001  0.006  0.017
   22  0.000  0.000  0.039  0.039
   23  0.010  0.001  0.006  0.017
   24  0.000  0.000  0.039  0.040
   25  0.011  0.001  0.041  0.053
   26  0.011  0.001  0.041  0.053
   27  0.000  0.000  0.039  0.039
   28  0.001  0.001  0.007  0.009
   29  0.000  0.000  0.004  0.005
   30  0.000  0.000  0.004  0.005
   31  0.000  0.000  0.004  0.005
   32  0.000  0.000  0.004  0.005
   33  0.000  0.000  0.004  0.005
   34  0.000  0.000  0.004  0.005
   35  0.001  0.000  0.000  0.001
   36  0.012  0.001  0.003  0.016
   37  0.002  0.000  0.000  0.002
tot    0.143  0.025  0.596  0.765
 
band    17 # energy   -5.09959325 # occ.  2.00000000
 
ion      s      p      d    tot
    1  0.018  0.001  0.001  0.019
    2  0.000  0.001  0.018  0.019
    3  0.000  0.001  0.018  0.019
    4  0.000  0.001  0.018  0.019
    5  0.014  0.000  0.014  0.028
    6  0.000  0.001  0.018  0.019
    7  0.000  0.001  0.018  0.019
    8  0.000  0.001  0.018  0.019
    9  0.000  0.000  0.008  0.008
   10  0.000  0.000  0.028  0.028
   11  0.000  0.000  0.038  0.038
   12  0.000  0.000  0.027  0.028
   13  0.000  0.000  0.038  0.038
   14  0.000  0.000  0.037  0.037
   15  0.000  0.000  0.039  0.039
   16  0.000  0.000  0.027  0.028
   17  0.000  0.000  0.039  0.039
   18  0.000  0.000  0.039  0.039
   19  0.000  0.000  0.024  0.024
   20  0.001  0.000  0.022  0.022
   21  0.001  0.000  0.021  0.022
   22  0.001  0.000  0.029  0.030
   23  0.001  0.000  0.021  0.022
   24  0.001  0.000  0.028  0.030
   25  0.000  0.000  0.024  0.024
   26  0.000  0.000  0.024  0.024
   27  0.001  0.000  0.029  0.030
   28  0.013  0.001  0.001  0.015
   29  0.000  0.001  0.012  0.013
   30  0.000  0.001  0.012  0.013
   31  0.000  0.001  0.012  0.013
   32  0.000  0.001  0.012  0.013
   33  0.000  0.001  0.012  0.013
   34  0.000  0.001  0.012  0.013
   35  0.010  0.000  0.005  0.015
   36  0.000  0.000  0.003  0.004
   37  0.000  0.000  0.000  0.000
tot    0.062  0.014  0.749  0.825
 
band    18 # energy   -5.09600356 # occ.  2.00000000
 
ion      s      p      d    tot
    1  0.000  0.001  0.016  0.016
    2  0.013  0.001  0.013  0.026
    3  0.003  0.001  0.012  0.015
    4  0.013  0.001  0.013  0.026
    5  0.000  0.000  0.035  0.035
    6  0.004  0.000  0.018  0.022
    7  0.003  0.001  0.012  0.015
    8  0.004  0.000  0.018  0.022
    9  0.000  0.002  0.011  0.013
   10  0.000  0.000  0.008  0.008
   11  0.000  0.001  0.034  0.035
   12  0.000  0.000  0.019  0.019
   13  0.000  0.001  0.034  0.035
   14  0.000  0.000  0.038  0.038
   15  0.000  0.000  0.053  0.053
   16  0.000  0.000  0.019  0.019
   17  0.000  0.000  0.053  0.053
   18  0.000  0.000  0.050  0.050
   19  0.001  0.000  0.011  0.012
   20  0.000  0.000  0.013  0.013
   21  0.001  0.000  0.025  0.026
   22  0.000  0.000  0.040  0.041
   23  0.001  0.000  0.025  0.026
   24  0.000  0.000  0.029  0.029
   25  0.000  0.000  0.013  0.013
   26  0.001  0.000  0.011  0.012
   27  0.000  0.000  0.040  0.041
   28  0.000  0.000  0.014  0.014
   29  0.003  0.001  0.006  0.010
   30  0.007  0.000  0.009  0.017
   31  0.003  0.001  0.006  0.010
   32  0.001  0.000  0.008  0.009
   33  0.007  0.000  0.009  0.017
   34  0.001  0.000  0.008  0.009
   35  0.000  0.001  0.017  0.018
   36  0.000  0.002  0.002  0.003
   37  0.000  0.000  0.000  0.000
tot    0.067  0.016  0.740  0.824
 
band    19 # energy   -5.09599563 # occ.  2.00000000
 
ion      s      p      d    tot
    1  0.000  0.001  0.016  0.016
    2  0.000  0.001  0.016  0.016
    3  0.010  0.001  0.016  0.027
    4  0.000  0.001  0.016  0.016
    5  0.000  0.000  0.035  0.035
    6  0.009  0.001  0.010  0.020
    7  0.010  0.001  0.016  0.027
    8  0.009  0.001  0.010  0.020
    9  0.000  0.002  0.011  0.013
   10  0.000  0.000  0.023  0.023
   11  0.000  0.000  0.037  0.037
   12  0.000  0.000  0.012  0.012
   13  0.000  0.000  0.037  0.037
   14  0.000  0.001  0.034  0.035
   15  0.000  0.000  0.051  0.051
   16  0.000  0.000  0.012  0.012
   17  0.000  0.000  0.051  0.051
   18  0.000  0.000  0.054  0.054
   19  0.000  0.000  0.012  0.013
   20  0.002  0.000  0.028  0.031
   21  0.000  0.000  0.017  0.017
   22  0.000  0.000  0.032  0.033
   23  0.000  0.000  0.017  0.017
   24  0.000  0.000  0.044  0.045
   25  0.001  0.000  0.011  0.012
   26  0.000  0.000  0.012  0.013
   27  0.000  0.000  0.032  0.033
   28  0.000  0.000  0.014  0.014
   29  0.004  0.000  0.010  0.014
   30  0.000  0.000  0.006  0.007
   31  0.004  0.000  0.010  0.014
   32  0.007  0.001  0.007  0.015
   33  0.000  0.000  0.006  0.007
   34  0.007  0.001  0.007  0.015
   35  0.000  0.001  0.017  0.018
   36  0.000  0.002  0.002  0.003
   37  0.000  0.000  0.000  0.000
tot    0.067  0.016  0.740  0.824
 
band    20 # energy   -5.07873902 # occ.  2.00000000
 
ion      s      p      d    tot
    1  0.000  0.001  0.025  0.026
    2  0.000  0.001  0.016  0.017
    3  0.009  0.001  0.017  0.026
    4  0.000  0.001  0.016  0.016
    5  0.000  0.001  0.007  0.008
    6  0.010  0.001  0.010  0.021
    7  0.009  0.001  0.017  0.027
    8  0.010  0.001  0.010  0.022
    9  0.000  0.000  0.030  0.030
   10  0.000  0.000  0.070  0.070
   11  0.000  0.000  0.043  0.043
   12  0.000  0.001  0.060  0.061
   13  0.000  0.000  0.042  0.042
   14  0.000  0.000  0.031  0.031
   15  0.000  0.001  0.021  0.022
   16  0.000  0.001  0.059  0.060
   17  0.000  0.001  0.021  0.022
   18  0.000  0.000  0.016  0.016
   19  0.001  0.000  0.038  0.039
   20  0.000  0.001  0.022  0.023
   21  0.000  0.000  0.027  0.027
   22  0.002  0.000  0.010  0.012
   23  0.000  0.000  0.027  0.027
   24  0.000  0.000  0.007  0.007
   25  0.000  0.000  0.023  0.023
   26  0.001  0.000  0.037  0.038
   27  0.002  0.000  0.010  0.013
   28  0.000  0.001  0.008  0.009
   29  0.002  0.000  0.005  0.007
   30  0.000  0.000  0.005  0.005
   31  0.002  0.000  0.005  0.007
   32  0.004  0.000  0.003  0.008
   33  0.000  0.000  0.005  0.005
   34  0.004  0.000  0.003  0.008
   35  0.000  0.001  0.006  0.006
   36  0.000  0.000  0.003  0.003
   37  0.000  0.000  0.000  0.000
tot    0.058  0.016  0.754  0.828
 
band    21 # energy   -5.07873827 # occ.  2.00000000
 
ion      s      p      d    tot
    1  0.000  0.001  0.025  0.026
    2  0.013  0.001  0.012  0.026
    3  0.004  0.001  0.012  0.017
    4  0.013  0.001  0.013  0.026
    5  0.000  0.001  0.007  0.008
    6  0.003  0.000  0.019  0.022
    7  0.003  0.001  0.012  0.016
    8  0.002  0.000  0.019  0.021
    9  0.000  0.000  0.030  0.030
   10  0.000  0.001  0.057  0.058
   11  0.000  0.000  0.035  0.035
   12  0.000  0.000  0.066  0.066
   13  0.000  0.000  0.036  0.036
   14  0.000  0.000  0.045  0.045
   15  0.000  0.000  0.018  0.018
   16  0.000  0.000  0.066  0.067
   17  0.000  0.000  0.018  0.018
   18  0.000  0.001  0.023  0.024
   19  0.000  0.000  0.027  0.028
   20  0.000  0.000  0.029  0.029
   21  0.000  0.000  0.024  0.024
   22  0.001  0.000  0.008  0.009
   23  0.000  0.000  0.023  0.024
   24  0.003  0.000  0.011  0.014
   25  0.002  0.000  0.042  0.044
   26  0.000  0.000  0.028  0.029
   27  0.001  0.000  0.008  0.009
   28  0.000  0.001  0.008  0.009
   29  0.002  0.000  0.004  0.007
   30  0.004  0.000  0.004  0.008
   31  0.002  0.000  0.004  0.006
   32  0.000  0.000  0.005  0.006
   33  0.004  0.000  0.004  0.008
   34  0.000  0.000  0.005  0.006
   35  0.000  0.001  0.006  0.006
   36  0.000  0.000  0.003  0.003