PROCAR new format
# of k-points:   10         # of bands:  252         # of ions:   37

 k-point     1 :    0.00000000 0.00000000 0.00000000     weight = 0.01562500

band     1 # energy  -16.90962786 # occ.  2.00000000
 
ion      s      p      d    tot
    1  0.000  0.000  0.000  0.000
    2  0.000  0.000  0.000  0.000
    3  0.000  0.000  0.000  0.000
    4  0.000  0.000  0.000  0.000
    5  0.000  0.000  0.000  0.000
    6  0.000  0.000  0.000  0.000
    7  0.000  0.000  0.000  0.000
    8  0.000  0.000  0.000  0.000
    9  0.000  0.000  0.000  0.000
   10  0.000  0.000  0.000  0.000
   11  0.000  0.000  0.000  0.000
   12  0.000  0.000  0.000  0.000
   13  0.000  0.000  0.000  0.000
   14  0.000  0.000  0.000  0.000
   15  0.000  0.000  0.000  0.000
   16  0.000  0.000  0.000  0.000
   17  0.000  0.000  0.000  0.000
   18  0.000  0.000  0.000  0.000
   19  0.000  0.000  0.000  0.000
   20  0.000  0.000  0.000  0.000
   21  0.000  0.000  0.000  0.000
   22  0.000  0.000  0.000  0.000
   23  0.000  0.000  0.000  0.000
   24  0.000  0.000  0.000  0.000
   25  0.000  0.000  0.000  0.000
   26  0.000  0.000  0.000  0.000
   27  0.000  0.000  0.000  0.000
   28  0.000  0.000  0.000  0.000
   29  0.000  0.000  0.000  0.000
   30  0.000  0.000  0.000  0.000
   31  0.000  0.000  0.000  0.000
   32  0.000  0.000  0.000  0.000
   33  0.000  0.000  0.000  0.000
   34  0.000  0.000  0.000  0.000
   35  0.000  0.000  0.000  0.000
   36  0.051  0.059  0.100  0.210
   37  0.785  0.006  0.000  0.792
tot    0.837  0.065  0.101  1.003
 
band     2 # energy   -8.93672260 # occ.  2.00000000
 
ion      s      p      d    tot
    1  0.007  0.001  0.000  0.007
    2  0.007  0.001  0.000  0.007
    3  0.007  0.001  0.000  0.007
    4  0.007  0.001  0.000  0.007
    5  0.007  0.001  0.000  0.007
    6  0.007  0.001  0.000  0.007
    7  0.007  0.001  0.000  0.007
    8  0.007  0.001  0.000  0.007
    9  0.007  0.001  0.000  0.007
   10  0.025  0.000  0.000  0.025
   11  0.025  0.000  0.000  0.025
   12  0.025  0.000  0.000  0.025
   13  0.025  0.000  0.000  0.025
   14  0.025  0.000  0.000  0.025
   15  0.025  0.000  0.000  0.025
   16  0.025  0.000  0.000  0.025
   17  0.025  0.000  0.000  0.025
   18  0.025  0.000  0.000  0.025
   19  0.025  0.000  0.000  0.026
   20  0.024  0.000  0.000  0.024
   21  0.024  0.000  0.000  0.024
   22  0.025  0.000  0.000  0.025
   23  0.024  0.000  0.000  0.024
   24  0.025  0.000  0.000  0.025
   25  0.025  0.000  0.000  0.026
   26  0.025  0.000  0.000  0.026
   27  0.025  0.000  0.000  0.025
   28  0.007  0.001  0.000  0.008
   29  0.007  0.001  0.000  0.007
   30  0.007  0.001  0.000  0.007
   31  0.007  0.001  0.000  0.007
   32  0.007  0.001  0.000  0.007
   33  0.007  0.001  0.000  0.007
   34  0.007  0.001  0.000  0.007
   35  0.007  0.001  0.000  0.008
   36  0.006  0.002  0.000  0.008
   37  0.000  0.000  0.000  0.000
tot    0.565  0.017  0.001  0.583
 
band     3 # energy   -7.62959740 # occ.  2.00000000
 
ion      s      p      d    tot
    1  0.018  0.001  0.001  0.019
    2  0.018  0.001  0.001  0.019
    3  0.018  0.001  0.001  0.019
    4  0.018  0.001  0.001  0.019
    5  0.018  0.001  0.001  0.020
    6  0.018  0.001  0.001  0.019
    7  0.018  0.001  0.001  0.019
    8  0.018  0.001  0.001  0.019
    9  0.018  0.001  0.001  0.019
   10  0.010  0.002  0.001  0.013
   11  0.010  0.002  0.001  0.013
   12  0.010  0.002  0.001  0.013
   13  0.010  0.002  0.001  0.013
   14  0.010  0.002  0.001  0.013
   15  0.010  0.002  0.001  0.013
   16  0.010  0.002  0.001  0.013
   17  0.010  0.002  0.001  0.013
   18  0.010  0.002  0.001  0.013
   19  0.011  0.002  0.001  0.014
   20  0.009  0.002  0.001  0.012
   21  0.009  0.002  0.001  0.012
   22  0.011  0.002  0.001  0.014
   23  0.009  0.002  0.001  0.012
   24  0.011  0.002  0.001  0.014
   25  0.011  0.002  0.001  0.014
   26  0.011  0.002  0.001  0.014
   27  0.011  0.002  0.001  0.014
   28  0.020  0.001  0.001  0.022
   29  0.018  0.001  0.001  0.020
   30  0.018  0.001  0.001  0.020
   31  0.018  0.001  0.001  0.020
   32  0.018  0.001  0.001  0.020
   33  0.018  0.001  0.001  0.020
   34  0.018  0.001  0.001  0.020
   35  0.020  0.001  0.001  0.021
   36  0.015  0.002  0.001  0.018
   37  0.001  0.000  0.000  0.001
tot    0.510  0.056  0.020  0.587
 
band     4 # energy   -6.02826258 # occ.  2.00000000
 
ion      s      p      d    tot
    1  0.016  0.000  0.005  0.021
    2  0.014  0.000  0.006  0.020
    3  0.014  0.000  0.006  0.020
    4  0.014  0.000  0.006  0.020
    5  0.005  0.001  0.007  0.012
    6  0.014  0.000  0.006  0.020
    7  0.014  0.000  0.006  0.020
    8  0.014  0.000  0.006  0.020
    9  0.024  0.000  0.004  0.028
   10  0.002  0.003  0.003  0.009
   11  0.013  0.005  0.001  0.019
   12  0.002  0.003  0.003  0.009
   13  0.013  0.005  0.001  0.019
   14  0.013  0.005  0.001  0.019
   15  0.000  0.002  0.004  0.007
   16  0.002  0.003  0.003  0.009
   17  0.000  0.002  0.004  0.007
   18  0.000  0.002  0.004  0.007
   19  0.001  0.003  0.006  0.009
   20  0.020  0.004  0.002  0.026
   21  0.020  0.004  0.002  0.026
   22  0.000  0.004  0.004  0.008
   23  0.020  0.004  0.002  0.026
   24  0.000  0.004  0.004  0.008
   25  0.001  0.003  0.006  0.009
   26  0.001  0.003  0.006  0.009
   27  0.000  0.004  0.004  0.008
   28  0.023  0.000  0.005  0.028
   29  0.015  0.001  0.008  0.023
   30  0.015  0.001  0.008  0.023
   31  0.015  0.001  0.008  0.023
   32  0.015  0.001  0.008  0.023
   33  0.015  0.001  0.008  0.023
   34  0.015  0.001  0.008  0.023
   35  0.028  0.000  0.006  0.033
   36  0.002  0.001  0.012  0.015
   37  0.000  0.000  0.000  0.000
tot    0.383  0.072  0.176  0.631
 
band     5 # energy   -5.96040896 # occ.  2.00000000
 
ion      s      p      d    tot
    1  0.000  0.003  0.005  0.008
    2  0.006  0.002  0.002  0.010
    3  0.005  0.001  0.002  0.008
    4  0.009  0.002  0.002  0.013
    5  0.000  0.001  0.002  0.003
    6  0.000  0.001  0.002  0.003
    7  0.007  0.002  0.002  0.011
    8  0.001  0.001  0.002  0.003
    9  0.000  0.001  0.004  0.005
   10  0.052  0.002  0.006  0.061
   11  0.001  0.007  0.004  0.012
   12  0.007  0.007  0.009  0.022
   13  0.000  0.010  0.003  0.013
   14  0.003  0.001  0.005  0.009
   15  0.013  0.002  0.010  0.025
   16  0.022  0.006  0.008  0.035
   17  0.004  0.001  0.013  0.018
   18  0.032  0.004  0.003  0.039
   19  0.024  0.006  0.008  0.038
   20  0.036  0.005  0.003  0.043
   21  0.004  0.001  0.016  0.021
   22  0.000  0.011  0.003  0.014
   23  0.015  0.002  0.012  0.029
   24  0.002  0.001  0.006  0.009
   25  0.057  0.002  0.006  0.066
   26  0.007  0.008  0.009  0.024
   27  0.001  0.008  0.004  0.012
   28  0.000  0.004  0.006  0.010
   29  0.006  0.002  0.003  0.011
   30  0.009  0.002  0.003  0.014
   31  0.010  0.002  0.003  0.015
   32  0.001  0.001  0.003  0.005
   33  0.012  0.003  0.003  0.018
   34  0.000  0.001  0.003  0.004
   35  0.000  0.001  0.003  0.004
   36  0.000  0.002  0.005  0.007
   37  0.000  0.000  0.000  0.000
tot    0.346  0.115  0.180  0.641
 
band     6 # energy   -5.96033187 # occ.  2.00000000
 
ion      s      p      d    tot
    1  0.000  0.003  0.005  0.008
    2  0.003  0.001  0.002  0.006
    3  0.005  0.002  0.002  0.008
    4  0.001  0.001  0.002  0.003
    5  0.000  0.001  0.002  0.003
    6  0.009  0.002  0.002  0.014
    7  0.002  0.001  0.002  0.005
    8  0.009  0.002  0.002  0.013
    9  0.000  0.001  0.004  0.005
   10  0.002  0.008  0.009  0.018
   11  0.002  0.005  0.004  0.011
   12  0.047  0.003  0.006  0.056
   13  0.002  0.002  0.005  0.009
   14  0.000  0.011  0.003  0.014
   15  0.019  0.003  0.007  0.029
   16  0.032  0.005  0.007  0.044
   17  0.029  0.004  0.004  0.036
   18  0.001  0.000  0.014  0.016
   19  0.035  0.005  0.007  0.047
   20  0.001  0.000  0.018  0.019
   21  0.033  0.004  0.004  0.041
   22  0.002  0.002  0.005  0.009
   23  0.022  0.003  0.009  0.034
   24  0.000  0.012  0.002  0.014
   25  0.002  0.008  0.009  0.019
   26  0.052  0.003  0.006  0.061
   27  0.001  0.005  0.004  0.011
   28  0.000  0.004  0.006  0.010
   29  0.006  0.002  0.003  0.012
   30  0.004  0.002  0.003  0.008
   31  0.002  0.001  0.003  0.007
   32  0.011  0.003  0.003  0.017
   33  0.001  0.001  0.003  0.005
   34  0.012  0.003  0.003  0.018
   35  0.000  0.001  0.003  0.004
   36  0.000  0.002  0.005  0.007
   37  0.000  0.000  0.000  0.000
tot    0.346  0.115  0.180  0.641
 
band     7 # energy   -5.95143643 # occ.  2.00000000
 
ion      s      p      d    tot
    1  0.018  0.003  0.001  0.023
    2  0.000  0.002  0.004  0.005
    3  0.000  0.002  0.004  0.005
    4  0.000  0.002  0.004  0.005
    5  0.002  0.000  0.000  0.003
    6  0.000  0.002  0.004  0.005
    7  0.000  0.002  0.004  0.005
    8  0.000  0.002  0.004  0.005
    9  0.008  0.001  0.000  0.010
   10  0.030  0.006  0.005  0.041
   11  0.006  0.000  0.011  0.017
   12  0.031  0.006  0.005  0.042
   13  0.006  0.000  0.011  0.017
   14  0.005  0.000  0.011  0.017
   15  0.010  0.007  0.004  0.021
   16  0.030  0.006  0.005  0.042
   17  0.009  0.007  0.004  0.021
   18  0.010  0.007  0.004  0.021
   19  0.025  0.010  0.002  0.036
   20  0.000  0.003  0.011  0.013
   21  0.000  0.003  0.010  0.013
   22  0.024  0.002  0.010  0.035
   23  0.000  0.003  0.010  0.013
   24  0.023  0.002  0.010  0.034
   25  0.025  0.010  0.002  0.036
   26  0.025  0.010  0.002  0.036
   27  0.024  0.002  0.010  0.035
   28  0.019  0.003  0.001  0.022
   29  0.000  0.002  0.005  0.007
   30  0.000  0.002  0.005  0.007
   31  0.000  0.002  0.005  0.007
   32  0.000  0.002  0.005  0.007
   33  0.000  0.002  0.005  0.007
   34  0.000  0.002  0.005  0.007
   35  0.015  0.002  0.001  0.018
   36  0.000  0.000  0.000  0.000
   37  0.000  0.000  0.000  0.000
tot    0.345  0.115  0.181  0.641
 
band     8 # energy   -5.94308054 # occ.  2.00000000
 
ion      s      p      d    tot
    1  0.000  0.000  0.003  0.003
    2  0.006  0.002  0.002  0.010
    3  0.004  0.001  0.002  0.008
    4  0.009  0.002  0.002  0.014
    5  0.000  0.003  0.005  0.008
    6  0.000  0.001  0.002  0.003
    7  0.008  0.002  0.002  0.012
    8  0.001  0.001  0.002  0.004
    9  0.000  0.002  0.003  0.006
   10  0.000  0.005  0.009  0.014
   11  0.032  0.003  0.009  0.044
   12  0.005  0.003  0.004  0.012
   13  0.052  0.004  0.004  0.061
   14  0.003  0.002  0.015  0.019
   15  0.014  0.006  0.005  0.025
   16  0.003  0.004  0.006  0.013
   17  0.024  0.002  0.006  0.032
   18  0.001  0.012  0.003  0.016
   19  0.004  0.004  0.006  0.014
   20  0.001  0.013  0.003  0.017
   21  0.026  0.002  0.007  0.035
   22  0.056  0.004  0.004  0.065
   23  0.016  0.006  0.005  0.027
   24  0.003  0.002  0.016  0.020
   25  0.000  0.005  0.009  0.015
   26  0.006  0.003  0.004  0.013
   27  0.034  0.003  0.009  0.047
   28  0.000  0.000  0.003  0.004
   29  0.006  0.002  0.003  0.010
   30  0.007  0.002  0.003  0.012
   31  0.010  0.003  0.003  0.015
   32  0.001  0.001  0.003  0.005
   33  0.011  0.003  0.003  0.017
   34  0.000  0.001  0.003  0.004
   35  0.000  0.003  0.006  0.009
   36  0.000  0.004  0.004  0.009
   37  0.000  0.000  0.000  0.000
tot    0.345  0.117  0.179  0.641
 
band     9 # energy   -5.94297325 # occ.  2.00000000
 
ion      s      p      d    tot
    1  0.000  0.000  0.003  0.003
    2  0.003  0.001  0.002  0.007
    3  0.005  0.002  0.002  0.009
    4  0.000  0.001  0.002  0.003
    5  0.000  0.003  0.005  0.008
    6  0.009  0.002  0.002  0.014
    7  0.001  0.001  0.002  0.005
    8  0.009  0.002  0.002  0.013
    9  0.000  0.002  0.003  0.006
   10  0.006  0.003  0.003  0.012
   11  0.026  0.003  0.010  0.039
   12  0.001  0.005  0.008  0.014
   13  0.005  0.002  0.014  0.021
   14  0.055  0.004  0.004  0.064
   15  0.012  0.007  0.004  0.024
   16  0.003  0.004  0.006  0.013
   17  0.003  0.012  0.003  0.017
   18  0.025  0.001  0.006  0.032
   19  0.003  0.004  0.007  0.014
   20  0.027  0.001  0.007  0.035
   21  0.003  0.013  0.003  0.018
   22  0.006  0.002  0.015  0.023
   23  0.013  0.008  0.005  0.025
   24  0.060  0.004  0.004  0.068
   25  0.007  0.003  0.003  0.013
   26  0.001  0.005  0.009  0.015
   27  0.028  0.003  0.010  0.041
   28  0.000  0.000  0.003  0.004
   29  0.006  0.002  0.003  0.011
   30  0.005  0.002  0.003  0.009
   31  0.001  0.001  0.003  0.006
   32  0.011  0.003  0.003  0.016
   33  0.001  0.001  0.003  0.004
   34  0.011  0.003  0.003  0.017
   35  0.000  0.003  0.006  0.009
   36  0.000  0.004  0.004  0.009
   37  0.000  0.000  0.000  0.000
tot    0.345  0.117  0.179  0.641
 
band    10 # energy   -5.86501800 # occ.  2.00000000
 
ion      s      p      d    tot
    1  0.000  0.000  0.001  0.002
    2  0.003  0.002  0.006  0.010
    3  0.003  0.002  0.006  0.010
    4  0.003  0.002  0.006  0.010
    5  0.038  0.003  0.000  0.040
    6  0.003  0.002  0.006  0.010
    7  0.003  0.002  0.006  0.010
    8  0.003  0.002  0.006  0.010
    9  0.003  0.002  0.004  0.010
   10  0.002  0.004  0.009  0.015
   11  0.016  0.009  0.004  0.029
   12  0.002  0.004  0.009  0.015
   13  0.016  0.009  0.004  0.029
   14  0.016  0.009  0.004  0.029
   15  0.029  0.002  0.010  0.041
   16  0.002  0.004  0.009  0.015
   17  0.029  0.002  0.010  0.041
   18  0.029  0.002  0.010  0.041
   19  0.008  0.002  0.009  0.018
   20  0.018  0.004  0.007  0.029
   21  0.018  0.004  0.007  0.029
   22  0.010  0.007  0.004  0.021
   23  0.018  0.004  0.007  0.029
   24  0.010  0.007  0.004  0.021
   25  0.008  0.002  0.009  0.018
   26  0.008  0.002  0.009  0.018
   27  0.010  0.007  0.004  0.021
   28  0.001  0.000  0.003  0.005
   29  0.003  0.001  0.004  0.008
   30  0.003  0.001  0.004  0.008
   31  0.003  0.001  0.004  0.008
   32  0.003  0.001  0.004  0.008
   33  0.003  0.001  0.004  0.008
   34  0.003  0.001  0.004  0.008
   35  0.000  0.001  0.002  0.003
   36  0.020  0.004  0.000  0.024
   37  0.001  0.001  0.000  0.002
tot    0.351  0.109  0.194  0.654
 
band    11 # energy   -5.20764486 # occ.  2.00000000
 
ion      s      p      d    tot
    1  0.004  0.000  0.009  0.014
    2  0.005  0.001  0.009  0.015
    3  0.005  0.001  0.009  0.015
    4  0.005  0.001  0.009  0.015
    5  0.000  0.002  0.009  0.011
    6  0.005  0.001  0.009  0.015
    7  0.005  0.001  0.009  0.015
    8  0.005  0.001  0.009  0.015
    9  0.019  0.000  0.006  0.026
   10  0.008  0.000  0.024  0.032
   11  0.011  0.001  0.020  0.032
   12  0.008  0.000  0.024  0.032
   13  0.011  0.001  0.020  0.032
   14  0.011  0.001  0.020  0.032
   15  0.001  0.001  0.022  0.023
   16  0.008  0.000  0.024  0.032
   17  0.001  0.001  0.022  0.023
   18  0.001  0.001  0.022  0.023
   19  0.004  0.000  0.019  0.024
   20  0.011  0.001  0.024  0.036
   21  0.011  0.001  0.024  0.036
   22  0.002  0.000  0.021  0.024
   23  0.011  0.001  0.024  0.036
   24  0.002  0.000  0.021  0.024
   25  0.004  0.000  0.019  0.024
   26  0.004  0.000  0.019  0.024
   27  0.002  0.000  0.021  0.024
   28  0.002  0.000  0.006  0.009
   29  0.003  0.001  0.009  0.013
   30  0.003  0.001  0.009  0.013
   31  0.003  0.001  0.009  0.013
   32  0.003  0.001  0.009  0.013
   33  0.003  0.001  0.009  0.013
   34  0.003  0.001  0.009  0.013
   35  0.016  0.000  0.006  0.022
   36  0.000  0.001  0.010  0.011
   37  0.000  0.001  0.000  0.002
tot    0.203  0.021  0.549  0.774
 
band    12 # energy   -5.20291616 # occ.  2.00000000
 
ion      s      p      d    tot
    1  0.000  0.004  0.010  0.015
    2  0.002  0.002  0.005  0.009
    3  0.021  0.004  0.005  0.030
    4  0.006  0.002  0.005  0.014
    5  0.000  0.000  0.011  0.011
    6  0.010  0.003  0.005  0.017
    7  0.020  0.004  0.005  0.029
    8  0.004  0.002  0.005  0.011
    9  0.000  0.005  0.008  0.013
   10  0.010  0.001  0.006  0.018
   11  0.001  0.002  0.012  0.016
   12  0.002  0.004  0.019  0.024
   13  0.000  0.002  0.014  0.016
   14  0.003  0.001  0.009  0.013
   15  0.009  0.002  0.016  0.028
   16  0.004  0.003  0.015  0.022
   17  0.004  0.001  0.020  0.024
   18  0.025  0.005  0.006  0.036
   19  0.006  0.002  0.014  0.022
   20  0.001  0.001  0.011  0.012
   21  0.000  0.002  0.015  0.017
   22  0.001  0.002  0.026  0.030
   23  0.000  0.002  0.014  0.016
   24  0.009  0.003  0.004  0.016
   25  0.015  0.006  0.009  0.030
   26  0.002  0.001  0.016  0.019
   27  0.004  0.002  0.020  0.026
   28  0.000  0.005  0.009  0.013
   29  0.003  0.002  0.007  0.011
   30  0.024  0.004  0.007  0.035
   31  0.008  0.002  0.007  0.017
   32  0.010  0.003  0.007  0.019
   33  0.023  0.004  0.007  0.034
   34  0.004  0.002  0.007  0.013
   35  0.000  0.005  0.011  0.016
   36  0.000  0.000  0.010  0.010
   37  0.000  0.000  0.000  0.000
tot    0.232  0.094  0.377  0.703
 
band    13 # energy   -5.20288275 # occ.  2.00000000
 
ion      s      p      d    tot
    1  0.000  0.004  0.010  0.015
    2  0.019  0.004  0.005  0.028
    3  0.000  0.002  0.005  0.007
    4  0.015  0.003  0.005  0.023
    5  0.000  0.000  0.011  0.011
    6  0.011  0.003  0.005  0.019
    7  0.001  0.002  0.005  0.008
    8  0.017  0.003  0.005  0.025
    9  0.000  0.005  0.008  0.013
   10  0.000  0.004  0.021  0.025
   11  0.002  0.002  0.011  0.015
   12  0.009  0.002  0.008  0.019
   13  0.003  0.002  0.009  0.014
   14  0.000  0.003  0.014  0.017
   15  0.016  0.003  0.012  0.031
   16  0.007  0.002  0.012  0.021
   17  0.022  0.004  0.008  0.034
   18  0.000  0.000  0.022  0.023
   19  0.009  0.004  0.012  0.025
   20  0.000  0.002  0.016  0.018
   21  0.001  0.001  0.011  0.013
   22  0.008  0.003  0.007  0.018
   23  0.000  0.001  0.012  0.014
   24  0.000  0.002  0.029  0.032
   25  0.000  0.000  0.017  0.017
   26  0.013  0.005  0.010  0.028
   27  0.006  0.002  0.014  0.022
   28  0.000  0.005  0.009  0.013
   29  0.021  0.004  0.007  0.032
   30  0.000  0.002  0.007  0.008
   31  0.016  0.003  0.007  0.026
   32  0.014  0.003  0.007  0.024
   33  0.001  0.002  0.007  0.009
   34  0.020  0.003  0.007  0.030
   35  0.000  0.005  0.011  0.016
   36  0.000  0.000  0.010  0.011
   37  0.000  0.000  0.000  0.000
tot    0.232  0.094  0.377  0.703
 
band    14 # energy   -5.18938122 # occ.  2.00000000
 
ion      s      p      d    tot
    1  0.036  0.003  0.000  0.039
    2  0.000  0.003  0.010  0.013
    3  0.000  0.003  0.010  0.013
    4  0.000  0.003  0.010  0.013
    5  0.000  0.000  0.001  0.001
    6  0.000  0.003  0.010  0.013
    7  0.000  0.003  0.010  0.013
    8  0.000  0.003  0.010  0.013
    9  0.024  0.004  0.001  0.029
   10  0.007  0.003  0.011  0.021
   11  0.002  0.000  0.015  0.018
   12  0.008  0.003  0.011  0.022
   13  0.002  0.000  0.015  0.018
   14  0.002  0.000  0.016  0.018
   15  0.009  0.003  0.015  0.027
   16  0.008  0.003  0.011  0.022
   17  0.009  0.003  0.015  0.027
   18  0.009  0.003  0.015  0.027
   19  0.003  0.003  0.020  0.027
   20  0.000  0.000  0.015  0.015
   21  0.000  0.000  0.015  0.015
   22  0.011  0.003  0.009  0.024
   23  0.000  0.000  0.015  0.015
   24  0.011  0.003  0.009  0.024
   25  0.003  0.003  0.020  0.027
   26  0.003  0.003  0.020  0.027
   27  0.011  0.003  0.009  0.024
   28  0.040  0.003  0.000  0.043
   29  0.000  0.003  0.012  0.016
   30  0.000  0.003  0.012  0.016
   31  0.000  0.003  0.012  0.016
   32  0.000  0.003  0.012  0.016
   33  0.000  0.003  0.012  0.016
   34  0.000  0.003  0.012  0.016
   35  0.024  0.003  0.001  0.029
   36  0.000  0.000  0.000  0.000
   37  0.000  0.000  0.000  0.000
tot    0.224  0.089  0.395  0.708
 
band    15 # energy   -5.18406344 # occ.  2.00000000
 
ion      s      p      d    tot
    1  0.000  0.002  0.009  0.011
    2  0.001  0.002  0.005  0.007
    3  0.021  0.004  0.005  0.030
    4  0.008  0.002  0.005  0.015
    5  0.000  0.006  0.009  0.015
    6  0.012  0.003  0.005  0.020
    7  0.019  0.004  0.005  0.028
    8  0.003  0.002  0.005  0.010
    9  0.000  0.001  0.012  0.013
   10  0.001  0.001  0.017  0.018
   11  0.011  0.003  0.015  0.029
   12  0.014  0.004  0.009  0.026
   13  0.019  0.004  0.007  0.029
   14  0.001  0.002  0.024  0.027
   15  0.000  0.002  0.012  0.015
   16  0.008  0.002  0.012  0.023
   17  0.001  0.000  0.009  0.010
   18  0.000  0.004  0.017  0.021
   19  0.001  0.002  0.015  0.017
   20  0.001  0.001  0.030  0.032
   21  0.017  0.005  0.008  0.030
   22  0.008  0.004  0.011  0.022
   23  0.010  0.003  0.018  0.031
   24  0.000  0.001  0.013  0.014
   25  0.000  0.003  0.023  0.026
   26  0.002  0.000  0.008  0.010
   27  0.005  0.002  0.012  0.019
   28  0.000  0.002  0.014  0.016
   29  0.001  0.002  0.006  0.009
   30  0.020  0.004  0.007  0.031
   31  0.009  0.002  0.006  0.018
   32  0.011  0.003  0.007  0.020
   33  0.020  0.004  0.007  0.030
   34  0.002  0.002  0.006  0.010
   35  0.000  0.001  0.011  0.012
   36  0.000  0.010  0.006  0.016
   37  0.000  0.000  0.000  0.000
tot    0.225  0.097  0.389  0.711
 
band    16 # energy   -5.18402788 # occ.  2.00000000
 
ion      s      p      d    tot
    1  0.000  0.002  0.009  0.011
    2  0.020  0.004  0.005  0.029
    3  0.000  0.002  0.005  0.007
    4  0.013  0.003  0.005  0.021
    5  0.000  0.006  0.009  0.015
    6  0.009  0.003  0.005  0.017
    7  0.002  0.002  0.005  0.009
    8  0.018  0.004  0.005  0.027
    9  0.000  0.001  0.012  0.013
   10  0.014  0.004  0.009  0.026
   11  0.010  0.003  0.016  0.028
   12  0.001  0.001  0.017  0.019
   13  0.002  0.002  0.024  0.027
   14  0.020  0.004  0.006  0.030
   15  0.000  0.002  0.013  0.015
   16  0.007  0.002  0.013  0.022
   17  0.000  0.004  0.017  0.020
   18  0.001  0.000  0.008  0.009
   19  0.001  0.002  0.016  0.018
   20  0.018  0.005  0.007  0.030
   21  0.002  0.001  0.029  0.032
   22  0.001  0.001  0.013  0.014
   23  0.009  0.003  0.019  0.031
   24  0.008  0.004  0.010  0.023
   25  0.002  0.000  0.008  0.010
   26  0.000  0.003  0.022  0.025
   27  0.004  0.002  0.012  0.018
   28  0.000  0.002  0.014  0.016
   29  0.020  0.004  0.007  0.030
   30  0.001  0.002  0.006  0.009
   31  0.012  0.003  0.007  0.021
   32  0.011  0.003  0.006  0.020
   33  0.001  0.002  0.006  0.009
   34  0.019  0.004  0.007  0.030
   35  0.000  0.001  0.011  0.012
   36  0.000  0.010  0.006  0.016
   37  0.000  0.000  0.000  0.000
tot    0.225  0.097  0.389  0.711
 
band    17 # energy   -5.03222868 # occ.  2.00000000
 
ion      s      p      d    tot
    1  0.013  0.002  0.001  0.015
    2  0.000  0.003  0.011  0.014
    3  0.000  0.003  0.011  0.014
    4  0.000  0.003  0.011  0.014
    5  0.045  0.003  0.000  0.048
    6  0.000  0.003  0.011  0.014
    7  0.000  0.003  0.011  0.014
    8  0.000  0.003  0.011  0.014
    9  0.004  0.001  0.001  0.006
   10  0.002  0.001  0.025  0.028
   11  0.004  0.004  0.019  0.027
   12  0.002  0.001  0.025  0.028
   13  0.004  0.004  0.019  0.027
   14  0.004  0.004  0.019  0.027
   15  0.004  0.001  0.011  0.016
   16  0.002  0.001  0.025  0.028
   17  0.004  0.001  0.011  0.016
   18  0.004  0.001  0.011  0.016
   19  0.011  0.001  0.022  0.034
   20  0.009  0.004  0.010  0.022
   21  0.009  0.004  0.010  0.022
   22  0.003  0.001  0.018  0.023
   23  0.009  0.004  0.010  0.022
   24  0.003  0.001  0.018  0.023
   25  0.011  0.001  0.022  0.034
   26  0.011  0.001  0.022  0.034
   27  0.003  0.001  0.018  0.023
   28  0.002  0.002  0.007  0.010
   29  0.002  0.002  0.011  0.014
   30  0.002  0.002  0.011  0.014
   31  0.002  0.002  0.011  0.014
   32  0.002  0.002  0.011  0.014
   33  0.002  0.002  0.011  0.014
   34  0.002  0.002  0.011  0.014
   35  0.002  0.001  0.003  0.006
   36  0.037  0.006  0.000  0.044
   37  0.001  0.004  0.000  0.005
tot    0.212  0.083  0.458  0.753
 
band    18 # energy   -4.51819446 # occ.  2.00000000
 
ion      s      p      d    tot
    1  0.000  0.001  0.029  0.030
    2  0.015  0.001  0.009  0.024
    3  0.008  0.001  0.008  0.018
    4  0.014  0.001  0.009  0.024
    5  0.000  0.000  0.020  0.020
    6  0.007  0.001  0.009  0.017
    7  0.001  0.001  0.008  0.010
    8  0.001  0.001  0.009  0.010
    9  0.000  0.003  0.001  0.004
   10  0.000  0.000  0.057  0.057
   11  0.000  0.003  0.017  0.020
   12  0.000  0.000  0.032  0.033
   13  0.000  0.002  0.017  0.019
   14  0.000  0.000  0.017  0.017
   15  0.001  0.007  0.016  0.023
   16  0.000  0.001  0.007  0.008
   17  0.000  0.004  0.017  0.021
   18  0.000  0.001  0.018  0.019
   19  0.002  0.006  0.020  0.028
   20  0.000  0.000  0.050  0.051
   21  0.000  0.000  0.033  0.033
   22  0.001  0.001  0.024  0.026
   23  0.000  0.001  0.016  0.016
   24  0.000  0.000  0.037  0.038
   25  0.000  0.000  0.013  0.014
   26  0.001  0.003  0.017  0.021
   27  0.002  0.002  0.010  0.015
   28  0.000  0.002  0.004  0.006
   29  0.005  0.001  0.015  0.021
   30  0.000  0.001  0.013  0.014
   31  0.013  0.001  0.017  0.030
   32  0.016  0.001  0.016  0.032
   33  0.003  0.001  0.012  0.016
   34  0.011  0.001  0.013  0.025
   35  0.000  0.002  0.021  0.023
   36  0.000  0.000  0.019  0.019
   37  0.000  0.001  0.000  0.001
tot    0.102  0.052  0.650  0.803
 
band    19 # energy   -4.51818315 # occ.  2.00000000
 
ion      s      p      d    tot
    1  0.000  0.001  0.029  0.030
    2  0.001  0.001  0.009  0.010
    3  0.007  0.001  0.009  0.017
    4  0.001  0.001  0.008  0.010
    5  0.000  0.000  0.020  0.020
    6  0.008  0.001  0.008  0.018
    7  0.014  0.001  0.009  0.024
    8  0.015  0.001  0.009  0.024
    9  0.000  0.003  0.001  0.004
   10  0.000  0.001  0.007  0.008
   11  0.000  0.000  0.017  0.017
   12  0.000  0.000  0.032  0.033
   13  0.000  0.002  0.017  0.019
   14  0.000  0.003  0.017  0.020
   15  0.000  0.001  0.018  0.018
   16  0.000  0.000  0.057  0.057
   17  0.000  0.004  0.017  0.021
   18  0.001  0.007  0.016  0.023
   19  0.000  0.000  0.013  0.014
   20  0.000  0.001  0.016  0.016
   21  0.000  0.000  0.033  0.033
   22  0.001  0.001  0.024  0.026
   23  0.000  0.000  0.050  0.051
   24  0.002  0.002  0.010  0.015
   25  0.002  0.006  0.020  0.028
   26  0.001  0.003  0.017  0.021
   27  0.000  0.000  0.037  0.038
   28  0.000  0.002  0.004  0.006
   29  0.011  0.001  0.013  0.025
   30  0.016  0.001  0.016  0.032
   31  0.003  0.001  0.012  0.016
   32  0.000  0.001  0.013  0.014
   33  0.013  0.001  0.017  0.030
   34  0.005  0.001  0.015  0.021
   35  0.000  0.002  0.021  0.023
   36  0.000  0.000  0.019  0.019
   37  0.000  0.001  0.000  0.001
tot    0.102  0.052  0.650  0.803
 
band    20 # energy   -4.51185628 # occ.  2.00000000
 
ion      s      p      d    tot
    1  0.003  0.000  0.001  0.003
    2  0.000  0.001  0.016  0.017
    3  0.000  0.001  0.016  0.017
    4  0.000  0.001  0.016  0.017
    5  0.013  0.000  0.000  0.014
    6  0.000  0.001  0.016  0.017
    7  0.000  0.001  0.016  0.017
    8  0.000  0.001  0.016  0.017
    9  0.028  0.001  0.001  0.030
   10  0.000  0.001  0.007  0.009
   11  0.000  0.000  0.019  0.019
   12  0.000  0.001  0.007  0.009
   13  0.000  0.000  0.019  0.019
   14  0.000  0.000  0.019  0.019
   15  0.000  0.003  0.036  0.040
   16  0.000  0.001  0.007  0.009
   17  0.000  0.003  0.037  0.040
   18  0.000  0.003  0.037  0.040
   19  0.000  0.001  0.024  0.025
   20  0.000  0.000  0.012  0.013
   21  0.000  0.000  0.012  0.013
   22  0.001  0.003  0.033  0.037
   23  0.000  0.000  0.012  0.013
   24  0.001  0.003  0.033  0.037
   25  0.000  0.001  0.024  0.025
   26  0.000  0.001  0.024  0.025
   27  0.001  0.003  0.033  0.037
   28  0.022  0.000  0.002  0.025
   29  0.000  0.001  0.027  0.029
   30  0.000  0.001  0.027  0.028
   31  0.000  0.001  0.027  0.029
   32  0.000  0.001  0.027  0.028
   33  0.000  0.001  0.027  0.028
   34  0.000  0.001  0.027  0.028
   35  0.022  0.000  0.005  0.028
   36  0.000  0.000  0.000  0.000
   37  0.000  0.000  0.000  0.000
tot    0.096  0.047  0.662  0.805
 
band    21 # energy   -4.50237290 # occ.  2.00000000
 
ion      s      p      d    tot
    1  0.000  0.002  0.006  0.007
    2  0.014  0.001  0.009  0.024
    3  0.009  0.001  0.009  0.019
    4  0.013  0.001  0.009  0.024
    5  0.000  0.003  0.013  0.015
    6  0.008  0.001  0.009  0.018
    7  0.001  0.001  0.008  0.010
    8  0.000  0.001  0.009  0.010
    9  0.000  0.000  0.032  0.032
   10  0.000  0.006  0.020  0.026
   11  0.000  0.000  0.043  0.043
   12  0.000  0.004  0.014  0.018
   13  0.000  0.002  0.023  0.026
   14  0.001  0.004  0.010  0.015
   15  0.000  0.000  0.045  0.045
   16  0.000  0.000  0.005  0.005
   17  0.000  0.000  0.025  0.025
   18  0.000  0.000  0.012  0.012
   19  0.000  0.000  0.054  0.054
   20  0.002  0.005  0.018  0.025
   21  0.001  0.003  0.020  0.024
   22  0.000  0.002  0.018  0.021
   23  0.000  0.000  0.022  0.023
   24  0.001  0.003  0.017  0.021
   25  0.000  0.000  0.009  0.010
   26  0.000  0.000  0.027  0.028
   27  0.000  0.000  0.020  0.020
   28  0.000  0.001  0.040  0.041
   29  0.004  0.001  0.014  0.018
   30  0.000  0.001  0.013  0.014
   31  0.013  0.001  0.014  0.028
   32  0.015  0.001  0.013  0.029
   33  0.003  0.001  0.012  0.016
   34  0.009  0.001  0.012  0.023
   35  0.000  0.001  0.024  0.024
   36  0.000  0.005  0.001  0.006