PROCAR new format
# of k-points:   10         # of bands:  252         # of ions:   37

 k-point     1 :    0.00000000 0.00000000 0.00000000     weight = 0.01562500

band     1 # energy   -8.83221720 # occ.  2.00000000
 
ion      s      p      d    tot
    1  0.007  0.001  0.000  0.008
    2  0.007  0.001  0.000  0.008
    3  0.007  0.001  0.000  0.008
    4  0.007  0.001  0.000  0.008
    5  0.007  0.001  0.000  0.008
    6  0.007  0.001  0.000  0.008
    7  0.007  0.001  0.000  0.008
    8  0.007  0.001  0.000  0.008
    9  0.007  0.001  0.000  0.008
   10  0.025  0.000  0.000  0.025
   11  0.025  0.000  0.000  0.025
   12  0.025  0.000  0.000  0.025
   13  0.025  0.000  0.000  0.025
   14  0.025  0.000  0.000  0.025
   15  0.025  0.000  0.000  0.025
   16  0.025  0.000  0.000  0.025
   17  0.025  0.000  0.000  0.025
   18  0.025  0.000  0.000  0.025
   19  0.024  0.000  0.000  0.025
   20  0.025  0.000  0.000  0.025
   21  0.025  0.000  0.000  0.025
   22  0.024  0.000  0.000  0.025
   23  0.025  0.000  0.000  0.025
   24  0.024  0.000  0.000  0.025
   25  0.024  0.000  0.000  0.025
   26  0.024  0.000  0.000  0.025
   27  0.024  0.000  0.000  0.025
   28  0.006  0.001  0.000  0.007
   29  0.006  0.001  0.000  0.007
   30  0.006  0.001  0.000  0.007
   31  0.006  0.001  0.000  0.007
   32  0.006  0.001  0.000  0.007
   33  0.006  0.001  0.000  0.007
   34  0.006  0.001  0.000  0.007
   35  0.006  0.001  0.000  0.007
   36  0.007  0.001  0.000  0.008
   37  0.000  0.000  0.000  0.000
tot    0.565  0.016  0.001  0.582
 
band     2 # energy   -7.51715298 # occ.  2.00000000
 
ion      s      p      d    tot
    1  0.018  0.001  0.001  0.020
    2  0.018  0.001  0.001  0.020
    3  0.018  0.001  0.001  0.020
    4  0.018  0.001  0.001  0.020
    5  0.018  0.001  0.001  0.020
    6  0.018  0.001  0.001  0.020
    7  0.018  0.001  0.001  0.020
    8  0.018  0.001  0.001  0.020
    9  0.018  0.001  0.001  0.020
   10  0.009  0.002  0.001  0.012
   11  0.010  0.002  0.001  0.012
   12  0.009  0.002  0.001  0.012
   13  0.010  0.002  0.001  0.012
   14  0.010  0.002  0.001  0.012
   15  0.009  0.002  0.001  0.012
   16  0.009  0.002  0.001  0.012
   17  0.009  0.002  0.001  0.012
   18  0.009  0.002  0.001  0.012
   19  0.011  0.002  0.001  0.014
   20  0.011  0.002  0.001  0.013
   21  0.011  0.002  0.001  0.013
   22  0.011  0.002  0.001  0.014
   23  0.011  0.002  0.001  0.013
   24  0.011  0.002  0.001  0.014
   25  0.011  0.002  0.001  0.014
   26  0.011  0.002  0.001  0.014
   27  0.011  0.002  0.001  0.014
   28  0.018  0.001  0.000  0.019
   29  0.017  0.001  0.000  0.019
   30  0.017  0.001  0.000  0.019
   31  0.017  0.001  0.000  0.019
   32  0.017  0.001  0.000  0.019
   33  0.017  0.001  0.000  0.019
   34  0.017  0.001  0.000  0.019
   35  0.018  0.001  0.000  0.019
   36  0.019  0.000  0.000  0.019
   37  0.001  0.000  0.000  0.001
tot    0.509  0.054  0.018  0.581
 
band     3 # energy   -5.86912892 # occ.  2.00000000
 
ion      s      p      d    tot
    1  0.019  0.000  0.006  0.025
    2  0.015  0.000  0.007  0.022
    3  0.015  0.000  0.007  0.022
    4  0.015  0.000  0.007  0.022
    5  0.005  0.001  0.008  0.013
    6  0.015  0.000  0.007  0.022
    7  0.015  0.000  0.007  0.022
    8  0.015  0.000  0.007  0.022
    9  0.025  0.000  0.004  0.029
   10  0.002  0.003  0.004  0.010
   11  0.016  0.005  0.002  0.023
   12  0.002  0.003  0.004  0.010
   13  0.016  0.005  0.002  0.023
   14  0.016  0.005  0.002  0.023
   15  0.000  0.002  0.005  0.008
   16  0.002  0.003  0.004  0.010
   17  0.000  0.002  0.005  0.008
   18  0.000  0.002  0.005  0.008
   19  0.000  0.003  0.005  0.008
   20  0.016  0.005  0.001  0.022
   21  0.016  0.005  0.001  0.022
   22  0.001  0.004  0.003  0.008
   23  0.016  0.005  0.001  0.022
   24  0.001  0.004  0.003  0.008
   25  0.000  0.003  0.005  0.008
   26  0.000  0.003  0.005  0.008
   27  0.001  0.004  0.003  0.008
   28  0.022  0.000  0.004  0.027
   29  0.015  0.000  0.006  0.021
   30  0.015  0.000  0.006  0.021
   31  0.015  0.000  0.006  0.021
   32  0.015  0.000  0.006  0.021
   33  0.015  0.000  0.006  0.021
   34  0.015  0.000  0.006  0.021
   35  0.023  0.000  0.005  0.028
   36  0.004  0.002  0.003  0.010
   37  0.001  0.000  0.000  0.001
tot    0.382  0.074  0.166  0.622
 
band     4 # energy   -5.83696569 # occ.  2.00000000
 
ion      s      p      d    tot
    1  0.000  0.002  0.005  0.008
    2  0.010  0.002  0.002  0.015
    3  0.001  0.001  0.002  0.004
    4  0.010  0.002  0.002  0.014
    5  0.000  0.003  0.004  0.007
    6  0.005  0.002  0.002  0.009
    7  0.001  0.001  0.002  0.004
    8  0.005  0.002  0.002  0.009
    9  0.000  0.000  0.002  0.003
   10  0.055  0.005  0.003  0.063
   11  0.010  0.009  0.005  0.025
   12  0.013  0.002  0.014  0.029
   13  0.010  0.010  0.005  0.024
   14  0.039  0.001  0.007  0.047
   15  0.000  0.006  0.006  0.013
   16  0.014  0.002  0.014  0.029
   17  0.000  0.006  0.006  0.013
   18  0.001  0.002  0.004  0.007
   19  0.004  0.010  0.003  0.018
   20  0.064  0.004  0.005  0.073
   21  0.015  0.004  0.012  0.032
   22  0.004  0.003  0.010  0.017
   23  0.016  0.004  0.012  0.032
   24  0.015  0.004  0.003  0.021
   25  0.017  0.000  0.007  0.023
   26  0.004  0.010  0.003  0.017
   27  0.004  0.003  0.010  0.017
   28  0.000  0.002  0.003  0.005
   29  0.010  0.003  0.003  0.015
   30  0.002  0.001  0.002  0.005
   31  0.010  0.003  0.003  0.015
   32  0.003  0.001  0.002  0.007
   33  0.002  0.001  0.002  0.005
   34  0.004  0.001  0.002  0.007
   35  0.000  0.000  0.003  0.003
   36  0.000  0.004  0.005  0.009
   37  0.000  0.000  0.000  0.000
tot    0.347  0.117  0.178  0.642
 
band     5 # energy   -5.83687553 # occ.  2.00000000
 
ion      s      p      d    tot
    1  0.000  0.002  0.005  0.008
    2  0.001  0.001  0.002  0.004
    3  0.010  0.002  0.003  0.015
    4  0.001  0.001  0.002  0.004
    5  0.000  0.003  0.004  0.007
    6  0.005  0.002  0.002  0.009
    7  0.010  0.002  0.003  0.015
    8  0.005  0.002  0.002  0.009
    9  0.000  0.000  0.002  0.003
   10  0.000  0.000  0.017  0.018
   11  0.029  0.004  0.006  0.039
   12  0.042  0.004  0.006  0.052
   13  0.030  0.004  0.006  0.040
   14  0.000  0.012  0.005  0.017
   15  0.001  0.003  0.005  0.009
   16  0.041  0.004  0.007  0.051
   17  0.001  0.003  0.005  0.009
   18  0.000  0.008  0.007  0.015
   19  0.012  0.004  0.005  0.021
   20  0.000  0.004  0.015  0.019
   21  0.049  0.004  0.007  0.059
   22  0.011  0.003  0.005  0.019
   23  0.048  0.004  0.007  0.059
   24  0.000  0.003  0.012  0.015
   25  0.000  0.014  0.002  0.015
   26  0.013  0.003  0.005  0.022
   27  0.011  0.003  0.005  0.019
   28  0.000  0.002  0.003  0.005
   29  0.000  0.001  0.002  0.003
   30  0.008  0.002  0.002  0.013
   31  0.000  0.001  0.002  0.003
   32  0.007  0.002  0.003  0.011
   33  0.008  0.002  0.002  0.013
   34  0.006  0.002  0.003  0.011
   35  0.000  0.000  0.003  0.003
   36  0.000  0.004  0.005  0.009
   37  0.000  0.000  0.000  0.000
tot    0.347  0.117  0.178  0.642
 
band     6 # energy   -5.82957660 # occ.  2.00000000
 
ion      s      p      d    tot
    1  0.018  0.002  0.001  0.021
    2  0.000  0.002  0.004  0.006
    3  0.000  0.002  0.004  0.006
    4  0.000  0.002  0.004  0.006
    5  0.001  0.000  0.000  0.001
    6  0.000  0.002  0.004  0.006
    7  0.000  0.002  0.004  0.006
    8  0.000  0.002  0.004  0.006
    9  0.013  0.003  0.001  0.017
   10  0.023  0.003  0.010  0.035
   11  0.000  0.002  0.010  0.012
   12  0.023  0.003  0.010  0.035
   13  0.000  0.002  0.010  0.012
   14  0.000  0.002  0.010  0.012
   15  0.024  0.009  0.002  0.035
   16  0.023  0.003  0.010  0.035
   17  0.024  0.009  0.002  0.035
   18  0.024  0.009  0.002  0.035
   19  0.012  0.008  0.003  0.023
   20  0.003  0.000  0.012  0.015
   21  0.003  0.000  0.012  0.015
   22  0.032  0.005  0.006  0.043
   23  0.003  0.000  0.012  0.015
   24  0.032  0.005  0.006  0.043
   25  0.012  0.008  0.003  0.023
   26  0.012  0.008  0.003  0.023
   27  0.032  0.005  0.006  0.043
   28  0.014  0.002  0.000  0.016
   29  0.000  0.002  0.004  0.006
   30  0.000  0.002  0.004  0.006
   31  0.000  0.002  0.004  0.006
   32  0.000  0.002  0.004  0.006
   33  0.000  0.002  0.004  0.006
   34  0.000  0.002  0.004  0.006
   35  0.015  0.003  0.002  0.020
   36  0.002  0.000  0.000  0.003
   37  0.000  0.000  0.000  0.000
tot    0.347  0.114  0.179  0.640
 
band     7 # energy   -5.82068254 # occ.  2.00000000
 
ion      s      p      d    tot
    1  0.000  0.001  0.003  0.004
    2  0.010  0.002  0.002  0.015
    3  0.001  0.001  0.002  0.004
    4  0.010  0.002  0.002  0.015
    5  0.000  0.001  0.004  0.004
    6  0.005  0.002  0.003  0.010
    7  0.001  0.001  0.002  0.004
    8  0.005  0.002  0.003  0.010
    9  0.000  0.004  0.006  0.009
   10  0.000  0.013  0.002  0.015
   11  0.019  0.004  0.005  0.028
   12  0.007  0.003  0.005  0.015
   13  0.019  0.004  0.005  0.028
   14  0.000  0.002  0.015  0.016
   15  0.047  0.004  0.007  0.057
   16  0.006  0.004  0.005  0.015
   17  0.047  0.004  0.007  0.058
   18  0.000  0.006  0.012  0.018
   19  0.034  0.004  0.006  0.044
   20  0.000  0.010  0.005  0.015
   21  0.000  0.003  0.005  0.008
   22  0.036  0.004  0.006  0.046
   23  0.000  0.003  0.005  0.008
   24  0.000  0.010  0.007  0.017
   25  0.000  0.000  0.017  0.017
   26  0.034  0.004  0.006  0.044
   27  0.036  0.004  0.006  0.046
   28  0.000  0.002  0.005  0.006
   29  0.009  0.002  0.002  0.014
   30  0.002  0.001  0.002  0.005
   31  0.009  0.002  0.002  0.014
   32  0.003  0.001  0.002  0.006
   33  0.002  0.001  0.002  0.005
   34  0.003  0.001  0.002  0.006
   35  0.000  0.003  0.005  0.008
   36  0.000  0.000  0.002  0.002
   37  0.000  0.000  0.000  0.000
tot    0.345  0.116  0.178  0.639
 
band     8 # energy   -5.82060727 # occ.  2.00000000
 
ion      s      p      d    tot
    1  0.000  0.001  0.003  0.004
    2  0.001  0.001  0.002  0.004
    3  0.010  0.002  0.003  0.015
    4  0.001  0.001  0.002  0.004
    5  0.000  0.000  0.004  0.004
    6  0.005  0.002  0.002  0.009
    7  0.010  0.002  0.003  0.015
    8  0.005  0.002  0.002  0.009
    9  0.000  0.004  0.006  0.009
   10  0.009  0.000  0.007  0.016
   11  0.006  0.002  0.012  0.020
   12  0.002  0.010  0.003  0.015
   13  0.006  0.002  0.012  0.020
   14  0.024  0.004  0.002  0.031
   15  0.016  0.005  0.010  0.032
   16  0.002  0.010  0.003  0.015
   17  0.016  0.005  0.011  0.031
   18  0.062  0.003  0.005  0.070
   19  0.012  0.001  0.013  0.026
   20  0.000  0.001  0.005  0.006
   21  0.000  0.008  0.005  0.013
   22  0.012  0.008  0.006  0.026
   23  0.000  0.008  0.005  0.013
   24  0.048  0.002  0.006  0.056
   25  0.045  0.005  0.002  0.052
   26  0.012  0.001  0.013  0.026
   27  0.012  0.008  0.007  0.027
   28  0.000  0.002  0.005  0.006
   29  0.000  0.001  0.002  0.003
   30  0.008  0.002  0.002  0.012
   31  0.000  0.001  0.002  0.003
   32  0.006  0.002  0.002  0.011
   33  0.008  0.002  0.002  0.012
   34  0.006  0.002  0.002  0.011
   35  0.000  0.003  0.005  0.008
   36  0.000  0.000  0.002  0.002
   37  0.000  0.000  0.000  0.000
tot    0.345  0.116  0.178  0.639
 
band     9 # energy   -5.81730586 # occ.  2.00000000
 
ion      s      p      d    tot
    1  0.001  0.001  0.002  0.004
    2  0.002  0.002  0.005  0.009
    3  0.002  0.002  0.005  0.009
    4  0.002  0.002  0.005  0.009
    5  0.035  0.003  0.000  0.037
    6  0.002  0.002  0.005  0.009
    7  0.002  0.002  0.005  0.009
    8  0.002  0.002  0.005  0.009
    9  0.000  0.001  0.003  0.004
   10  0.012  0.007  0.004  0.022
   11  0.020  0.006  0.006  0.032
   12  0.012  0.007  0.004  0.023
   13  0.020  0.006  0.006  0.032
   14  0.021  0.006  0.006  0.033
   15  0.013  0.001  0.011  0.024
   16  0.012  0.007  0.004  0.023
   17  0.013  0.001  0.011  0.024
   18  0.013  0.001  0.010  0.025
   19  0.022  0.002  0.008  0.032
   20  0.017  0.008  0.003  0.028
   21  0.017  0.008  0.003  0.028
   22  0.002  0.004  0.007  0.013
   23  0.017  0.008  0.003  0.028
   24  0.002  0.004  0.007  0.013
   25  0.022  0.002  0.008  0.033
   26  0.022  0.002  0.008  0.032
   27  0.002  0.004  0.007  0.013
   28  0.002  0.002  0.003  0.007
   29  0.003  0.001  0.003  0.007
   30  0.002  0.001  0.003  0.007
   31  0.003  0.001  0.003  0.007
   32  0.003  0.001  0.003  0.007
   33  0.002  0.001  0.003  0.007
   34  0.003  0.001  0.003  0.007
   35  0.000  0.000  0.001  0.001
   36  0.033  0.001  0.001  0.035
   37  0.004  0.000  0.000  0.004
tot    0.361  0.108  0.177  0.646
 
band    10 # energy   -5.05993162 # occ.  2.00000000
 
ion      s      p      d    tot
    1  0.021  0.004  0.003  0.027
    2  0.000  0.003  0.010  0.013
    3  0.000  0.003  0.010  0.013
    4  0.000  0.003  0.010  0.013
    5  0.000  0.000  0.000  0.001
    6  0.000  0.003  0.010  0.013
    7  0.000  0.003  0.010  0.013
    8  0.000  0.003  0.010  0.013
    9  0.039  0.003  0.000  0.042
   10  0.014  0.003  0.012  0.029
   11  0.000  0.000  0.014  0.015
   12  0.014  0.003  0.012  0.029
   13  0.000  0.000  0.014  0.015
   14  0.000  0.000  0.014  0.015
   15  0.002  0.003  0.020  0.026
   16  0.014  0.003  0.012  0.029
   17  0.002  0.003  0.020  0.026
   18  0.002  0.003  0.020  0.026
   19  0.009  0.003  0.017  0.029
   20  0.002  0.000  0.018  0.021
   21  0.002  0.000  0.018  0.021
   22  0.005  0.003  0.011  0.020
   23  0.002  0.000  0.018  0.021
   24  0.005  0.003  0.011  0.020
   25  0.009  0.003  0.017  0.029
   26  0.009  0.003  0.017  0.029
   27  0.005  0.003  0.011  0.020
   28  0.021  0.004  0.002  0.027
   29  0.001  0.003  0.010  0.013
   30  0.001  0.003  0.010  0.013
   31  0.001  0.003  0.010  0.013
   32  0.001  0.003  0.010  0.013
   33  0.001  0.003  0.010  0.013
   34  0.001  0.003  0.010  0.013
   35  0.036  0.003  0.000  0.039
   36  0.001  0.000  0.001  0.002
   37  0.000  0.000  0.000  0.000
tot    0.224  0.084  0.404  0.712
 
band    11 # energy   -5.05457496 # occ.  2.00000000
 
ion      s      p      d    tot
    1  0.021  0.000  0.006  0.026
    2  0.004  0.001  0.009  0.013
    3  0.004  0.001  0.009  0.013
    4  0.004  0.001  0.009  0.013
    5  0.000  0.001  0.008  0.010
    6  0.004  0.001  0.009  0.013
    7  0.004  0.001  0.009  0.013
    8  0.004  0.001  0.009  0.013
    9  0.001  0.001  0.007  0.009
   10  0.001  0.001  0.023  0.025
   11  0.011  0.001  0.021  0.033
   12  0.001  0.001  0.023  0.025
   13  0.011  0.001  0.021  0.033
   14  0.011  0.001  0.021  0.033
   15  0.006  0.000  0.020  0.026
   16  0.001  0.001  0.023  0.025
   17  0.006  0.000  0.020  0.026
   18  0.006  0.000  0.020  0.026
   19  0.001  0.001  0.022  0.024
   20  0.009  0.000  0.023  0.032
   21  0.009  0.000  0.023  0.032
   22  0.009  0.000  0.023  0.032
   23  0.009  0.000  0.023  0.032
   24  0.009  0.000  0.023  0.032
   25  0.001  0.001  0.022  0.024
   26  0.001  0.001  0.022  0.024
   27  0.009  0.000  0.023  0.032
   28  0.022  0.000  0.006  0.028
   29  0.004  0.001  0.009  0.014
   30  0.004  0.001  0.009  0.014
   31  0.004  0.001  0.009  0.014
   32  0.004  0.001  0.009  0.014
   33  0.004  0.001  0.009  0.014
   34  0.004  0.001  0.009  0.014
   35  0.002  0.001  0.009  0.011
   36  0.000  0.002  0.004  0.006
   37  0.000  0.000  0.000  0.000
tot    0.202  0.023  0.544  0.769
 
band    12 # energy   -5.04772669 # occ.  2.00000000
 
ion      s      p      d    tot
    1  0.000  0.003  0.009  0.012
    2  0.020  0.004  0.005  0.029
    3  0.001  0.002  0.005  0.008
    4  0.020  0.004  0.005  0.029
    5  0.000  0.006  0.010  0.015
    6  0.011  0.003  0.006  0.019
    7  0.001  0.002  0.005  0.008
    8  0.012  0.003  0.006  0.020
    9  0.000  0.001  0.013  0.014
   10  0.015  0.005  0.009  0.029
   11  0.004  0.002  0.023  0.030
   12  0.004  0.001  0.016  0.021
   13  0.004  0.002  0.023  0.030
   14  0.016  0.004  0.005  0.025
   15  0.000  0.002  0.016  0.018
   16  0.004  0.001  0.015  0.021
   17  0.000  0.003  0.016  0.019
   18  0.000  0.000  0.009  0.009
   19  0.001  0.003  0.018  0.022
   20  0.023  0.005  0.005  0.033
   21  0.005  0.002  0.023  0.030
   22  0.002  0.002  0.014  0.017
   23  0.006  0.002  0.022  0.030
   24  0.008  0.003  0.009  0.020
   25  0.004  0.000  0.007  0.011
   26  0.001  0.003  0.019  0.023
   27  0.002  0.002  0.014  0.017
   28  0.000  0.002  0.012  0.014
   29  0.018  0.004  0.006  0.027
   30  0.000  0.002  0.005  0.007
   31  0.018  0.004  0.006  0.027
   32  0.013  0.003  0.005  0.021
   33  0.001  0.002  0.005  0.007
   34  0.013  0.003  0.005  0.021
   35  0.000  0.001  0.010  0.011
   36  0.000  0.007  0.005  0.012
   37  0.000  0.000  0.000  0.000
tot    0.226  0.095  0.387  0.709
 
band    13 # energy   -5.04768433 # occ.  2.00000000
 
ion      s      p      d    tot
    1  0.000  0.003  0.009  0.012
    2  0.002  0.002  0.005  0.009
    3  0.021  0.004  0.006  0.030
    4  0.002  0.002  0.005  0.009
    5  0.000  0.006  0.010  0.015
    6  0.010  0.003  0.005  0.018
    7  0.020  0.004  0.006  0.030
    8  0.010  0.003  0.005  0.018
    9  0.000  0.001  0.013  0.014
   10  0.000  0.000  0.018  0.018
   11  0.012  0.003  0.011  0.027
   12  0.011  0.004  0.011  0.026
   13  0.013  0.003  0.011  0.026
   14  0.000  0.002  0.029  0.031
   15  0.000  0.001  0.011  0.012
   16  0.011  0.004  0.011  0.026
   17  0.000  0.001  0.011  0.012
   18  0.000  0.003  0.019  0.022
   19  0.003  0.001  0.011  0.015
   20  0.000  0.001  0.028  0.029
   21  0.017  0.004  0.011  0.032
   22  0.006  0.003  0.011  0.020
   23  0.017  0.004  0.011  0.032
   24  0.000  0.001  0.015  0.016
   25  0.000  0.004  0.022  0.026
   26  0.003  0.001  0.011  0.015
   27  0.006  0.002  0.011  0.019
   28  0.000  0.002  0.012  0.014
   29  0.003  0.002  0.005  0.009
   30  0.021  0.004  0.006  0.030
   31  0.003  0.002  0.005  0.010
   32  0.008  0.003  0.005  0.016
   33  0.020  0.004  0.006  0.030
   34  0.008  0.002  0.005  0.015
   35  0.000  0.001  0.010  0.011
   36  0.000  0.007  0.005  0.012
   37  0.000  0.000  0.000  0.000
tot    0.226  0.095  0.388  0.709
 
band    14 # energy   -5.04114900 # occ.  2.00000000
 
ion      s      p      d    tot
    1  0.000  0.003  0.012  0.016
    2  0.020  0.004  0.005  0.029
    3  0.001  0.002  0.005  0.008
    4  0.020  0.004  0.005  0.029
    5  0.000  0.000  0.012  0.012
    6  0.012  0.003  0.006  0.020
    7  0.001  0.002  0.005  0.008
    8  0.012  0.003  0.006  0.020
    9  0.000  0.006  0.008  0.014
   10  0.000  0.003  0.027  0.031
   11  0.003  0.002  0.011  0.017
   12  0.004  0.002  0.011  0.017
   13  0.003  0.002  0.011  0.017
   14  0.000  0.002  0.014  0.016
   15  0.015  0.005  0.011  0.031
   16  0.004  0.002  0.011  0.017
   17  0.015  0.005  0.011  0.031
   18  0.000  0.000  0.025  0.025
   19  0.015  0.004  0.011  0.029
   20  0.000  0.003  0.017  0.020
   21  0.000  0.001  0.012  0.013
   22  0.012  0.003  0.011  0.025
   23  0.000  0.001  0.012  0.013
   24  0.000  0.003  0.027  0.029
   25  0.000  0.000  0.021  0.021
   26  0.015  0.004  0.011  0.029
   27  0.012  0.003  0.011  0.025
   28  0.000  0.004  0.008  0.012
   29  0.017  0.004  0.005  0.026
   30  0.000  0.002  0.005  0.007
   31  0.017  0.004  0.005  0.026
   32  0.012  0.003  0.005  0.020
   33  0.000  0.002  0.005  0.007
   34  0.012  0.003  0.005  0.020
   35  0.000  0.005  0.010  0.015
   36  0.000  0.000  0.007  0.007
   37  0.000  0.000  0.000  0.000
tot    0.225  0.094  0.385  0.703
 
band    15 # energy   -5.04111117 # occ.  2.00000000
 
ion      s      p      d    tot
    1  0.000  0.003  0.012  0.016
    2  0.002  0.002  0.005  0.009
    3  0.021  0.004  0.006  0.030
    4  0.002  0.002  0.005  0.009
    5  0.000  0.000  0.012  0.012
    6  0.010  0.003  0.005  0.018
    7  0.021  0.004  0.006  0.030
    8  0.010  0.003  0.005  0.018
    9  0.000  0.006  0.008  0.014
   10  0.006  0.001  0.006  0.013
   11  0.001  0.002  0.013  0.016
   12  0.001  0.003  0.022  0.026
   13  0.001  0.002  0.013  0.016
   14  0.004  0.002  0.011  0.017
   15  0.005  0.002  0.020  0.027
   16  0.001  0.003  0.022  0.026
   17  0.005  0.002  0.020  0.027
   18  0.021  0.006  0.006  0.033
   19  0.005  0.001  0.018  0.024
   20  0.000  0.000  0.010  0.011
   21  0.000  0.003  0.015  0.018
   22  0.004  0.003  0.021  0.028
   23  0.000  0.003  0.015  0.018
   24  0.016  0.003  0.005  0.024
   25  0.020  0.005  0.007  0.032
   26  0.005  0.001  0.018  0.024
   27  0.004  0.003  0.021  0.028
   28  0.000  0.004  0.008  0.012
   29  0.003  0.002  0.005  0.009
   30  0.019  0.004  0.005  0.028
   31  0.003  0.002  0.005  0.009
   32  0.008  0.003  0.005  0.016
   33  0.019  0.004  0.005  0.028
   34  0.008  0.003  0.005  0.016
   35  0.000  0.005  0.010  0.015
   36  0.000  0.000  0.007  0.007
   37  0.000  0.000  0.000  0.000
tot    0.225  0.094  0.385  0.703
 
band    16 # energy   -5.03191264 # occ.  2.00000000
 
ion      s      p      d    tot
    1  0.006  0.001  0.001  0.008
    2  0.000  0.003  0.010  0.013
    3  0.000  0.003  0.010  0.013
    4  0.000  0.003  0.010  0.013
    5  0.046  0.004  0.000  0.049
    6  0.000  0.003  0.010  0.013
    7  0.000  0.003  0.010  0.013
    8  0.000  0.003  0.010  0.013
    9  0.008  0.002  0.002  0.011
   10  0.001  0.001  0.019  0.021
   11  0.005  0.004  0.016  0.025
   12  0.001  0.001  0.019  0.021
   13  0.005  0.004  0.016  0.025
   14  0.005  0.004  0.016  0.025
   15  0.008  0.002  0.011  0.020
   16  0.001  0.001  0.019  0.021
   17  0.008  0.002  0.011  0.020
   18  0.008  0.002  0.011  0.020
   19  0.008  0.001  0.014  0.023
   20  0.007  0.004  0.015  0.027
   21  0.007  0.004  0.015  0.027
   22  0.003  0.001  0.017  0.021
   23  0.007  0.004  0.015  0.027
   24  0.003  0.001  0.017  0.022
   25  0.008  0.001  0.014  0.023
   26  0.008  0.001  0.014  0.023
   27  0.003  0.001  0.017  0.021
   28  0.004  0.001  0.002  0.008
   29  0.001  0.003  0.008  0.011
   30  0.001  0.003  0.008  0.011
   31  0.001  0.003  0.008  0.011
   32  0.001  0.003  0.008  0.011
   33  0.001  0.003  0.008  0.011
   34  0.001  0.003  0.008  0.011
   35  0.008  0.002  0.001  0.011
   36  0.058  0.001  0.004  0.063
   37  0.011  0.000  0.000  0.011
tot    0.244  0.084  0.395  0.723
 
band    17 # energy   -4.37450690 # occ.  2.00000000
 
ion      s      p      d    tot
    1  0.029  0.001  0.002  0.032
    2  0.000  0.001  0.017  0.019
    3  0.000  0.001  0.017  0.019
    4  0.000  0.001  0.017  0.019
    5  0.004  0.000  0.001  0.006
    6  0.000  0.001  0.017  0.019
    7  0.000  0.001  0.017  0.019
    8  0.000  0.001  0.017  0.019
    9  0.011  0.000  0.000  0.011
   10  0.000  0.003  0.039  0.043
   11  0.001  0.002  0.012  0.015
   12  0.000  0.003  0.039  0.043
   13  0.001  0.002  0.012  0.015
   14  0.001  0.002  0.012  0.015
   15  0.000  0.000  0.015  0.015
   16  0.000  0.003  0.039  0.043
   17  0.000  0.000  0.015  0.015
   18  0.000  0.000  0.015  0.015
   19  0.001  0.003  0.031  0.035
   20  0.000  0.002  0.039  0.040
   21  0.000  0.002  0.039  0.040
   22  0.000  0.000  0.004  0.005
   23  0.000  0.002  0.039  0.040
   24  0.000  0.000  0.004  0.005
   25  0.001  0.003  0.031  0.035
   26  0.001  0.003  0.031  0.035
   27  0.000  0.000  0.004  0.005
   28  0.021  0.001  0.002  0.023
   29  0.000  0.001  0.016  0.017
   30  0.000  0.001  0.016  0.017
   31  0.000  0.001  0.016  0.017
   32  0.000  0.001  0.016  0.017
   33  0.000  0.001  0.016  0.017
   34  0.000  0.001  0.016  0.017
   35  0.000  0.000  0.000  0.000
   36  0.033  0.000  0.006  0.039
   37  0.013  0.000  0.000  0.014
tot    0.117  0.051  0.630  0.799
 
band    18 # energy   -4.35981839 # occ.  2.00000000
 
ion      s      p      d    tot
    1  0.000  0.002  0.003  0.005
    2  0.015  0.001  0.011  0.027
    3  0.007  0.001  0.010  0.017
    4  0.015  0.001  0.011  0.027
    5  0.000  0.002  0.019  0.021
    6  0.002  0.001  0.010  0.012
    7  0.007  0.001  0.010  0.017
    8  0.002  0.001  0.010  0.013
    9  0.000  0.000  0.035  0.035
   10  0.001  0.007  0.022  0.030
   11  0.000  0.001  0.038  0.039
   12  0.000  0.002  0.011  0.014
   13  0.000  0.001  0.039  0.040
   14  0.001  0.003  0.006  0.010
   15  0.000  0.000  0.035  0.035
   16  0.000  0.002  0.012  0.014
   17  0.000  0.000  0.035  0.036
   18  0.000  0.001  0.010  0.011
   19  0.000  0.000  0.048  0.049
   20  0.001  0.007  0.019  0.027
   21  0.000  0.002  0.018  0.020
   22  0.000  0.001  0.020  0.021
   23  0.000  0.002  0.018  0.020
   24  0.000  0.003  0.018  0.021
   25  0.000  0.001  0.003  0.004
   26  0.000  0.000  0.049  0.049
   27  0.000  0.001  0.020  0.021
   28  0.000  0.001  0.031  0.032
   29  0.011  0.001  0.010  0.023
   30  0.000  0.001  0.008  0.009
   31  0.011  0.001  0.010  0.023
   32  0.012  0.001  0.010  0.023
   33  0.000  0.001  0.008  0.009
   34  0.012  0.001  0.010  0.023
   35  0.000  0.000  0.021  0.022
   36  0.000  0.003  0.000  0.003
   37  0.000  0.000  0.000  0.000
tot    0.099  0.054  0.648  0.800
 
band    19 # energy   -4.35975650 # occ.  2.00000000
 
ion      s      p      d    tot
    1  0.000  0.002  0.003  0.005
    2  0.001  0.001  0.010  0.011
    3  0.009  0.001  0.011  0.021
    4  0.001  0.001  0.010  0.011
    5  0.000  0.002  0.019  0.021
    6  0.014  0.001  0.010  0.025
    7  0.009  0.001  0.011  0.020
    8  0.014  0.001  0.010  0.025
    9  0.000  0.000  0.035  0.035
   10  0.000  0.000  0.008  0.008
   11  0.001  0.002  0.017  0.020
   12  0.001  0.005  0.019  0.025
   13  0.001  0.002  0.017  0.020
   14  0.000  0.000  0.049  0.049
   15  0.000  0.001  0.019  0.019
   16  0.001  0.005  0.019  0.025
   17  0.000  0.001  0.018  0.019
   18  0.000  0.000  0.044  0.044
   19  0.000  0.001  0.018  0.019
   20  0.000  0.000  0.018  0.018
   21  0.001  0.005  0.019  0.025
   22  0.000  0.003  0.018  0.021
   23  0.001  0.005  0.019  0.025
   24  0.000  0.000  0.020  0.021
   25  0.000  0.000  0.064  0.064
   26  0.000  0.001  0.018  0.019
   27  0.000  0.002  0.018  0.021
   28  0.000  0.001  0.031  0.032
   29  0.004  0.001  0.008  0.014
   30  0.016  0.001  0.010  0.027
   31  0.005  0.001  0.008  0.014
   32  0.003  0.001  0.009  0.014
   33  0.016  0.001  0.010  0.027
   34  0.003  0.001  0.009  0.013
   35  0.000  0.000  0.021  0.022
   36  0.000  0.003  0.000  0.003
   37  0.000  0.000  0.000  0.000
tot    0.099  0.054  0.648  0.800
 
band    20 # energy   -4.35560531 # occ.  2.00000000
 
ion      s      p      d    tot
    1  0.001  0.000  0.000  0.001
    2  0.000  0.001  0.019  0.020
    3  0.000  0.001  0.019  0.020
    4  0.000  0.001  0.019  0.020
    5  0.026  0.001  0.001  0.028
    6  0.000  0.001  0.019  0.020
    7  0.000  0.001  0.019  0.020
    8  0.000  0.001  0.019  0.020
    9  0.018  0.001  0.003  0.021
   10  0.000  0.000  0.006  0.007
   11  0.000  0.002  0.034  0.036
   12  0.000  0.000  0.006  0.007
   13  0.000  0.002  0.034  0.036
   14  0.000  0.002  0.034  0.036
   15  0.001  0.003  0.030  0.034
   16  0.000  0.000  0.006  0.007
   17  0.001  0.003  0.030  0.034
   18  0.001  0.003  0.030  0.034
   19  0.000  0.000  0.014  0.014
   20  0.000  0.002  0.015  0.017
   21  0.000  0.002  0.015  0.017
   22  0.000  0.003  0.041  0.045
   23  0.000  0.002  0.015  0.017
   24  0.000  0.003  0.041  0.045
   25  0.000  0.000  0.014  0.014
   26  0.000  0.000  0.014  0.014
   27  0.000  0.003  0.041  0.045
   28  0.010  0.000  0.000  0.010
   29  0.000  0.001  0.018  0.019
   30  0.000  0.001  0.018  0.019
   31  0.000  0.001  0.018  0.019
   32  0.000  0.001  0.018  0.019
   33  0.000  0.001  0.018  0.019
   34  0.000  0.001  0.018  0.019
   35  0.030  0.001  0.001  0.033
   36  0.008  0.000  0.000  0.008
   37  0.002  0.000  0.000  0.002
tot    0.101  0.052  0.648  0.800
 
band    21 # energy   -4.34657875 # occ.  2.00000000
 
ion      s      p      d    tot
    1  0.000  0.001  0.037  0.038
    2  0.015  0.001  0.011  0.027
    3  0.007  0.001  0.010  0.018
    4  0.015  0.001  0.011  0.027
    5  0.000  0.001  0.019  0.020
    6  0.001  0.001  0.011  0.013
    7  0.007  0.001  0.010  0.018
    8  0.001  0.001  0.011  0.013
    9  0.000  0.003  0.003  0.006
   10  0.000  0.000  0.062  0.062
   11  0.000  0.003  0.019  0.023
   12  0.000  0.000  0.019  0.019
   13  0.000  0.003  0.019  0.023
   14  0.000  0.000  0.019  0.019
   15  0.001  0.004  0.018  0.023
   16  0.000  0.000  0.019  0.019
   17  0.001  0.004  0.018  0.023
   18  0.000  0.000  0.025  0.025
   19  0.000  0.005  0.018  0.023
   20  0.000  0.000  0.057  0.057
   21  0.000  0.000  0.022  0.022
   22  0.001  0.003  0.018  0.021
   23  0.000  0.000  0.022  0.022
   24  0.000  0.000  0.049  0.049
   25  0.000  0.000  0.004  0.004
   26  0.000  0.005  0.018  0.023
   27  0.001  0.003  0.018  0.021
   28  0.000  0.002  0.005  0.007
   29  0.010  0.001  0.008  0.020
   30  0.000  0.001  0.009  0.010
   31  0.010  0.001  0.008  0.020
   32  0.012  0.001  0.008  0.021
   33  0.000  0.001  0.009  0.010
   34  0.012  0.001  0.008  0.021
   35  0.000  0.002  0.015  0.017
   36  0.000  0.000  0.015  0.015