 vasp.6.2.0 18Jan21 (build Jun 12 2021 23:27:24) complex                        
  
 executed on             LinuxIFC date 2022.05.26  20:16:48
 running on   28 total cores
 distrk:  each k-point on   28 cores,    1 groups
 distr:  one band on NCORE=   1 cores,   28 groups


--------------------------------------------------------------------------------------------------------


 INCAR:
   ISMEAR = -5
   SIGMA = 0.1
   ISPIN = 1
   EDIFF = 1.d-5
   EDIFFG = -0.01
   NSW = 0
   NELM = 150
   ENCUT = 500
   ISIF = 2
   IBRION = 2
   LREAL = Auto
   ALGO = Fast
   ICHARG = 11
   LORBIT = 10
   LCHARG = .F.
   LWAVE = .F.

 POTCAR:    PAW_PBE Au 04Oct2007                  
 POTCAR:    PAW_PBE Os 17Jan2003                  
 -----------------------------------------------------------------------------
|                                                                             |
|           W    W    AA    RRRRR   N    N  II  N    N   GGGG   !!!           |
|           W    W   A  A   R    R  NN   N  II  NN   N  G    G  !!!           |
|           W    W  A    A  R    R  N N  N  II  N N  N  G       !!!           |
|           W WW W  AAAAAA  RRRRR   N  N N  II  N  N N  G  GGG   !            |
|           WW  WW  A    A  R   R   N   NN  II  N   NN  G    G                |
|           W    W  A    A  R    R  N    N  II  N    N   GGGG   !!!           |
|                                                                             |
|     For optimal performance we recommend to set                             |
|       NCORE = 2 up to number-of-cores-per-socket                            |
|     NCORE specifies how many cores store one orbital (NPAR=cpu/NCORE).      |
|     This setting can greatly improve the performance of VASP for DFT.       |
|     The default, NCORE=1 might be grossly inefficient on modern             |
|     multi-core architectures or massively parallel machines. Do your        |
|     own testing! More info at https://www.vasp.at/wiki/index.php/NCORE      |
|     Unfortunately you need to use the default for GW and RPA                |
|     calculations (for HF NCORE is supported but not extensively tested      |
|     yet).                                                                   |
|                                                                             |
 -----------------------------------------------------------------------------

 POTCAR:    PAW_PBE Au 04Oct2007                  
   VRHFIN =Au: s1d10                                                                                
   LEXCH  = PE                                                                                      
   EATOM  =   926.0867 eV,   68.0654 Ry                                                             
                                                                                                    
   TITEL  = PAW_PBE Au 04Oct2007                                                                    
   LULTRA =        F    use ultrasoft PP ?                                                          
   IUNSCR =        1    unscreen: 0-lin 1-nonlin 2-no                                               
   RPACOR =    2.330    partial core radius                                                         
   POMASS =  196.966; ZVAL   =   11.000    mass and valenz                                          
   RCORE  =    2.500    outmost cutoff radius                                                       
   RWIGS  =    2.840; RWIGS  =    1.503    wigner-seitz radius (au A)                               
   ENMAX  =  229.943; ENMIN  =  172.457 eV                                                          
   ICORE  =        3    local potential                                                             
   LCOR   =        T    correct aug charges                                                         
   LPAW   =        T    paw PP                                                                      
   EAUG   =  356.670                                                                                
   DEXC   =    0.000                                                                                
   RMAX   =    2.562    core radius for proj-oper                                                   
   RAUG   =    1.300    factor for augmentation sphere                                              
   RDEP   =    2.598    radius for radial grids                                                     
   RDEPT  =    2.193    core radius for aug-charge                                                  
                                                                                                    
   Atomic configuration                                                                             
   16 entries                                                                                       
     n  l   j            E        occ.                                                              
     1  0  0.50    -80748.5001   2.0000                                                             
     2  0  0.50    -14244.7466   2.0000                                                             
     2  1  1.50    -12310.9591   6.0000                                                             
     3  0  0.50     -3362.1768   2.0000                                                             
     3  1  1.50     -2801.5463   6.0000                                                             
     3  2  2.50     -2203.8206  10.0000                                                             
     4  0  0.50      -729.8168   2.0000                                                             
     4  1  1.50      -546.0527   6.0000                                                             
     4  2  2.50      -325.7302  10.0000                                                             
     4  3  3.50       -81.1472  14.0000                                                             
     5  0  0.50      -108.3201   2.0000                                                             
     5  1  1.50       -59.7479   6.0000                                                             
     5  2  2.50        -6.8783  10.0000                                                             
     6  0  0.50        -5.7602   1.0000                                                             
     6  1  1.50        -6.8029   0.0000                                                             
     5  3  2.50        -1.3606   0.0000                                                             
   Description                                                                                      
     l       E           TYP  RCUT    TYP  RCUT                                                     
     2     -6.8782861     23  2.500                                                                 
     2     -8.2388687     23  2.500                                                                 
     0     -5.7601759     23  2.500                                                                 
     0     -0.8493231     23  2.500                                                                 
     1     -2.7211652     23  2.500                                                                 
     1     27.2116520     23  2.500                                                                 
     3     -1.3605826     23  2.500                                                                 
  local pseudopotential read in
  partial core-charges read in
  partial kinetic energy density read in
  atomic valenz-charges read in
  non local Contribution for L=           2  read in
    real space projection operators read in
  non local Contribution for L=           2  read in
    real space projection operators read in
  non local Contribution for L=           0  read in
    real space projection operators read in
  non local Contribution for L=           0  read in
    real space projection operators read in
  non local Contribution for L=           1  read in
    real space projection operators read in
  non local Contribution for L=           1  read in
    real space projection operators read in
    PAW grid and wavefunctions read in
 
   number of l-projection  operators is LMAX  =           6
   number of lm-projection operators is LMMAX =          18
 
 POTCAR:    PAW_PBE Os 17Jan2003                  
   VRHFIN =Os: 6s5d                                                                                 
   LEXCH  = PE                                                                                      
   EATOM  =   417.5999 eV,   30.6927 Ry                                                             
                                                                                                    
   TITEL  = PAW_PBE Os 17Jan2003                                                                    
   LULTRA =        F    use ultrasoft PP ?                                                          
   IUNSCR =        1    unscreen: 0-lin 1-nonlin 2-no                                               
   RPACOR =    2.250    partial core radius                                                         
   POMASS =  190.200; ZVAL   =    8.000    mass and valenz                                          
   RCORE  =    2.700    outmost cutoff radius                                                       
   RWIGS  =    2.670; RWIGS  =    1.413    wigner-seitz radius (au A)                               
   ENMAX  =  228.022; ENMIN  =  171.017 eV                                                          
   RCLOC  =    2.004    cutoff for local pot                                                        
   LCOR   =        T    correct aug charges                                                         
   LPAW   =        T    paw PP                                                                      
   EAUG   =  365.080                                                                                
   DEXC   =    0.000                                                                                
   RMAX   =    2.766    core radius for proj-oper                                                   
   RAUG   =    1.300    factor for augmentation sphere                                              
   RDEP   =    2.738    radius for radial grids                                                     
   RDEPT  =    2.220    core radius for aug-charge                                                  
                                                                                                    
   Atomic configuration                                                                             
   16 entries                                                                                       
     n  l   j            E        occ.                                                              
     1  0  0.50    -73844.2437   2.0000                                                             
     2  0  0.50    -12856.6893   2.0000                                                             
     2  1  1.50    -11191.7995   6.0000                                                             
     3  0  0.50     -2990.1422   2.0000                                                             
     3  1  1.50     -2501.5221   6.0000                                                             
     3  2  2.50     -1956.5818  10.0000                                                             
     4  0  0.50      -629.1606   2.0000                                                             
     4  1  1.50      -468.9548   6.0000                                                             
     4  2  2.50      -270.2868  10.0000                                                             
     4  3  3.50       -49.5699  14.0000                                                             
     5  0  0.50       -89.1521   2.0000                                                             
     5  1  1.50       -48.6063   6.0000                                                             
     5  2  2.50        -4.7055   7.0000                                                             
     6  0  0.50        -5.4288   1.0000                                                             
     6  1  1.50        -2.7212   0.0000                                                             
     5  3  2.50        -6.8029   0.0000                                                             
   Description                                                                                      
     l       E           TYP  RCUT    TYP  RCUT                                                     
     2     -4.7055230     23  2.500                                                                 
     2     -6.0661056     23  2.500                                                                 
     0     -5.4288441     23  2.500                                                                 
     0      3.7338294     23  2.500                                                                 
     1     -2.7211652     23  2.700                                                                 
     1     27.2116520     23  2.700                                                                 
  local pseudopotential read in
  partial core-charges read in
  partial kinetic energy density read in
  atomic valenz-charges read in
  non local Contribution for L=           2  read in
    real space projection operators read in
  non local Contribution for L=           2  read in
    real space projection operators read in
  non local Contribution for L=           0  read in
    real space projection operators read in
  non local Contribution for L=           0  read in
    real space projection operators read in
  non local Contribution for L=           1  read in
    real space projection operators read in
  non local Contribution for L=           1  read in
    real space projection operators read in
    PAW grid and wavefunctions read in
 
   number of l-projection  operators is LMAX  =           6
   number of lm-projection operators is LMMAX =          18
 
 Optimization of the real space projectors (new method)

 maximal supplied QI-value         = 15.12
 optimisation between [QCUT,QGAM] = [ 11.34, 22.83] = [ 36.00,145.93] Ry 
 Optimized for a Real-space Cutoff    1.39 Angstroem

   l    n(q)    QCUT    max X(q) W(low)/X(q) W(high)/X(q)  e(spline) 
   2      9    11.338    60.898    0.39E-03    0.42E-03    0.21E-06
   2      9    11.338    58.894    0.40E-03    0.42E-03    0.22E-06
   0      9    11.338   109.617    0.13E-03    0.20E-04    0.13E-06
   0      9    11.338    75.026    0.13E-03    0.20E-04    0.13E-06
   1      9    11.338    16.344    0.33E-04    0.24E-03    0.18E-06
   1      9    11.338    10.160    0.26E-04    0.19E-03    0.15E-06
 Optimization of the real space projectors (new method)

 maximal supplied QI-value         = 13.98
 optimisation between [QCUT,QGAM] = [ 11.33, 22.79] = [ 35.93,145.49] Ry 
 Optimized for a Real-space Cutoff    1.56 Angstroem

   l    n(q)    QCUT    max X(q) W(low)/X(q) W(high)/X(q)  e(spline) 
   2     10    11.327   152.873    0.32E-03    0.72E-03    0.11E-05
   2     10    11.327   151.010    0.32E-03    0.72E-03    0.11E-05
   0     11    11.327    72.114    0.43E-04    0.61E-04    0.13E-06
   0     11    11.327    44.596    0.40E-04    0.57E-04    0.12E-06
   1     10    11.327    13.742    0.16E-03    0.10E-03    0.19E-06
   1     10    11.327     8.461    0.12E-03    0.78E-04    0.15E-06
  PAW_PBE Au 04Oct2007                  :
 energy of atom  1       EATOM= -926.0867
 kinetic energy error for atom=    0.0042 (will be added to EATOM!!)
  PAW_PBE Os 17Jan2003                  :
 energy of atom  2       EATOM= -417.5999
 kinetic energy error for atom=    0.0029 (will be added to EATOM!!)
 
 
 POSCAR: Au-Os
  positions in direct lattice
  velocities in cartesian coordinates
 exchange correlation table for  LEXCH =        8
   RHO(1)=    0.500       N(1)  =     2000
   RHO(2)=  100.500       N(2)  =     4000

 VTST: version 3.2, (02/03/18)

 CHAIN: initializing optimizer
 
 OPT: Using VASP Conjugate-Gradient optimizer
 CHAIN: Read ICHAIN            0
 
 POSCAR: Au-Os
  positions in direct lattice
  velocities in cartesian coordinates
 


--------------------------------------------------------------------------------------------------------


 ion  position               nearest neighbor table
   1  0.000  0.000  0.238-  16 2.94  12 2.94   6 2.94   8 2.94   7 2.94   3 2.94  10 2.94   4 2.94
                             2 2.94
   2  0.333  0.000  0.238-   9 2.94  11 2.94  17 2.94  10 2.94   8 2.94   4 2.94   5 2.94   1 2.94
                             3 2.94
   3  0.667  0.000  0.238-   7 2.94  18 2.94  12 2.94   1 2.94  11 2.94   5 2.94   6 2.94   9 2.94
                             2 2.94
   4  0.000  0.333  0.238-  10 2.94   6 2.94   5 2.94  13 2.94   2 2.94  15 2.94   9 2.94   1 2.94
                             7 2.94
   5  0.333  0.333  0.238-  13 2.94   7 2.94  11 2.94   4 2.94   2 2.94  14 2.94   3 2.94   8 2.94
                             6 2.94
   6  0.667  0.333  0.238-  15 2.94  14 2.94   1 2.94  12 2.94   4 2.94   9 2.94   8 2.94   3 2.94
                             5 2.94
   7  0.000  0.667  0.238-  18 2.94   3 2.94  16 2.94   5 2.94   1 2.94  13 2.94   8 2.94   4 2.94
                             9 2.94
   8  0.333  0.667  0.238-   9 2.94  17 2.94   1 2.94   2 2.94  14 2.94  16 2.94   6 2.94   7 2.94
                             5 2.94
   9  0.667  0.667  0.238-   2 2.94   8 2.94  17 2.94   6 2.94  15 2.94   4 2.94   3 2.94  18 2.94
                             7 2.94
  10  0.111  0.111  0.346-  20 2.90  11 2.94  17 2.94   2 2.94   4 2.94   1 2.94  12 2.94  16 2.94
                            13 2.94  15 2.94  26 2.95  19 2.95
  11  0.444  0.111  0.346-  20 2.91  21 2.91  27 2.94  13 2.94   2 2.94  10 2.94  17 2.94   5 2.94
                             3 2.94  18 2.94  14 2.94  12 2.94
  12  0.778  0.111  0.346-  21 2.90  16 2.94  18 2.94   1 2.94  14 2.94  15 2.94   3 2.94   6 2.94
                            10 2.94  11 2.94  25 2.95  19 2.95
  13  0.111  0.444  0.346-  23 2.91  20 2.91  22 2.94   5 2.94  18 2.94  11 2.94   7 2.94   4 2.94
                            16 2.94  10 2.94  14 2.94  15 2.94
  14  0.444  0.444  0.346-  21 2.91  23 2.91  24 2.94  15 2.94   6 2.94  12 2.94   8 2.94  17 2.94
                             5 2.94  16 2.94  13 2.94  11 2.94
  15  0.778  0.444  0.346-  24 2.92  22 2.92  14 2.94   6 2.94  17 2.94  12 2.94   9 2.94   4 2.94
                            10 2.94  13 2.94  18 2.94  19 2.95
  16  0.111  0.778  0.346-  23 2.90  18 2.94  12 2.94   7 2.94   1 2.94   8 2.94  13 2.94  10 2.94
                            14 2.94  17 2.94  25 2.95  26 2.95
  17  0.444  0.778  0.346-  27 2.92  24 2.92   9 2.94  15 2.94   2 2.94  10 2.94  11 2.94   8 2.94
                            14 2.94  16 2.94  18 2.94  26 2.95
  18  0.778  0.778  0.346-  22 2.92  27 2.92  16 2.94   7 2.94  13 2.94  12 2.94   3 2.94  11 2.94
                             9 2.94  15 2.94  17 2.94  25 2.95
  19  0.888  0.223  0.455-  24 2.93  22 2.93  21 2.93  20 2.93  28 2.95  15 2.95  26 2.95  25 2.95
                            10 2.95  12 2.95  32 2.98  31 2.98
  20  0.222  0.222  0.452-  36 2.77  10 2.90  11 2.91  13 2.91  26 2.93  19 2.93  23 2.95  21 2.95
                            27 2.96  22 2.96  29 2.96  31 2.96
  21  0.556  0.222  0.452-  36 2.77  12 2.90  14 2.91  11 2.91  25 2.93  19 2.93  20 2.95  23 2.95
                            27 2.96  24 2.96  30 2.96  32 2.96
  22  0.886  0.557  0.453-  24 2.90  27 2.90  18 2.92  15 2.92  25 2.93  19 2.93  13 2.94  35 2.95
                            23 2.96  20 2.96  33 2.98  31 2.98
  23  0.222  0.556  0.452-  36 2.77  16 2.90  13 2.91  14 2.91  25 2.93  26 2.93  20 2.95  21 2.95
                            22 2.96  24 2.96  33 2.96  34 2.96
  24  0.557  0.557  0.453-  27 2.90  22 2.90  15 2.92  17 2.92  26 2.93  19 2.93  14 2.94  35 2.95
                            21 2.96  23 2.96  32 2.98  34 2.98
  25  0.888  0.888  0.455-  22 2.93  27 2.93  23 2.93  21 2.93  28 2.95  18 2.95  19 2.95  26 2.95
                            16 2.95  12 2.95  33 2.98  30 2.98
  26  0.223  0.888  0.455-  27 2.93  24 2.93  20 2.93  23 2.93  28 2.95  17 2.95  19 2.95  25 2.95
                            10 2.95  16 2.95  29 2.98  34 2.98
  27  0.557  0.886  0.453-  24 2.90  22 2.90  17 2.92  18 2.92  26 2.93  25 2.93  11 2.94  35 2.95
                            20 2.96  21 2.96  29 2.98  30 2.98
  28  0.000  0.000  0.563-  25 2.95  19 2.95  26 2.95  34 2.98  32 2.98  33 2.98  30 2.98  31 2.98
                            29 2.98
  29  0.333  0.009  0.563-  31 2.86  30 2.86  36 2.88  20 2.96  28 2.98  35 2.98  27 2.98  26 2.98
                            34 3.09
  30  0.658  0.009  0.563-  32 2.86  29 2.86  36 2.88  21 2.96  28 2.98  35 2.98  27 2.98  25 2.98
                            33 3.09
  31  0.009  0.333  0.563-  29 2.86  33 2.86  36 2.88  20 2.96  28 2.98  35 2.98  22 2.98  19 2.98
                            32 3.09
  32  0.658  0.333  0.563-  30 2.86  34 2.86  36 2.88  21 2.96  28 2.98  35 2.98  24 2.98  19 2.98
                            31 3.09
  33  0.009  0.658  0.563-  34 2.86  31 2.86  36 2.88  23 2.96  28 2.98  35 2.98  22 2.98  25 2.98
                            30 3.09
  34  0.333  0.658  0.563-  33 2.86  32 2.86  36 2.88  23 2.96  28 2.98  35 2.98  24 2.98  26 2.98
                            29 3.09
  35  0.667  0.667  0.563-  24 2.95  27 2.95  22 2.95  29 2.98  34 2.98  32 2.98  31 2.98  30 2.98
                            33 2.98
  36  0.333  0.333  0.550-  20 2.77  23 2.77  21 2.77  33 2.88  31 2.88  29 2.88  30 2.88  34 2.88
                            32 2.88
 
  LATTYP: Found a hexagonal cell.
 ALAT       =     8.8135128021
 C/A-ratio  =     2.5184286595
  
  Lattice vectors:
  
 A1 = (  -4.4067569092,  -7.6327256898,   0.0000000000)
 A2 = (   8.8135128021,   0.0000000000,   0.0000000000)
 A3 = (   0.0000000000,   0.0000000000,  22.1962032318)


Analysis of symmetry for initial positions (statically):
=====================================================================
 Subroutine PRICEL returns:
 Original cell was already a primitive cell.
 

 Routine SETGRP: Setting up the symmetry group for a 
 hexagonal supercell.


 Subroutine GETGRP returns: Found  6 space group operations
 (whereof  6 operations were pure point group operations)
 out of a pool of 24 trial point group operations.


The static configuration has the point symmetry C_3v.


Analysis of symmetry for dynamics (positions and initial velocities):
=====================================================================
 Subroutine PRICEL returns:
 Original cell was already a primitive cell.
 

 Routine SETGRP: Setting up the symmetry group for a 
 hexagonal supercell.


 Subroutine GETGRP returns: Found  6 space group operations
 (whereof  6 operations were pure point group operations)
 out of a pool of 24 trial point group operations.


The dynamic configuration has the point symmetry C_3v.


Analysis of constrained symmetry for selective dynamics:
=====================================================================
 Subroutine PRICEL returns:
 Original cell was already a primitive cell.
 

 Routine SETGRP: Setting up the symmetry group for a 
 hexagonal supercell.


 Subroutine GETGRP returns: Found  6 space group operations
 (whereof  6 operations were pure point group operations)
 out of a pool of 24 trial point group operations.


The constrained configuration has the point symmetry C_3v.


 Subroutine INISYM returns: Found  6 space group operations
 (whereof  6 operations are pure point group operations),
 and found     1 'primitive' translations


----------------------------------------------------------------------------------------

                                     Primitive cell                                     

  volume of cell :    1493.1636

  direct lattice vectors                    reciprocal lattice vectors
     8.813512802  0.000000000  0.000000000     0.113462137 -0.065507406  0.000000000
     4.406756909  7.632725690  0.000000000     0.000000000  0.131014796  0.000000000
     0.000000000  0.000000000 22.196203232     0.000000000  0.000000000  0.045052750

  length of vectors
     8.813512802  8.813512802 22.196203232     0.131014796  0.131014796  0.045052750

  position of ions in fractional coordinates (direct lattice)
     0.000000000  0.000000000  0.237895638
     0.333333343  0.000000000  0.237895638
     0.666666687  0.000000000  0.237895638
     1.000000000  0.333333343  0.237895638
     0.333333313  0.333333343  0.237895638
     0.666666687  0.333333343  0.237895638
     1.000000000  0.666666687  0.237895638
     0.333333343  0.666666687  0.237895638
     0.666666627  0.666666687  0.237895638
     0.111111119  0.111111112  0.345965207
     0.444444418  0.111111112  0.345965207
     0.777777791  0.111111112  0.345965207
     0.111111127  0.444444448  0.345965207
     0.444444478  0.444444448  0.345965207
     0.777777731  0.444444448  0.345965207
     0.111111090  0.777777791  0.345965207
     0.444444448  0.777777791  0.345965207
     0.777777851  0.777777791  0.345965207
     0.888433906  0.223132205  0.454805226
     0.221845884  0.221845869  0.452135904
     0.556308293  0.221845869  0.452135904
     0.886246892  0.556876584  0.453359655
     0.221845839  0.556308293  0.452135904
     0.556876584  0.556876584  0.453359655
     0.888433906  0.888433906  0.454805226
     0.223132235  0.888433906  0.454805226
     0.556876524  0.886246892  0.453359655
     0.000000000  0.000000000  0.563113138
     0.333311485  0.008509540  0.563281954
     0.658179005  0.008509540  0.563281954
     0.008509540  0.333311485  0.563281954
     0.658179005  0.333311485  0.563281954
     0.008509540  0.658179005  0.563281954
     0.333311485  0.658179005  0.563281954
     0.666666627  0.666666687  0.562979701
     0.333333313  0.333333343  0.550313345

  ion indices of the primitive-cell ions
   primitive index   ion index
                 1           1
                 2           2
                 3           3
                 4           4
                 5           5
                 6           6
                 7           7
                 8           8
                 9           9
                10          10
                11          11
                12          12
                13          13
                14          14
                15          15
                16          16
                17          17
                18          18
                19          19
                20          20
                21          21
                22          22
                23          23
                24          24
                25          25
                26          26
                27          27
                28          28
                29          29
                30          30
                31          31
                32          32
                33          33
                34          34
                35          35
                36          36

----------------------------------------------------------------------------------------

 
 
 KPOINTS: Automatic mesh                          

Automatic generation of k-mesh.
 Grid dimensions read from file:
 generate k-points for:    8    8    1

 Generating k-lattice:

  Cartesian coordinates                     Fractional coordinates (reciprocal lattice)
     0.014182767 -0.008188426  0.000000000     0.125000000 -0.000000000  0.000000000
     0.000000000  0.016376850  0.000000000     0.000000000  0.125000000  0.000000000
     0.000000000  0.000000000  0.045052750     0.000000000  0.000000000  1.000000000

  Length of vectors
     0.016376850  0.016376850  0.045052750

  Shift w.r.t. Gamma in fractional coordinates (k-lattice)
     0.000000000  0.000000000  0.000000000

 TETIRR: Found     36 inequivalent tetrahedra from      384
 
 Subroutine IBZKPT returns following result:
 ===========================================
 
 Found     10 irreducible k-points:
 
 Following reciprocal coordinates:
            Coordinates               Weight
  0.000000  0.000000  0.000000      1.000000
  0.125000 -0.000000  0.000000      6.000000
  0.250000 -0.000000  0.000000      6.000000
  0.375000  0.000000  0.000000      6.000000
  0.500000 -0.000000  0.000000      3.000000
  0.250000  0.125000  0.000000      6.000000
  0.375000  0.125000  0.000000     12.000000
  0.500000  0.125000  0.000000     12.000000
  0.500000  0.250000  0.000000      6.000000
 -0.375000  0.250000  0.000000      6.000000
 
 Following cartesian coordinates:
            Coordinates               Weight
  0.000000  0.000000  0.000000      1.000000
  0.014183 -0.008188  0.000000      6.000000
  0.028366 -0.016377  0.000000      6.000000
  0.042548 -0.024565  0.000000      6.000000
  0.056731 -0.032754  0.000000      3.000000
  0.028366 -0.000000  0.000000      6.000000
  0.042548 -0.008188  0.000000     12.000000
  0.056731 -0.016377  0.000000     12.000000
  0.056731 -0.000000  0.000000      6.000000
 -0.042548  0.057319  0.000000      6.000000
 


--------------------------------------------------------------------------------------------------------




 Dimension of arrays:
   k-points           NKPTS =     10   k-points in BZ     NKDIM =     10   number of bands    NBANDS=    252
   number of dos      NEDOS =    301   number of ions     NIONS =     36
   non local maximal  LDIM  =      6   non local SUM 2l+1 LMDIM =     18
   total plane-waves  NPLWV = 290304
   max r-space proj   IRMAX =   3166   max aug-charges    IRDMAX=  12088
   dimension x,y,z NGX =    48 NGY =   48 NGZ =  126
   dimension x,y,z NGXF=    96 NGYF=   96 NGZF=  252
   support grid    NGXF=    96 NGYF=   96 NGZF=  252
   ions per type =              35   1
   NGX,Y,Z   is equivalent  to a cutoff of   9.05,  9.05,  9.44 a.u.
   NGXF,Y,Z  is equivalent  to a cutoff of  18.11, 18.11, 18.87 a.u.

 SYSTEM =  unknown system                          
 POSCAR =  Au-Os                                   

 Startparameter for this run:
   NWRITE =      2    write-flag & timer
   PREC   = normal    normal or accurate (medium, high low for compatibility)
   ISTART =      0    job   : 0-new  1-cont  2-samecut
   ICHARG =     11    charge: 1-file 2-atom 10-const
   ISPIN  =      1    spin polarized calculation?
   LNONCOLLINEAR =      F non collinear calculations
   LSORBIT =      F    spin-orbit coupling
   INIWAV =      1    electr: 0-lowe 1-rand  2-diag
   LASPH  =      F    aspherical Exc in radial PAW
   METAGGA=      F    non-selfconsistent MetaGGA calc.

 Electronic Relaxation 1
   ENCUT  =  500.0 eV  36.75 Ry    6.06 a.u.  16.07 16.07 40.47*2*pi/ulx,y,z
   ENINI  =  500.0     initial cutoff
   ENAUG  =  365.1 eV  augmentation charge cutoff
   NELM   =    150;   NELMIN=  2; NELMDL= -5     # of ELM steps 
   EDIFF  = 0.1E-04   stopping-criterion for ELM
   LREAL  =      T    real-space projection
   NLSPLINE    = F    spline interpolate recip. space projectors
   LCOMPAT=      F    compatible to vasp.4.4
   GGA_COMPAT  = T    GGA compatible to vasp.4.4-vasp.4.6
   LMAXPAW     = -100 max onsite density
   LMAXMIX     =    2 max onsite mixed and CHGCAR
   VOSKOWN=      0    Vosko Wilk Nusair interpolation
   ROPT   =   -0.00050  -0.00050
 Ionic relaxation
   EDIFFG = -.1E-01   stopping-criterion for IOM
   NSW    =      0    number of steps for IOM
   NBLOCK =      1;   KBLOCK =      1    inner block; outer block 
   IBRION =     -1    ionic relax: 0-MD 1-quasi-New 2-CG
   NFREE  =      1    steps in history (QN), initial steepest desc. (CG)
   ISIF   =      2    stress and relaxation
   IWAVPR =     10    prediction:  0-non 1-charg 2-wave 3-comb
   ISYM   =      2    0-nonsym 1-usesym 2-fastsym
   LCORR  =      T    Harris-Foulkes like correction to forces

   POTIM  = 0.5000    time-step for ionic-motion
   TEIN   =    0.0    initial temperature
   TEBEG  =    0.0;   TEEND  =   0.0 temperature during run
   SMASS  =  -3.00    Nose mass-parameter (am)
   estimated Nose-frequenzy (Omega)   =  0.10E-29 period in steps = 0.13E+47 mass=  -0.178E-26a.u.
   SCALEE = 1.0000    scale energy and forces
   NPACO  =    256;   APACO  = 16.0  distance and # of slots for P.C.
   PSTRESS=    0.0 pullay stress

  Mass of Ions in am
   POMASS = 196.97190.20
  Ionic Valenz
   ZVAL   =  11.00  8.00
  Atomic Wigner-Seitz radii
   RWIGS  =  -1.00 -1.00
  virtual crystal weights 
   VCA    =   1.00  1.00
   NELECT =     393.0000    total number of electrons
   NUPDOWN=      -1.0000    fix difference up-down

 DOS related values:
   EMIN   =  10.00;   EMAX   =-10.00  energy-range for DOS
   EFERMI =   0.00
   ISMEAR =    -5;   SIGMA  =   0.10  broadening in eV -4-tet -1-fermi 0-gaus

 Electronic relaxation 2 (details)
   IALGO  =     68    algorithm
   LDIAG  =      T    sub-space diagonalisation (order eigenvalues)
   LSUBROT=      F    optimize rotation matrix (better conditioning)
   TURBO    =      0    0=normal 1=particle mesh
   IRESTART =      0    0=no restart 2=restart with 2 vectors
   NREBOOT  =      0    no. of reboots
   NMIN     =      0    reboot dimension
   EREF     =   0.00    reference energy to select bands
   IMIX   =      4    mixing-type and parameters
     AMIX     =   0.40;   BMIX     =  1.00
     AMIX_MAG =   1.60;   BMIX_MAG =  1.00
     AMIN     =   0.10
     WC   =   100.;   INIMIX=   1;  MIXPRE=   1;  MAXMIX= -45

 Intra band minimization:
   WEIMIN = 0.0000     energy-eigenvalue tresh-hold
   EBREAK =  0.99E-08  absolut break condition
   DEPER  =   0.30     relativ break condition  

   TIME   =   0.40     timestep for ELM

  volume/ion in A,a.u.               =      41.48       279.90
  Fermi-wavevector in a.u.,A,eV,Ry     =   1.049148  1.982601 14.976075  1.100710
  Thomas-Fermi vector in A             =   2.184098
 
 Write flags
   LWAVE        =      F    write WAVECAR
   LDOWNSAMPLE  =      F    k-point downsampling of WAVECAR
   LCHARG       =      F    write CHGCAR
   LVTOT        =      F    write LOCPOT, total local potential
   LVHAR        =      F    write LOCPOT, Hartree potential only
   LELF         =      F    write electronic localiz. function (ELF)
   LORBIT       =     10    0 simple, 1 ext, 2 COOP (PROOUT), +10 PAW based schemes


 Dipole corrections
   LMONO  =      F    monopole corrections only (constant potential shift)
   LDIPOL =      F    correct potential (dipole corrections)
   IDIPOL =      0    1-x, 2-y, 3-z, 4-all directions 
   EPSILON=  1.0000000 bulk dielectric constant

 Exchange correlation treatment:
   GGA     =    --    GGA type
   LEXCH   =     8    internal setting for exchange type
   VOSKOWN=      0    Vosko Wilk Nusair interpolation
   LHFCALC =     F    Hartree Fock is set to
   LHFONE  =     F    Hartree Fock one center treatment
   AEXX    =    0.0000 exact exchange contribution

 Linear response parameters
   LEPSILON=     F    determine dielectric tensor
   LRPA    =     F    only Hartree local field effects (RPA)
   LNABLA  =     F    use nabla operator in PAW spheres
   LVEL    =     F    velocity operator in full k-point grid
   LINTERFAST=   F  fast interpolation
   KINTER  =     0    interpolate to denser k-point grid
   CSHIFT  =0.1000    complex shift for real part using Kramers Kronig
   OMEGAMAX=  -1.0    maximum frequency
   DEG_THRESHOLD= 0.2000000E-02 threshold for treating states as degnerate
   RTIME   =   -0.100 relaxation time in fs
  (WPLASMAI=    0.000 imaginary part of plasma frequency in eV, 0.658/RTIME)
   DFIELD  = 0.0000000 0.0000000 0.0000000 field for delta impulse in time
 
 Orbital magnetization related:
   ORBITALMAG=     F  switch on orbital magnetization
   LCHIMAG   =     F  perturbation theory with respect to B field
   DQ        =  0.001000  dq finite difference perturbation B field
   LLRAUG    =     F  two centre corrections for induced B field



--------------------------------------------------------------------------------------------------------


 Static calculation
 charge density and potential remain constant during run
 non-spin polarized calculation
 RMM-DIIS sequential band-by-band and
  variant of blocked Davidson during initial phase
 perform sub-space diagonalisation
    before iterative eigenvector-optimisation
 no mixing
 using additional bands           55
 real space projection scheme for non local part
 use partial core corrections
 calculate Harris-corrections to forces 
   (improved forces if not selfconsistent)
 use gradient corrections 
 WARNING: stress and forces are not correct
  (second derivative of E(xc) not defined)
 use of overlap-Matrix (Vanderbilt PP)
 Fermi weights with tetrahedron method with Bloechl corrections


--------------------------------------------------------------------------------------------------------


  energy-cutoff  :      500.00
  volume of cell :     1493.16
      direct lattice vectors                 reciprocal lattice vectors
     8.813512802  0.000000000  0.000000000     0.113462137 -0.065507406  0.000000000
     4.406756909  7.632725690  0.000000000     0.000000000  0.131014796  0.000000000
     0.000000000  0.000000000 22.196203232     0.000000000  0.000000000  0.045052750

  length of vectors
     8.813512802  8.813512802 22.196203232     0.131014796  0.131014796  0.045052750


 
 k-points in units of 2pi/SCALE and weight: Automatic mesh                          
   0.00000000  0.00000000  0.00000000       0.016
   0.01418277 -0.00818843  0.00000000       0.094
   0.02836553 -0.01637685  0.00000000       0.094
   0.04254830 -0.02456528  0.00000000       0.094
   0.05673107 -0.03275370  0.00000000       0.047
   0.02836553 -0.00000000  0.00000000       0.094
   0.04254830 -0.00818843  0.00000000       0.188
   0.05673107 -0.01637685  0.00000000       0.188
   0.05673107 -0.00000000  0.00000000       0.094
  -0.04254830  0.05731898  0.00000000       0.094
 
 k-points in reciprocal lattice and weights: Automatic mesh                          
   0.00000000  0.00000000  0.00000000       0.016
   0.12500000 -0.00000000  0.00000000       0.094
   0.25000000 -0.00000000  0.00000000       0.094
   0.37500000  0.00000000  0.00000000       0.094
   0.50000000 -0.00000000  0.00000000       0.047
   0.25000000  0.12500000  0.00000000       0.094
   0.37500000  0.12500000  0.00000000       0.188
   0.50000000  0.12500000  0.00000000       0.188
   0.50000000  0.25000000  0.00000000       0.094
  -0.37500000  0.25000000  0.00000000       0.094
 
 position of ions in fractional coordinates (direct lattice) 
   0.00000000  0.00000000  0.23789564
   0.33333334  0.00000000  0.23789564
   0.66666669  0.00000000  0.23789564
   0.00000000  0.33333334  0.23789564
   0.33333331  0.33333334  0.23789564
   0.66666669  0.33333334  0.23789564
   0.00000000  0.66666669  0.23789564
   0.33333334  0.66666669  0.23789564
   0.66666663  0.66666669  0.23789564
   0.11111112  0.11111111  0.34596521
   0.44444442  0.11111111  0.34596521
   0.77777779  0.11111111  0.34596521
   0.11111113  0.44444445  0.34596521
   0.44444448  0.44444445  0.34596521
   0.77777773  0.44444445  0.34596521
   0.11111109  0.77777779  0.34596521
   0.44444445  0.77777779  0.34596521
   0.77777785  0.77777779  0.34596521
   0.88843391  0.22313220  0.45480523
   0.22184588  0.22184587  0.45213590
   0.55630829  0.22184587  0.45213590
   0.88624689  0.55687658  0.45335966
   0.22184584  0.55630829  0.45213590
   0.55687658  0.55687658  0.45335966
   0.88843391  0.88843391  0.45480523
   0.22313223  0.88843391  0.45480523
   0.55687652  0.88624689  0.45335966
   0.00000000  0.00000000  0.56311314
   0.33331149  0.00850954  0.56328195
   0.65817900  0.00850954  0.56328195
   0.00850954  0.33331149  0.56328195
   0.65817900  0.33331149  0.56328195
   0.00850954  0.65817900  0.56328195
   0.33331149  0.65817900  0.56328195
   0.66666663  0.66666669  0.56297970
   0.33333331  0.33333334  0.55031334
 
 position of ions in cartesian coordinates  (Angst):
   0.00000000  0.00000000  5.28037993
   2.93783769  0.00000000  5.28037993
   5.87567538  0.00000000  5.28037993
   1.46891901  2.54424197  5.28037993
   4.40675643  2.54424197  5.28037993
   7.34459439  2.54424197  5.28037993
   2.93783803  5.08848395  5.28037993
   5.87567571  5.08848395  5.28037993
   8.81351288  5.08848395  5.28037993
   1.46891893  0.84808064  7.67911405
   4.40675623  0.84808064  7.67911405
   7.34459418  0.84808064  7.67911405
   2.93783798  3.39232256  7.67911405
   5.87567574  3.39232256  7.67911405
   8.81351263  3.39232256  7.67911405
   4.40675667  5.93656453  7.67911405
   7.34459449  5.93656453  7.67911405
  10.28243270  5.93656453  7.67911405
   8.81351299  1.70310691 10.09494923
   2.93286235  1.69328866 10.03570041
   5.88065107  1.69328866 10.03570041
  10.26496806  4.25048621 10.06286304
   4.40675655  4.24614860 10.03570041
   7.36205863  4.25048621 10.06286304
  11.74533585  6.78117230 10.09494923
   5.88169106  6.78117230 10.09494923
   8.81351299  6.76447942 10.06286304
   0.00000000  0.00000000 12.49897366
   2.97514452  0.06495099 12.50272073
   5.83836856  0.06495099 12.50272073
   1.54382163  2.54407513 12.50272073
   7.26969177  2.54407513 12.50272073
   2.97543382  5.02369980 12.50272073
   5.83807992  5.02369980 12.50272073
   8.81351288  5.08848395 12.49601187
   4.40675643  2.54424197 12.21486684
 


--------------------------------------------------------------------------------------------------------


 k-point   1 :   0.0000 0.0000 0.0000  plane waves:   37827
 k-point   2 :   0.1250-0.0000 0.0000  plane waves:   37876
 k-point   3 :   0.2500-0.0000 0.0000  plane waves:   37924
 k-point   4 :   0.3750 0.0000 0.0000  plane waves:   37904
 k-point   5 :   0.5000-0.0000 0.0000  plane waves:   37912
 k-point   6 :   0.2500 0.1250 0.0000  plane waves:   37858
 k-point   7 :   0.3750 0.1250 0.0000  plane waves:   37928
 k-point   8 :   0.5000 0.1250 0.0000  plane waves:   37924
 k-point   9 :   0.5000 0.2500 0.0000  plane waves:   37926
 k-point  10 :  -0.3750 0.2500 0.0000  plane waves:   37916

 maximum and minimum number of plane-waves per node :     37928    37827

 maximum number of plane-waves:     37928
 maximum index in each direction: 
   IXMAX=   16   IYMAX=   16   IZMAX=   40
   IXMIN=  -16   IYMIN=  -16   IZMIN=  -40


 serial   3D FFT for wavefunctions
 parallel 3D FFT for charge:
    minimum data exchange during FFTs selected (reduces bandwidth)


 total amount of memory used by VASP MPI-rank0   121695. kBytes
=======================================================================

   base      :      30000. kBytes
   nonlr-proj:      14107. kBytes
   fftplans  :       4330. kBytes
   grid      :      17098. kBytes
   one-center:        559. kBytes
   wavefun   :      55601. kBytes
 
     INWAV:  cpu time    0.0001: real time    0.0001
 initial charge density was supplied:
 number of electron     392.9999958 magnetization 
 keeping initial charge density in first step


--------------------------------------------------------------------------------------------------------


 Maximum index for non-local projection operator         3030
 Maximum index for augmentation-charges          856 (set IRDMAX)


--------------------------------------------------------------------------------------------------------


 First call to EWALD:  gamma=   0.155
 Maximum number of real-space cells 4x 4x 2
 Maximum number of reciprocal cells 2x 2x 5

    FEWALD:  cpu time    0.0014: real time    0.0014


--------------------------------------- Iteration      1(   1)  ---------------------------------------


    POTLOK:  cpu time    0.0784: real time    0.0801
    SETDIJ:  cpu time    0.0053: real time    0.0055
     EDDAV:  cpu time    8.7672: real time    8.8052
 BZINTS: Fermi energy:   11.187393;  393.000000 electrons
         Band energy: 0.151258E+04;  BLOECHL correction:   -0.016452
       DOS:  cpu time    0.0112: real time    0.0112
    --------------------------------------------
      LOOP:  cpu time    8.8621: real time    8.9021

 eigenvalue-minimisations  :  5040
 total energy-change (2. order) : 0.2581118E+04  (-0.1776460E+05)
 number of electron     392.9999958 magnetization 
 augmentation part      392.9999958 magnetization 

 Free energy of the ion-electron system (eV)
  ---------------------------------------------------
  alpha Z        PSCENC =      1011.07404796
  Ewald energy   TEWEN  =     96281.94014615
  -Hartree energ DENC   =   -130318.54551605
  -exchange      EXHF   =         0.00000000
  -V(xc)+E(xc)   XCENC  =       484.92380154
  PAW double counting   =     35716.87869613   -34938.21932992
  entropy T*S    EENTRO =         0.00000000
  eigenvalues    EBANDS =      1512.58338093
  atomic energy  EATOM  =     32830.48322777
  Solvation  Ediel_sol  =         0.00000000
  ---------------------------------------------------
  free energy    TOTEN  =      2581.11845451 eV

  energy without entropy =     2581.11845451  energy(sigma->0) =     2581.11845451


--------------------------------------------------------------------------------------------------------




--------------------------------------- Iteration      1(   2)  ---------------------------------------


     EDDAV:  cpu time   10.1531: real time   10.2032
 BZINTS: Fermi energy:    1.401901;  393.000000 electrons
         Band energy:-0.105982E+04;  BLOECHL correction:   -0.048111
       DOS:  cpu time    0.0103: real time    0.0103
    --------------------------------------------
      LOOP:  cpu time   10.1634: real time   10.2135

 eigenvalue-minimisations  :  5628
 total energy-change (2. order) :-0.2572406E+04  (-0.2364440E+04)
 number of electron     392.9999958 magnetization 
 augmentation part      392.9999958 magnetization 

 Free energy of the ion-electron system (eV)
  ---------------------------------------------------
  alpha Z        PSCENC =      1011.07404796
  Ewald energy   TEWEN  =     96281.94014615
  -Hartree energ DENC   =   -130318.54551605
  -exchange      EXHF   =         0.00000000
  -V(xc)+E(xc)   XCENC  =       484.92380154
  PAW double counting   =     35716.87869613   -34938.21932992
  entropy T*S    EENTRO =         0.00000000
  eigenvalues    EBANDS =     -1059.82289387
  atomic energy  EATOM  =     32830.48322777
  Solvation  Ediel_sol  =         0.00000000
  ---------------------------------------------------
  free energy    TOTEN  =         8.71217971 eV

  energy without entropy =        8.71217971  energy(sigma->0) =        8.71217971


--------------------------------------------------------------------------------------------------------




--------------------------------------- Iteration      1(   3)  ---------------------------------------


     EDDAV:  cpu time   12.4810: real time   12.4898
 BZINTS: Fermi energy:    0.683993;  393.000000 electrons
         Band energy:-0.118108E+04;  BLOECHL correction:   -0.072374
       DOS:  cpu time    0.0105: real time    0.0105
    --------------------------------------------
      LOOP:  cpu time   12.4915: real time   12.5003

 eigenvalue-minimisations  :  5852
 total energy-change (2. order) :-0.1212543E+03  (-0.1168083E+03)
 number of electron     392.9999958 magnetization 
 augmentation part      392.9999958 magnetization 

 Free energy of the ion-electron system (eV)
  ---------------------------------------------------
  alpha Z        PSCENC =      1011.07404796
  Ewald energy   TEWEN  =     96281.94014615
  -Hartree energ DENC   =   -130318.54551605
  -exchange      EXHF   =         0.00000000
  -V(xc)+E(xc)   XCENC  =       484.92380154
  PAW double counting   =     35716.87869613   -34938.21932992
  entropy T*S    EENTRO =         0.00000000
  eigenvalues    EBANDS =     -1181.07716379
  atomic energy  EATOM  =     32830.48322777
  Solvation  Ediel_sol  =         0.00000000
  ---------------------------------------------------
  free energy    TOTEN  =      -112.54209021 eV

  energy without entropy =     -112.54209021  energy(sigma->0) =     -112.54209021


--------------------------------------------------------------------------------------------------------




--------------------------------------- Iteration      1(   4)  ---------------------------------------


     EDDAV:  cpu time   12.8513: real time   12.8615
 BZINTS: Fermi energy:    0.668140;  393.000000 electrons
         Band energy:-0.118337E+04;  BLOECHL correction:   -0.070655
       DOS:  cpu time    0.0120: real time    0.0120
    --------------------------------------------
      LOOP:  cpu time   12.8633: real time   12.8735

 eigenvalue-minimisations  :  6076
 total energy-change (2. order) :-0.2294659E+01  (-0.2292665E+01)
 number of electron     392.9999958 magnetization 
 augmentation part      392.9999958 magnetization 

 Free energy of the ion-electron system (eV)
  ---------------------------------------------------
  alpha Z        PSCENC =      1011.07404796
  Ewald energy   TEWEN  =     96281.94014615
  -Hartree energ DENC   =   -130318.54551605
  -exchange      EXHF   =         0.00000000
  -V(xc)+E(xc)   XCENC  =       484.92380154
  PAW double counting   =     35716.87869613   -34938.21932992
  entropy T*S    EENTRO =         0.00000000
  eigenvalues    EBANDS =     -1183.37182316
  atomic energy  EATOM  =     32830.48322777
  Solvation  Ediel_sol  =         0.00000000
  ---------------------------------------------------
  free energy    TOTEN  =      -114.83674958 eV

  energy without entropy =     -114.83674958  energy(sigma->0) =     -114.83674958


--------------------------------------------------------------------------------------------------------




--------------------------------------- Iteration      1(   5)  ---------------------------------------


     EDDAV:  cpu time   12.6550: real time   12.6575
 BZINTS: Fermi energy:    0.667726;  393.000000 electrons
         Band energy:-0.118342E+04;  BLOECHL correction:   -0.070493
       DOS:  cpu time    0.0121: real time    0.0121
    --------------------------------------------
      LOOP:  cpu time   12.6671: real time   12.6696

 eigenvalue-minimisations  :  5964
 total energy-change (2. order) :-0.4972893E-01  (-0.4987494E-01)
 number of electron     392.9999958 magnetization 
 augmentation part      392.9999958 magnetization 

 Free energy of the ion-electron system (eV)
  ---------------------------------------------------
  alpha Z        PSCENC =      1011.07404796
  Ewald energy   TEWEN  =     96281.94014615
  -Hartree energ DENC   =   -130318.54551605
  -exchange      EXHF   =         0.00000000
  -V(xc)+E(xc)   XCENC  =       484.92380154
  PAW double counting   =     35716.87869613   -34938.21932992
  entropy T*S    EENTRO =         0.00000000
  eigenvalues    EBANDS =     -1183.42155210
  atomic energy  EATOM  =     32830.48322777
  Solvation  Ediel_sol  =         0.00000000
  ---------------------------------------------------
  free energy    TOTEN  =      -114.88647852 eV

  energy without entropy =     -114.88647852  energy(sigma->0) =     -114.88647852


--------------------------------------------------------------------------------------------------------




--------------------------------------- Iteration      1(   6)  ---------------------------------------


    EDDIAG:  cpu time    2.0965: real time    2.0968
  RMM-DIIS:  cpu time    6.2248: real time    6.2306
    ORTHCH:  cpu time    0.3418: real time    0.3447
 BZINTS: Fermi energy:    0.667715;  393.000000 electrons
         Band energy:-0.118342E+04;  BLOECHL correction:   -0.070488
       DOS:  cpu time    0.0123: real time    0.0123
    --------------------------------------------
      LOOP:  cpu time    8.6754: real time    8.6843

 eigenvalue-minimisations  :  5043
 total energy-change (2. order) :-0.1479565E-02  (-0.1483563E-02)
 number of electron     392.9999958 magnetization 
 augmentation part      392.9999958 magnetization 

 Free energy of the ion-electron system (eV)
  ---------------------------------------------------
  alpha Z        PSCENC =      1011.07404796
  Ewald energy   TEWEN  =     96281.94014615
  -Hartree energ DENC   =   -130318.54551605
  -exchange      EXHF   =         0.00000000
  -V(xc)+E(xc)   XCENC  =       484.92380154
  PAW double counting   =     35716.87869613   -34938.21932992
  entropy T*S    EENTRO =         0.00000000
  eigenvalues    EBANDS =     -1183.42303166
  atomic energy  EATOM  =     32830.48322777
  Solvation  Ediel_sol  =         0.00000000
  ---------------------------------------------------
  free energy    TOTEN  =      -114.88795808 eV

  energy without entropy =     -114.88795808  energy(sigma->0) =     -114.88795808


--------------------------------------------------------------------------------------------------------




--------------------------------------- Iteration      1(   7)  ---------------------------------------


    EDDIAG:  cpu time    2.0514: real time    2.0517
  RMM-DIIS:  cpu time    8.4566: real time    8.4568
    ORTHCH:  cpu time    0.3836: real time    0.3836
 BZINTS: Fermi energy:    0.667711;  393.000000 electrons
         Band energy:-0.118342E+04;  BLOECHL correction:   -0.070487
       DOS:  cpu time    0.0120: real time    0.0120
    --------------------------------------------
      LOOP:  cpu time   10.9037: real time   10.9042

 eigenvalue-minimisations  :  6672
 total energy-change (2. order) :-0.4349389E-03  (-0.4350741E-03)
 number of electron     392.9999958 magnetization 
 augmentation part      392.9999958 magnetization 

 Free energy of the ion-electron system (eV)
  ---------------------------------------------------
  alpha Z        PSCENC =      1011.07404796
  Ewald energy   TEWEN  =     96281.94014615
  -Hartree energ DENC   =   -130318.54551605
  -exchange      EXHF   =         0.00000000
  -V(xc)+E(xc)   XCENC  =       484.92380154
  PAW double counting   =     35716.87869613   -34938.21932992
  entropy T*S    EENTRO =         0.00000000
  eigenvalues    EBANDS =     -1183.42346660
  atomic energy  EATOM  =     32830.48322777
  Solvation  Ediel_sol  =         0.00000000
  ---------------------------------------------------
  free energy    TOTEN  =      -114.88839302 eV

  energy without entropy =     -114.88839302  energy(sigma->0) =     -114.88839302


--------------------------------------------------------------------------------------------------------




--------------------------------------- Iteration      1(   8)  ---------------------------------------


    EDDIAG:  cpu time    2.1118: real time    2.1120
  RMM-DIIS:  cpu time    8.7867: real time    8.7868
    ORTHCH:  cpu time    0.3447: real time    0.3447
 BZINTS: Fermi energy:    0.667711;  393.000000 electrons
         Band energy:-0.118342E+04;  BLOECHL correction:   -0.070487
       DOS:  cpu time    0.0128: real time    0.0128
    --------------------------------------------
      LOOP:  cpu time   11.2560: real time   11.2562

 eigenvalue-minimisations  :  5829
 total energy-change (2. order) :-0.4015709E-04  (-0.3994311E-04)
 number of electron     392.9999958 magnetization 
 augmentation part      392.9999958 magnetization 

 Free energy of the ion-electron system (eV)
  ---------------------------------------------------
  alpha Z        PSCENC =      1011.07404796
  Ewald energy   TEWEN  =     96281.94014615
  -Hartree energ DENC   =   -130318.54551605
  -exchange      EXHF   =         0.00000000
  -V(xc)+E(xc)   XCENC  =       484.92380154
  PAW double counting   =     35716.87869613   -34938.21932992
  entropy T*S    EENTRO =         0.00000000
  eigenvalues    EBANDS =     -1183.42350676
  atomic energy  EATOM  =     32830.48322777
  Solvation  Ediel_sol  =         0.00000000
  ---------------------------------------------------
  free energy    TOTEN  =      -114.88843318 eV

  energy without entropy =     -114.88843318  energy(sigma->0) =     -114.88843318


--------------------------------------------------------------------------------------------------------




--------------------------------------- Iteration      1(   9)  ---------------------------------------


    EDDIAG:  cpu time    2.0950: real time    2.0953
  RMM-DIIS:  cpu time    6.1131: real time    6.1132
    ORTHCH:  cpu time    0.4256: real time    0.4277
 BZINTS: Fermi energy:    0.667711;  393.000000 electrons
         Band energy:-0.118342E+04;  BLOECHL correction:   -0.070487
       DOS:  cpu time    0.0112: real time    0.0112
    --------------------------------------------
      LOOP:  cpu time    8.6449: real time    8.6474

 eigenvalue-minimisations  :  3372
 total energy-change (2. order) :-0.2639048E-05  (-0.2524075E-05)
 number of electron     392.9999958 magnetization 
 augmentation part      392.9999958 magnetization 

 Free energy of the ion-electron system (eV)
  ---------------------------------------------------
  alpha Z        PSCENC =      1011.07404796
  Ewald energy   TEWEN  =     96281.94014615
  -Hartree energ DENC   =   -130318.54551605
  -exchange      EXHF   =         0.00000000
  -V(xc)+E(xc)   XCENC  =       484.92380154
  PAW double counting   =     35716.87869613   -34938.21932992
  entropy T*S    EENTRO =         0.00000000
  eigenvalues    EBANDS =     -1183.42350940
  atomic energy  EATOM  =     32830.48322777
  Solvation  Ediel_sol  =         0.00000000
  ---------------------------------------------------
  free energy    TOTEN  =      -114.88843582 eV

  energy without entropy =     -114.88843582  energy(sigma->0) =     -114.88843582


--------------------------------------------------------------------------------------------------------




 average (electrostatic) potential at core
  the test charge radii are     1.2098  1.1957
  (the norm of the test charge is              1.0000)
       1 -72.4103       2 -72.3566       3 -72.3566       4 -72.3567       5 -72.3657
       6 -72.3564       7 -72.3566       8 -72.3564       9 -72.3619      10 -72.7233
      11 -72.6665      12 -72.7231      13 -72.6665      14 -72.6662      15 -72.6915
      16 -72.7231      17 -72.6915      18 -72.6917      19 -72.6260      20 -72.7585
      21 -72.7583      22 -72.6471      23 -72.7583      24 -72.6467      25 -72.6262
      26 -72.6260      27 -72.6471      28 -72.2812      29 -72.3551      30 -72.3552
      31 -72.3551      32 -72.3549      33 -72.3552      34 -72.3549      35 -72.2830
      36 -50.9341
 
 
 
 E-fermi :   0.6677     XC(G=0):  -6.0917     alpha+bet : -5.7095

 Fermi energy:         0.6677108631

 k-point     1 :       0.0000    0.0000    0.0000
  band No.  band energies     occupation 
      1      -8.1454      2.00000
      2      -6.9873      2.00000
      3      -6.0240      2.00000
      4      -6.0214      2.00000
      5      -5.9934      2.00000
      6      -5.9933      2.00000
      7      -5.9515      2.00000
      8      -5.9447      2.00000
      9      -5.9447      2.00000
     10      -5.9234      2.00000
     11      -5.5136      2.00000
     12      -5.4976      2.00000
     13      -5.4976      2.00000
     14      -5.4873      2.00000
     15      -5.4628      2.00000
     16      -5.4628      2.00000
     17      -5.1324      2.00000
     18      -5.1235      2.00000
     19      -5.1235      2.00000
     20      -5.1045      2.00000
     21      -5.0828      2.00000
     22      -5.0828      2.00000
     23      -4.9702      2.00000
     24      -4.9332      2.00000
     25      -4.9332      2.00000
     26      -4.9327      2.00000
     27      -4.9196      2.00000
     28      -4.9196      2.00000
     29      -4.7711      2.00000
     30      -4.7711      2.00000
     31      -4.7644      2.00000
     32      -4.7601      2.00000
     33      -4.7601      2.00000
     34      -4.7519      2.00000
     35      -4.7416      2.00000
     36      -4.7416      2.00000
     37      -4.7202      2.00000
     38      -4.7117      2.00000
     39      -4.6920      2.00000
     40      -4.6920      2.00000
     41      -4.2693      2.00000
     42      -4.2693      2.00000
     43      -4.2404      2.00000
     44      -4.2158      2.00000
     45      -4.2158      2.00000
     46      -4.1999      2.00000
     47      -4.1994      2.00000
     48      -4.1993      2.00000
     49      -4.1792      2.00000
     50      -4.1791      2.00000
     51      -4.1098      2.00000
     52      -4.1009      2.00000
     53      -4.0498      2.00000
     54      -4.0061      2.00000
     55      -3.6906      2.00000
     56      -3.6772      2.00000
     57      -3.6729      2.00000
     58      -3.6728      2.00000
     59      -3.6705      2.00000
     60      -3.6574      2.00000
     61      -3.6574      2.00000
     62      -3.6077      2.00000
     63      -3.6077      2.00000
     64      -3.5420      2.00000
     65      -3.5420      2.00000
     66      -3.5203      2.00000
     67      -3.5013      2.00000
     68      -3.5013      2.00000
     69      -3.4487      2.00000
     70      -3.4487      2.00000
     71      -3.4380      2.00000
     72      -3.4245      2.00000
     73      -3.4095      2.00000
     74      -3.4095      2.00000
     75      -3.4058      2.00000
     76      -3.4001      2.00000
     77      -3.4000      2.00000
     78      -3.3837      2.00000
     79      -3.3837      2.00000
     80      -3.3356      2.00000
     81      -3.3356      2.00000
     82      -3.3119      2.00000
     83      -3.3046      2.00000
     84      -3.3046      2.00000
     85      -3.2916      2.00000
     86      -3.2637      2.00000
     87      -3.2636      2.00000
     88      -3.2422      2.00000
     89      -3.1944      2.00000
     90      -3.1944      2.00000
     91      -3.0785      2.00000
     92      -3.0785      2.00000
     93      -3.0079      2.00000
     94      -3.0079      2.00000
     95      -3.0041      2.00000
     96      -3.0041      2.00000
     97      -2.9761      2.00000
     98      -2.9761      2.00000
     99      -2.8290      2.00000
    100      -2.8092      2.00000
    101      -2.8092      2.00000
    102      -2.7895      2.00000
    103      -2.7723      2.00000
    104      -2.7723      2.00000
    105      -2.6796      2.00000
    106      -2.6795      2.00000
    107      -2.6386      2.00000
    108      -2.6056      2.00000
    109      -2.5845      2.00000
    110      -2.5845      2.00000
    111      -2.5548      2.00000
    112      -2.5548      2.00000
    113      -2.5477      2.00000
    114      -2.4847      2.00000
    115      -2.4746      2.00000
    116      -2.3474      2.00000
    117      -2.3424      2.00000
    118      -2.3424      2.00000
    119      -2.3023      2.00000
    120      -2.3023      2.00000
    121      -2.2803      2.00000
    122      -2.2462      2.00000
    123      -2.2462      2.00000
    124      -2.2258      2.00000
    125      -2.2258      2.00000
    126      -2.1802      2.00000
    127      -2.1802      2.00000
    128      -2.0542      2.00000
    129      -2.0471      2.00000
    130      -2.0471      2.00000
    131      -2.0408      2.00000
    132      -2.0408      2.00000
    133      -2.0388      2.00000
    134      -2.0293      2.00000
    135      -2.0293      2.00000
    136      -2.0256      2.00000
    137      -2.0023      2.00000
    138      -2.0022      2.00000
    139      -1.9378      2.00000
    140      -1.9068      2.00000
    141      -1.9068      2.00000
    142      -1.8050      2.00000
    143      -1.7927      2.00000
    144      -1.7927      2.00000
    145      -1.7660      2.00000
    146      -1.7659      2.00000
    147      -1.7577      2.00000
    148      -1.7577      2.00000
    149      -1.7575      2.00000
    150      -1.7262      2.00000
    151      -1.7104      2.00000
    152      -1.7087      2.00000
    153      -1.7086      2.00000
    154      -1.6266      2.00000
    155      -1.5989      2.00000
    156      -1.5900      2.00000
    157      -1.5900      2.00000
    158      -1.5854      2.00000
    159      -1.5853      2.00000
    160      -1.5852      2.00000
    161      -1.5614      2.00000
    162      -1.5444      2.00000
    163      -1.5444      2.00000
    164      -1.5201      2.00000
    165      -1.5201      2.00000
    166      -1.5143      2.00000
    167      -1.5143      2.00000
    168      -1.4905      2.00000
    169      -1.4905      2.00000
    170      -1.4863      2.00000
    171      -1.4859      2.00000
    172      -1.4784      2.00000
    173      -1.4650      2.00000
    174      -1.4615      2.00000
    175      -1.4615      2.00000
    176      -1.4594      2.00000
    177      -1.4200      2.00000
    178      -1.3933      2.00000
    179      -1.3932      2.00000
    180      -1.3663      2.00000
    181      -1.3663      2.00000
    182      -1.3442      2.00000
    183      -1.3031      2.00000
    184      -1.3031      2.00000
    185      -1.2057      2.00000
    186      -1.2057      2.00000
    187      -1.1652      2.00000
    188      -1.1602      2.00000
    189      -1.1601      2.00000
    190      -1.1345      2.00000
    191      -0.3637      2.00000
    192      -0.2146      2.00000
    193      -0.1133      2.00000
    194      -0.1132      2.00000
    195       0.0792      2.00000
    196       0.0793      2.00000
    197       0.1185      2.00000
    198       0.4663      2.00000
    199       0.4663      2.00000
    200       0.5506      2.89976
    201       0.5506      2.53351
    202       0.8057      0.00000
    203       1.0719      0.00000
    204       2.2230      0.00000
    205       2.2840      0.00000
    206       2.2840      0.00000
    207       2.4700      0.00000
    208       2.5508      0.00000
    209       2.5508      0.00000
    210       3.4790      0.00000
    211       3.4790      0.00000
    212       3.5086      0.00000
    213       3.5736      0.00000
    214       3.5736      0.00000
    215       3.6124      0.00000
    216       4.0870      0.00000
    217       4.3481      0.00000
    218       5.2826      0.00000
    219       5.3197      0.00000
    220       5.3467      0.00000
    221       5.3468      0.00000
    222       5.3990      0.00000
    223       5.3990      0.00000
    224       5.4778      0.00000
    225       5.4779      0.00000
    226       5.4792      0.00000
    227       5.5905      0.00000
    228       5.5905      0.00000
    229       5.6549      0.00000
    230       6.1348      0.00000
    231       6.2007      0.00000
    232       6.9101      0.00000
    233       7.0106      0.00000
    234       7.0393      0.00000
    235       7.0394      0.00000
    236       7.0578      0.00000
    237       7.0609      0.00000
    238       7.0610      0.00000
    239       7.1443      0.00000
    240       7.1525      0.00000
    241       7.1527      0.00000
    242       7.2089      0.00000
    243       7.2090      0.00000
    244       7.3867      0.00000
    245       7.3870      0.00000
    246       7.4327      0.00000
    247       7.4656      0.00000
    248       7.4675      0.00000
    249       7.5556      0.00000
    250       7.8340      0.00000
    251       7.8681      0.00000
    252       8.0471      0.00000

 k-point     2 :       0.1250   -0.0000    0.0000
  band No.  band energies     occupation 
      1      -8.0944      2.00000
      2      -6.9372      2.00000
      3      -6.2332      2.00000
      4      -6.0572      2.00000
      5      -6.0481      2.00000
      6      -5.9751      2.00000
      7      -5.8852      2.00000
      8      -5.8663      2.00000
      9      -5.8517      2.00000
     10      -5.8348      2.00000
     11      -5.5355      2.00000
     12      -5.5171      2.00000
     13      -5.4749      2.00000
     14      -5.4740      2.00000
     15      -5.4550      2.00000
     16      -5.4384      2.00000
     17      -5.1668      2.00000
     18      -5.1165      2.00000
     19      -5.1141      2.00000
     20      -5.0884      2.00000
     21      -5.0582      2.00000
     22      -5.0551      2.00000
     23      -5.0314      2.00000
     24      -4.9764      2.00000
     25      -4.9578      2.00000
     26      -4.8833      2.00000
     27      -4.8802      2.00000
     28      -4.8467      2.00000
     29      -4.8378      2.00000
     30      -4.8327      2.00000
     31      -4.8082      2.00000
     32      -4.8061      2.00000
     33      -4.7859      2.00000
     34      -4.7493      2.00000
     35      -4.7280      2.00000
     36      -4.6648      2.00000
     37      -4.6547      2.00000
     38      -4.6437      2.00000
     39      -4.6171      2.00000
     40      -4.6125      2.00000
     41      -4.3347      2.00000
     42      -4.3315      2.00000
     43      -4.2941      2.00000
     44      -4.2631      2.00000
     45      -4.2518      2.00000
     46      -4.2516      2.00000
     47      -4.2273      2.00000
     48      -4.1619      2.00000
     49      -4.1486      2.00000
     50      -4.1071      2.00000
     51      -4.0680      2.00000
     52      -4.0600      2.00000
     53      -4.0420      2.00000
     54      -4.0080      2.00000
     55      -3.7352      2.00000
     56      -3.7126      2.00000
     57      -3.7094      2.00000
     58      -3.7002      2.00000
     59      -3.6862      2.00000
     60      -3.6705      2.00000
     61      -3.6611      2.00000
     62      -3.6464      2.00000
     63      -3.6315      2.00000
     64      -3.5910      2.00000
     65      -3.5838      2.00000
     66      -3.5784      2.00000
     67      -3.5694      2.00000
     68      -3.5358      2.00000
     69      -3.5331      2.00000
     70      -3.5119      2.00000
     71      -3.4972      2.00000
     72      -3.4632      2.00000
     73      -3.4613      2.00000
     74      -3.4566      2.00000
     75      -3.4430      2.00000
     76      -3.4236      2.00000
     77      -3.3672      2.00000
     78      -3.3644      2.00000
     79      -3.3500      2.00000
     80      -3.3406      2.00000
     81      -3.3037      2.00000
     82      -3.3022      2.00000
     83      -3.2607      2.00000
     84      -3.2588      2.00000
     85      -3.2397      2.00000
     86      -3.2324      2.00000
     87      -3.2131      2.00000
     88      -3.2069      2.00000
     89      -3.1665      2.00000
     90      -3.1444      2.00000
     91      -3.1268      2.00000
     92      -3.1074      2.00000
     93      -3.0713      2.00000
     94      -3.0616      2.00000
     95      -2.9808      2.00000
     96      -2.9469      2.00000
     97      -2.9306      2.00000
     98      -2.9074      2.00000
     99      -2.8936      2.00000
    100      -2.8601      2.00000
    101      -2.8598      2.00000
    102      -2.8038      2.00000
    103      -2.7828      2.00000
    104      -2.7388      2.00000
    105      -2.7258      2.00000
    106      -2.6938      2.00000
    107      -2.6514      2.00000
    108      -2.6338      2.00000
    109      -2.6128      2.00000
    110      -2.6042      2.00000
    111      -2.6012      2.00000
    112      -2.5839      2.00000
    113      -2.5547      2.00000
    114      -2.5417      2.00000
    115      -2.5401      2.00000
    116      -2.5166      2.00000
    117      -2.5033      2.00000
    118      -2.5014      2.00000
    119      -2.4594      2.00000
    120      -2.3716      2.00000
    121      -2.3526      2.00000
    122      -2.2764      2.00000
    123      -2.2686      2.00000
    124      -2.2619      2.00000
    125      -2.2227      2.00000
    126      -2.2176      2.00000
    127      -2.1958      2.00000
    128      -2.1954      2.00000
    129      -2.1789      2.00000
    130      -2.1514      2.00000
    131      -2.1314      2.00000
    132      -2.1285      2.00000
    133      -2.1029      2.00000
    134      -2.0347      2.00000
    135      -2.0345      2.00000
    136      -1.9979      2.00000
    137      -1.9695      2.00000
    138      -1.9641      2.00000
    139      -1.9514      2.00000
    140      -1.9460      2.00000
    141      -1.9084      2.00000
    142      -1.9055      2.00000
    143      -1.8629      2.00000
    144      -1.8390      2.00000
    145      -1.7780      2.00000
    146      -1.7573      2.00000
    147      -1.7517      2.00000
    148      -1.7335      2.00000
    149      -1.7293      2.00000
    150      -1.7088      2.00000
    151      -1.7073      2.00000
    152      -1.6866      2.00000
    153      -1.6721      2.00000
    154      -1.6169      2.00000
    155      -1.6153      2.00000
    156      -1.6016      2.00000
    157      -1.5853      2.00000
    158      -1.5699      2.00000
    159      -1.5696      2.00000
    160      -1.5410      2.00000
    161      -1.5288      2.00000
    162      -1.5188      2.00000
    163      -1.5090      2.00000
    164      -1.5053      2.00000
    165      -1.4848      2.00000
    166      -1.4830      2.00000
    167      -1.4711      2.00000
    168      -1.4498      2.00000
    169      -1.4490      2.00000
    170      -1.4426      2.00000
    171      -1.4142      2.00000
    172      -1.4053      2.00000
    173      -1.3728      2.00000
    174      -1.3511      2.00000
    175      -1.3405      2.00000
    176      -1.3257      2.00000
    177      -1.2886      2.00000
    178      -1.2597      2.00000
    179      -1.2480      2.00000
    180      -1.2393      2.00000
    181      -1.2310      2.00000
    182      -1.2138      2.00000
    183      -1.1962      2.00000
    184      -1.1816      2.00000
    185      -1.1588      2.00000
    186      -1.1398      2.00000
    187      -1.1133      2.00000
    188      -1.0385      2.00000
    189      -1.0321      2.00000
    190      -0.9452      2.00000
    191      -0.3725      2.00000
    192      -0.2936      2.00000
    193      -0.1655      2.00000
    194      -0.1601      2.00000
    195       0.0888      2.00000
    196       0.1662      2.00000
    197       0.3697      2.00000
    198       0.4800      2.00000
    199       0.5069      2.25912
    200       0.6678      0.51592
    201       0.6988      0.20202
    202       0.9506      0.00000
    203       1.2288      0.00000
    204       1.8914      0.00000
    205       2.1979      0.00000
    206       2.2090      0.00000
    207       2.6480      0.00000
    208       2.7208      0.00000
    209       2.8321      0.00000
    210       2.8410      0.00000
    211       3.0207      0.00000
    212       3.5838      0.00000
    213       3.5867      0.00000
    214       3.8093      0.00000
    215       3.8902      0.00000
    216       4.1316      0.00000
    217       4.2876      0.00000
    218       4.8131      0.00000
    219       5.0431      0.00000
    220       5.1160      0.00000
    221       5.1705      0.00000
    222       5.1784      0.00000
    223       5.3253      0.00000
    224       5.3586      0.00000
    225       5.5531      0.00000
    226       5.5856      0.00000
    227       5.6957      0.00000
    228       5.7348      0.00000
    229       5.7605      0.00000
    230       6.1792      0.00000
    231       6.3310      0.00000
    232       6.3867      0.00000
    233       6.6047      0.00000
    234       6.6301      0.00000
    235       6.7219      0.00000
    236       6.7327      0.00000
    237       6.8054      0.00000
    238       6.9360      0.00000
    239       6.9508      0.00000
    240       7.0376      0.00000
    241       7.0531      0.00000
    242       7.1539      0.00000
    243       7.4138      0.00000
    244       7.4417      0.00000
    245       7.4646      0.00000
    246       7.5224      0.00000
    247       7.6437      0.00000
    248       7.7513      0.00000
    249       7.7810      0.00000
    250       7.8884      0.00000
    251       7.9443      0.00000
    252       7.9493      0.00000

 k-point     3 :       0.2500   -0.0000    0.0000
  band No.  band energies     occupation 
      1      -7.9433      2.00000
      2      -6.7908      2.00000
      3      -6.5894      2.00000
      4      -6.0996      2.00000
      5      -6.0892      2.00000
      6      -5.8359      2.00000
      7      -5.8009      2.00000
      8      -5.7518      2.00000
      9      -5.7127      2.00000
     10      -5.7019      2.00000
     11      -5.6718      2.00000
     12      -5.5728      2.00000
     13      -5.4166      2.00000
     14      -5.4093      2.00000
     15      -5.3902      2.00000
     16      -5.3752      2.00000
     17      -5.2456      2.00000
     18      -5.1071      2.00000
     19      -5.0976      2.00000
     20      -5.0806      2.00000
     21      -5.0600      2.00000
     22      -5.0058      2.00000
     23      -5.0014      2.00000
     24      -4.9736      2.00000
     25      -4.9725      2.00000
     26      -4.9526      2.00000
     27      -4.9303      2.00000
     28      -4.9182      2.00000
     29      -4.9022      2.00000
     30      -4.8790      2.00000
     31      -4.7797      2.00000
     32      -4.7248      2.00000
     33      -4.7232      2.00000
     34      -4.6947      2.00000
     35      -4.6648      2.00000
     36      -4.6175      2.00000
     37      -4.6090      2.00000
     38      -4.5270      2.00000
     39      -4.5133      2.00000
     40      -4.5054      2.00000
     41      -4.4348      2.00000
     42      -4.4187      2.00000
     43      -4.3581      2.00000
     44      -4.3057      2.00000
     45      -4.2856      2.00000
     46      -4.2776      2.00000
     47      -4.2579      2.00000
     48      -4.1323      2.00000
     49      -4.1171      2.00000
     50      -4.0843      2.00000
     51      -4.0690      2.00000
     52      -4.0330      2.00000
     53      -4.0300      2.00000
     54      -4.0180      2.00000
     55      -3.9291      2.00000
     56      -3.8851      2.00000
[...]
  0.000   0.000   0.000   2.000   0.000   0.000   0.000   0.000   0.000   0.000   0.000   0.000   0.000   0.000   0.000   0.000
  0.000   0.000   0.000   0.000   2.000   0.000   0.000   0.000   0.000   0.000   0.000   0.000   0.000   0.000   0.000   0.000
  0.000   0.000   0.000   0.000   0.000   0.000   0.000   0.000   0.000   0.000   0.000   0.000   0.000   0.000   0.000   0.000
  0.000   0.000   0.000   0.000   0.000   0.000   0.000   0.000   0.000   0.000   0.000   0.000   0.000   0.000   0.000   0.000
  0.000   0.000   0.000   0.000   0.000   0.000   0.000   0.000   0.000   0.000   0.000   0.000   0.000   0.000   0.000   0.000
  0.000   0.000   0.000   0.000   0.000   0.000   0.000   0.000   0.000   0.000   0.000   0.000   0.000   0.000   0.000   0.000
  0.000   0.000   0.000   0.000   0.000   0.000   0.000   0.000   0.000   0.000   0.000   0.000   0.000   0.000   0.000   0.000
  0.000   0.000   0.000   0.000   0.000   0.000   0.000   0.000   0.000   0.000   1.000   0.000   0.000   0.000   0.000   0.000
  0.000   0.000   0.000   0.000   0.000   0.000   0.000   0.000   0.000   0.000   0.000   0.000   0.000   0.000   0.000   0.000
  0.000   0.000   0.000   0.000   0.000   0.000   0.000   0.000   0.000   0.000   0.000   0.000   0.000   0.000   0.000   0.000
  0.000   0.000   0.000   0.000   0.000   0.000   0.000   0.000   0.000   0.000   0.000   0.000   0.000   0.000   0.000   0.000
  0.000   0.000   0.000   0.000   0.000   0.000   0.000   0.000   0.000   0.000   0.000   0.000   0.000   0.000   0.000   0.000
  0.000   0.000   0.000   0.000   0.000   0.000   0.000   0.000   0.000   0.000   0.000   0.000   0.000   0.000   0.000   0.000
  0.000   0.000   0.000   0.000   0.000   0.000   0.000   0.000   0.000   0.000   0.000   0.000   0.000   0.000   0.000   0.000
  0.000   0.000   0.000   0.000   0.000   0.000   0.000   0.000   0.000   0.000   0.000   0.000   0.000   0.000   0.000   0.000


------------------------ aborting loop because EDIFF is reached ----------------------------------------





 total charge

# of ion       s       p       d       tot
------------------------------------------
    1        0.544   0.239   8.765   9.549
    2        0.545   0.241   8.765   9.550
    3        0.545   0.241   8.765   9.550
    4        0.545   0.241   8.765   9.550
    5        0.540   0.243   8.763   9.545
    6        0.545   0.241   8.765   9.550
    7        0.545   0.241   8.765   9.550
    8        0.545   0.241   8.765   9.550
    9        0.543   0.239   8.768   9.550
   10        0.525   0.309   8.764   9.597
   11        0.522   0.307   8.781   9.610
   12        0.525   0.309   8.764   9.597
   13        0.522   0.307   8.781   9.610
   14        0.522   0.307   8.781   9.610
   15        0.516   0.307   8.776   9.600
   16        0.525   0.309   8.764   9.597
   17        0.516   0.307   8.776   9.600
   18        0.516   0.307   8.776   9.600
   19        0.515   0.299   8.774   9.589
   20        0.545   0.338   8.743   9.626
   21        0.545   0.338   8.743   9.626
   22        0.507   0.306   8.780   9.594
   23        0.545   0.338   8.743   9.626
   24        0.507   0.306   8.780   9.594
   25        0.515   0.299   8.774   9.589
   26        0.515   0.299   8.774   9.589
   27        0.507   0.306   8.780   9.594
   28        0.536   0.228   8.764   9.528
   29        0.558   0.250   8.738   9.547
   30        0.558   0.250   8.738   9.547
   31        0.558   0.250   8.738   9.547
   32        0.558   0.250   8.738   9.547
   33        0.558   0.250   8.738   9.547
   34        0.558   0.250   8.738   9.547
   35        0.530   0.228   8.766   9.524
   36        0.511   0.316   5.883   6.711
--------------------------------------------------
tot         19.215  10.037 312.581 341.833
 
    CHARGE:  cpu time    0.7326: real time    0.7333
    FORLOC:  cpu time    0.0113: real time    0.0113
    FORNL :  cpu time    2.6633: real time    2.6668
    STRESS:  cpu time    8.1524: real time    8.1527
    FORCOR:  cpu time    0.0694: real time    0.0696
    FORHAR:  cpu time    0.0198: real time    0.0200
    OFIELD:  cpu time    0.0005: real time    0.0005

  FORCE on cell =-STRESS in cart. coord.  units (eV):
  Direction    XX          YY          ZZ          XY          YZ          ZX
  --------------------------------------------------------------------------------------
  Alpha Z  1011.07405  1011.07405  1011.07405
  Ewald  118872.59807118872.59847************    -0.00033    -0.00009    -0.00017
  Hartree127422.05146127422.05146************    -0.00000    -0.00002    -0.00005
  E(xc)   -1763.12417 -1763.12415 -1770.90714    -0.00001    -0.00000    -0.00000
  Local  ************************258867.24962     0.00172     0.00005     0.00010
  n-local  -108.20145   -55.51618   -56.29234    24.96418    -1.12324     1.26582
  augment  2381.60526  2381.60677  2400.68362    -0.00131     0.00002     0.00004
  Kinetic  5447.74239  5467.46300  5521.39955     9.66799    -0.47239     1.16963
  Fock        0.00000     0.00000     0.00000     0.00000     0.00000     0.00000
  -------------------------------------------------------------------------------------
  Total     -24.21260   -24.21260     2.46303    -0.00000     0.00000     0.00000
  in kB     -25.98032   -25.98032     2.64286    -0.00000     0.00000     0.00000
  external pressure =      -16.44 kB  Pullay stress =        0.00 kB


 VOLUME and BASIS-vectors are now :
 -----------------------------------------------------------------------------
  energy-cutoff  :      500.00
  volume of cell :     1493.16
      direct lattice vectors                 reciprocal lattice vectors
     8.813512802  0.000000000  0.000000000     0.113462137 -0.065507406  0.000000000
     4.406756909  7.632725690  0.000000000     0.000000000  0.131014796  0.000000000
     0.000000000  0.000000000 22.196203232     0.000000000  0.000000000  0.045052750

  length of vectors
     8.813512802  8.813512802 22.196203232     0.131014796  0.131014796  0.045052750


 FORCES acting on ions
    electron-ion (+dipol)            ewald-force                    non-local-force                 convergence-correction
 -----------------------------------------------------------------------------------------------
   -.198E-04 -.163E-04 0.247E+04   0.519E-04 0.433E-04 -.247E+04   0.469E-18 0.366E-17 -.935E+00   -.202E-03 -.130E-03 -.207E+00
   0.637E+00 0.229E+00 0.247E+04   -.677E+00 -.220E+00 -.247E+04   0.309E-01 0.204E-01 -.254E+00   0.921E-02 -.211E-01 -.256E+00
   -.637E+00 0.229E+00 0.247E+04   0.677E+00 -.220E+00 -.247E+04   -.309E-01 0.204E-01 -.254E+00   -.893E-02 -.191E-01 -.256E+00
   0.517E+00 0.437E+00 0.247E+04   -.529E+00 -.476E+00 -.247E+04   0.331E-01 0.166E-01 -.254E+00   -.136E-01 0.185E-01 -.256E+00
   0.718E-05 -.241E-04 0.247E+04   0.951E-04 0.175E-05 -.247E+04   0.115E-17 -.109E-18 -.188E+00   0.430E-02 0.262E-02 -.241E+00
   -.517E+00 0.437E+00 0.247E+04   0.529E+00 -.476E+00 -.247E+04   -.331E-01 0.166E-01 -.254E+00   0.121E-01 0.194E-01 -.255E+00
   -.120E+00 -.666E+00 0.247E+04   0.148E+00 0.697E+00 -.247E+04   0.220E-02 -.369E-01 -.254E+00   -.210E-01 0.183E-02 -.256E+00
   0.120E+00 -.666E+00 0.247E+04   -.148E+00 0.697E+00 -.247E+04   -.220E-02 -.369E-01 -.254E+00   0.229E-01 0.739E-03 -.255E+00
   0.198E-04 -.415E-04 0.247E+04   0.166E-03 -.200E-04 -.247E+04   -.530E-17 -.990E-18 -.466E+00   -.464E-02 -.240E-02 -.252E+00
   0.695E+01 0.401E+01 0.805E+03   -.648E+01 -.374E+01 -.804E+03   -.361E+00 -.208E+00 -.777E+00   -.574E-01 -.333E-01 0.242E+00
   0.142E-04 0.333E+01 0.810E+03   0.148E-03 -.338E+01 -.810E+03   0.460E-09 0.691E-02 -.286E+00   0.380E-02 -.210E-01 0.322E+00
   -.695E+01 0.401E+01 0.805E+03   0.648E+01 -.374E+01 -.804E+03   0.361E+00 -.208E+00 -.777E+00   0.561E-01 -.318E-01 0.241E+00
   0.288E+01 -.166E+01 0.810E+03   -.292E+01 0.169E+01 -.810E+03   0.598E-02 -.345E-02 -.286E+00   -.160E-01 0.141E-01 0.322E+00
   -.288E+01 -.166E+01 0.810E+03   0.292E+01 0.169E+01 -.810E+03   -.598E-02 -.345E-02 -.286E+00   0.238E-01 0.136E-01 0.322E+00
   0.315E-04 0.503E+01 0.809E+03   0.236E-03 -.514E+01 -.808E+03   0.117E-08 0.176E-01 -.446E+00   -.240E-02 0.390E-01 0.273E+00
   -.214E-04 -.802E+01 0.805E+03   0.163E-03 0.749E+01 -.804E+03   0.277E-07 0.417E+00 -.777E+00   0.296E-03 0.644E-01 0.241E+00
   0.435E+01 -.251E+01 0.809E+03   -.445E+01 0.257E+01 -.808E+03   0.152E-01 -.879E-02 -.446E+00   0.328E-01 -.211E-01 0.273E+00
   -.435E+01 -.251E+01 0.809E+03   0.445E+01 0.257E+01 -.808E+03   -.152E-01 -.879E-02 -.446E+00   -.328E-01 -.192E-01 0.273E+00
   -.419E-04 0.311E+01 -.889E+03   0.545E-04 -.317E+01 0.888E+03   -.323E-08 -.485E-01 0.351E+00   -.499E-03 0.103E+00 0.725E+00
   0.219E+01 0.127E+01 -.855E+03   -.183E+01 -.106E+01 0.854E+03   -.615E+00 -.355E+00 -.779E+00   0.238E+00 0.137E+00 0.110E+01
   -.219E+01 0.127E+01 -.855E+03   0.183E+01 -.106E+01 0.854E+03   0.615E+00 -.355E+00 -.779E+00   -.237E+00 0.139E+00 0.110E+01
   -.897E+01 0.518E+01 -.872E+03   0.838E+01 -.484E+01 0.871E+03   0.461E+00 -.266E+00 0.610E+00   0.125E+00 -.769E-01 0.752E+00
   -.113E-04 -.253E+01 -.855E+03   0.141E-03 0.211E+01 0.854E+03   0.472E-07 0.710E+00 -.779E+00   0.172E-02 -.275E+00 0.110E+01
   0.897E+01 0.518E+01 -.872E+03   -.838E+01 -.484E+01 0.871E+03   -.461E+00 -.266E+00 0.610E+00   -.132E+00 -.764E-01 0.752E+00
   -.269E+01 -.156E+01 -.889E+03   0.275E+01 0.159E+01 0.888E+03   0.420E-01 0.242E-01 0.351E+00   -.877E-01 -.507E-01 0.724E+00
   0.269E+01 -.156E+01 -.889E+03   -.275E+01 0.159E+01 0.888E+03   -.420E-01 0.242E-01 0.351E+00   0.896E-01 -.521E-01 0.725E+00
   0.889E-05 -.104E+02 -.872E+03   0.200E-03 0.968E+01 0.871E+03   0.354E-07 0.532E+00 0.610E+00   -.440E-02 0.147E+00 0.752E+00
   -.994E-05 -.108E-04 -.249E+04   0.273E-04 0.309E-04 0.249E+04   0.711E-17 -.114E-17 0.547E+00   0.169E-03 0.814E-04 0.485E+00
   -.123E+00 0.426E+00 -.249E+04   0.682E+00 0.315E+00 0.249E+04   -.787E+00 -.111E+01 0.256E-01   0.233E+00 0.372E+00 0.423E+00
   0.123E+00 0.426E+00 -.249E+04   -.682E+00 0.314E+00 0.249E+04   0.787E+00 -.111E+01 0.256E-01   -.233E+00 0.374E+00 0.423E+00
   0.308E+00 -.319E+00 -.249E+04   0.613E+00 0.434E+00 0.249E+04   -.135E+01 -.127E+00 0.256E-01   0.439E+00 0.156E-01 0.423E+00
   -.308E+00 -.319E+00 -.249E+04   -.613E+00 0.434E+00 0.249E+04   0.135E+01 -.127E+00 0.256E-01   -.440E+00 0.168E-01 0.422E+00
   0.430E+00 -.107E+00 -.249E+04   -.688E-01 -.748E+00 0.249E+04   -.567E+00 0.124E+01 0.256E-01   0.208E+00 -.389E+00 0.423E+00
   -.430E+00 -.107E+00 -.249E+04   0.687E-01 -.748E+00 0.249E+04   0.567E+00 0.124E+01 0.256E-01   -.205E+00 -.389E+00 0.422E+00
   0.318E-04 -.322E-04 -.249E+04   0.145E-03 -.464E-04 0.249E+04   -.399E-17 -.119E-17 0.665E+00   -.471E-02 -.242E-02 0.430E+00
   -.201E-04 -.787E-05 -.173E+04   0.835E-04 0.756E-05 0.173E+04   -.950E-18 0.201E-17 0.209E+01   0.147E-02 0.891E-03 0.495E+00
 -----------------------------------------------------------------------------------------------
   -.795E-03 -.775E-03 -.780E+01   -.935E-14 0.176E-12 0.105E-10   -.116E-15 0.445E-15 -.364E+01   -.873E-03 0.695E-04 0.120E+02
 
 
 POSITION                                       TOTAL-FORCE (eV/Angst)
 -----------------------------------------------------------------------------------
      0.00000      0.00000      5.28038         0.000000      0.000000     -0.080178
      2.93784      0.00000      5.28038         0.000104      0.009299     -0.083135
      5.87568      0.00000      5.28038        -0.000104      0.009299     -0.083135
      1.46892      2.54424      5.28038         0.008105     -0.004560     -0.083135
      4.40676      2.54424      5.28038         0.000000      0.000000     -0.118480
      7.34459      2.54424      5.28038        -0.008105     -0.004560     -0.083135
      2.93784      5.08848      5.28038         0.008001     -0.004740     -0.083135
      5.87568      5.08848      5.28038        -0.008001     -0.004740     -0.083135
      8.81351      5.08848      5.28038        -0.000000      0.000000     -0.092659
      1.46892      0.84808      7.67911         0.047111      0.027200      0.176332
      4.40676      0.84808      7.67911        -0.000000     -0.064047      0.003564
      7.34459      0.84808      7.67911        -0.047111      0.027200      0.176332
      2.93784      3.39232      7.67911        -0.055466      0.032023      0.003564
      5.87568      3.39232      7.67911         0.055466      0.032023      0.003564
      8.81351      3.39232      7.67911        -0.000000     -0.054533      0.112135
      4.40676      5.93656      7.67911        -0.000000     -0.054399      0.176332
      7.34459      5.93656      7.67911        -0.047227      0.027267      0.112135
     10.28243      5.93656      7.67911         0.047227      0.027267      0.112135
      8.81351      1.70311     10.09495        -0.000000     -0.004608     -0.017504
      2.93286      1.69329     10.03570        -0.010076     -0.005818     -0.018171
      5.88065      1.69329     10.03570         0.010076     -0.005818     -0.018171
     10.26497      4.25049     10.06286         0.007996     -0.004616     -0.020765
      4.40676      4.24615     10.03570         0.000000      0.011635     -0.018171
      7.36206      4.25049     10.06286        -0.007996     -0.004616     -0.020765
     11.74534      6.78117     10.09495         0.003990      0.002304     -0.017504
      5.88169      6.78117     10.09495        -0.003990      0.002304     -0.017504
      8.81351      6.76448     10.06286         0.000000      0.009232     -0.020765
      0.00000      0.00000     12.49897         0.000000      0.000000     -0.008090
      2.97514      0.06495     12.50272         0.006035      0.003893      0.008202
      5.83837      0.06495     12.50272        -0.006035      0.003893      0.008202
      1.54382      2.54408     12.50272         0.006389      0.003281      0.008202
      7.26969      2.54408     12.50272        -0.006389      0.003281      0.008202
      2.97543      5.02370     12.50272         0.000353     -0.007173      0.008202
      5.83808      5.02370     12.50272        -0.000353     -0.007173      0.008202
      8.81351      5.08848     12.49601         0.000000      0.000000      0.007455
      4.40676      2.54424     12.21487         0.000000      0.000000      0.034777
 -----------------------------------------------------------------------------------
    total drift:                               -0.001668     -0.000705      0.513090


--------------------------------------------------------------------------------------------------------



  FREE ENERGIE OF THE ION-ELECTRON SYSTEM (eV)
  ---------------------------------------------------
  free  energy   TOTEN  =      -114.88843582 eV

  energy  without entropy=     -114.88843582  energy(sigma->0) =     -114.88843582
 


--------------------------------------------------------------------------------------------------------


    POTLOK:  cpu time    0.0740: real time    0.0740


--------------------------------------------------------------------------------------------------------


 stress matrix after NEB project (eV)
    -24.21260     -0.00000      0.00000
     -0.00000    -24.21260      0.00000
     -0.00000      0.00000      2.46303
  FORCES: max atom, RMS     0.034777    0.012880
  FORCE total and by dimension    0.077281    0.034777
  Stress total and by dimension   34.330252   24.212597
     LOOP+:  cpu time  108.3043: real time  108.4398
 -----------------------------------------------------------------------------
|                                                                             |
|           W    W    AA    RRRRR   N    N  II  N    N   GGGG   !!!           |
|           W    W   A  A   R    R  NN   N  II  NN   N  G    G  !!!           |
|           W    W  A    A  R    R  N N  N  II  N N  N  G       !!!           |
|           W WW W  AAAAAA  RRRRR   N  N N  II  N  N N  G  GGG   !            |
|           WW  WW  A    A  R   R   N   NN  II  N   NN  G    G                |
|           W    W  A    A  R    R  N    N  II  N    N   GGGG   !!!           |
|                                                                             |
|     Tetrahedron method does not include variations of the Fermi             |
|     occupations, so forces and stress will be inaccurate. We suggest        |
|     using a different smearing scheme ISMEAR = 1 or 2 for metals in         |
|     relaxations.                                                            |
|                                                                             |
 -----------------------------------------------------------------------------

    4ORBIT:  cpu time    0.0000: real time    0.0000



 total charge

# of ion       s       p       d       tot
------------------------------------------
    1        0.544   0.239   8.765   9.549
    2        0.545   0.241   8.765   9.550
    3        0.545   0.241   8.765   9.550
    4        0.545   0.241   8.765   9.550
    5        0.540   0.243   8.763   9.545
    6        0.545   0.241   8.765   9.550
    7        0.545   0.241   8.765   9.550
    8        0.545   0.241   8.765   9.550
    9        0.543   0.239   8.768   9.550
   10        0.525   0.309   8.764   9.597
   11        0.522   0.307   8.781   9.610
   12        0.525   0.309   8.764   9.597
   13        0.522   0.307   8.781   9.610
   14        0.522   0.307   8.781   9.610
   15        0.516   0.307   8.776   9.600
   16        0.525   0.309   8.764   9.597
   17        0.516   0.307   8.776   9.600
   18        0.516   0.307   8.776   9.600
   19        0.515   0.299   8.774   9.589
   20        0.545   0.338   8.743   9.626
   21        0.545   0.338   8.743   9.626
   22        0.507   0.306   8.780   9.594
   23        0.545   0.338   8.743   9.626
   24        0.507   0.306   8.780   9.594
   25        0.515   0.299   8.774   9.589
   26        0.515   0.299   8.774   9.589
   27        0.507   0.306   8.780   9.594
   28        0.536   0.228   8.764   9.528
   29        0.558   0.250   8.738   9.547
   30        0.558   0.250   8.738   9.547
   31        0.558   0.250   8.738   9.547
   32        0.558   0.250   8.738   9.547
   33        0.558   0.250   8.738   9.547
   34        0.558   0.250   8.738   9.547
   35        0.530   0.228   8.766   9.524
   36        0.511   0.316   5.883   6.711
--------------------------------------------------
tot         19.215  10.037 312.581 341.833
 
 BZINTS: Fermi energy:    0.667711;  393.000000 electrons
         Band energy:-0.118342E+04;  BLOECHL correction:   -0.070487

 total amount of memory used by VASP MPI-rank0   121695. kBytes
=======================================================================

   base      :      30000. kBytes
   nonlr-proj:      14107. kBytes
   fftplans  :       4330. kBytes
   grid      :      17098. kBytes
   one-center:        559. kBytes
   wavefun   :      55601. kBytes
 
  
  
 General timing and accounting informations for this job:
 ========================================================
  
                  Total CPU time used (sec):      116.697
                            User time (sec):      113.215
                          System time (sec):        3.482
                         Elapsed time (sec):      117.255
  
                   Maximum memory used (kb):      377908.
                   Average memory used (kb):          N/A
  
                          Minor page faults:        68757
                          Major page faults:            0
                 Voluntary context switches:         5399
