PROCAR new format
# of k-points:   10         # of bands:  252         # of ions:   36

 k-point     1 :    0.00000000 0.00000000 0.00000000     weight = 0.01562500

band     1 # energy   -8.14544260 # occ.  2.00000000
 
ion      s      p      d    tot
    1  0.007  0.001  0.000  0.007
    2  0.007  0.001  0.000  0.007
    3  0.007  0.001  0.000  0.007
    4  0.007  0.001  0.000  0.007
    5  0.007  0.001  0.000  0.007
    6  0.007  0.001  0.000  0.007
    7  0.007  0.001  0.000  0.007
    8  0.007  0.001  0.000  0.007
    9  0.006  0.001  0.000  0.007
   10  0.026  0.000  0.000  0.027
   11  0.027  0.000  0.000  0.027
   12  0.026  0.000  0.000  0.027
   13  0.027  0.000  0.000  0.027
   14  0.027  0.000  0.000  0.027
   15  0.026  0.000  0.000  0.027
   16  0.026  0.000  0.000  0.027
   17  0.026  0.000  0.000  0.027
   18  0.026  0.000  0.000  0.027
   19  0.023  0.000  0.000  0.023
   20  0.026  0.000  0.000  0.027
   21  0.026  0.000  0.000  0.027
   22  0.024  0.000  0.000  0.025
   23  0.026  0.000  0.000  0.027
   24  0.024  0.000  0.000  0.025
   25  0.023  0.000  0.000  0.023
   26  0.023  0.000  0.000  0.023
   27  0.024  0.000  0.000  0.025
   28  0.005  0.000  0.000  0.005
   29  0.005  0.000  0.000  0.006
   30  0.005  0.000  0.000  0.006
   31  0.005  0.000  0.000  0.006
   32  0.005  0.000  0.000  0.006
   33  0.005  0.000  0.000  0.006
   34  0.005  0.000  0.000  0.006
   35  0.005  0.000  0.000  0.005
   36  0.008  0.001  0.000  0.009
tot    0.567  0.012  0.003  0.582
 
band     2 # energy   -6.98726614 # occ.  2.00000000
 
ion      s      p      d    tot
    1  0.017  0.000  0.001  0.018
    2  0.016  0.000  0.001  0.018
    3  0.016  0.000  0.001  0.018
    4  0.016  0.000  0.001  0.018
    5  0.016  0.000  0.001  0.018
    6  0.016  0.000  0.001  0.018
    7  0.016  0.000  0.001  0.018
    8  0.016  0.000  0.001  0.018
    9  0.017  0.000  0.001  0.018
   10  0.011  0.001  0.002  0.014
   11  0.010  0.001  0.002  0.014
   12  0.011  0.001  0.002  0.014
   13  0.010  0.001  0.002  0.014
   14  0.010  0.001  0.002  0.014
   15  0.011  0.001  0.002  0.014
   16  0.011  0.001  0.002  0.014
   17  0.011  0.001  0.002  0.014
   18  0.011  0.001  0.002  0.014
   19  0.013  0.001  0.003  0.017
   20  0.015  0.001  0.003  0.019
   21  0.015  0.001  0.003  0.019
   22  0.013  0.001  0.003  0.017
   23  0.015  0.001  0.003  0.019
   24  0.013  0.001  0.003  0.017
   25  0.013  0.001  0.003  0.017
   26  0.013  0.001  0.003  0.017
   27  0.013  0.001  0.003  0.017
   28  0.014  0.000  0.001  0.015
   29  0.015  0.001  0.001  0.016
   30  0.015  0.001  0.001  0.016
   31  0.015  0.001  0.001  0.016
   32  0.015  0.001  0.001  0.016
   33  0.015  0.001  0.001  0.016
   34  0.015  0.001  0.001  0.016
   35  0.014  0.000  0.001  0.015
   36  0.021  0.001  0.000  0.022
tot    0.502  0.032  0.064  0.598
 
band     3 # energy   -6.02404780 # occ.  2.00000000
 
ion      s      p      d    tot
    1  0.014  0.000  0.023  0.037
    2  0.019  0.000  0.019  0.038
    3  0.019  0.000  0.019  0.038
    4  0.019  0.000  0.019  0.038
    5  0.013  0.000  0.018  0.031
    6  0.019  0.000  0.019  0.038
    7  0.019  0.000  0.019  0.038
    8  0.019  0.000  0.019  0.038
    9  0.033  0.000  0.014  0.047
   10  0.011  0.001  0.021  0.033
   11  0.016  0.001  0.018  0.035
   12  0.010  0.001  0.021  0.033
   13  0.016  0.001  0.018  0.035
   14  0.016  0.001  0.018  0.035
   15  0.000  0.001  0.024  0.025
   16  0.010  0.001  0.021  0.033
   17  0.000  0.001  0.024  0.025
   18  0.000  0.001  0.024  0.025
   19  0.000  0.001  0.003  0.004
   20  0.003  0.001  0.003  0.008
   21  0.003  0.001  0.003  0.008
   22  0.002  0.001  0.001  0.004
   23  0.003  0.001  0.003  0.008
   24  0.002  0.001  0.001  0.004
   25  0.000  0.001  0.003  0.004
   26  0.000  0.001  0.003  0.004
   27  0.002  0.001  0.001  0.004
   28  0.005  0.000  0.000  0.006
   29  0.003  0.000  0.002  0.005
   30  0.003  0.000  0.002  0.005
   31  0.003  0.000  0.002  0.005
   32  0.003  0.000  0.002  0.005
   33  0.003  0.000  0.002  0.005
   34  0.003  0.000  0.002  0.005
   35  0.005  0.000  0.001  0.006
   36  0.000  0.000  0.001  0.002
tot    0.299  0.017  0.394  0.709
 
band     4 # energy   -6.02143063 # occ.  2.00000000
 
ion      s      p      d    tot
    1  0.017  0.001  0.000  0.017
    2  0.003  0.000  0.007  0.010
    3  0.003  0.000  0.007  0.010
    4  0.003  0.000  0.007  0.010
    5  0.007  0.000  0.003  0.010
    6  0.003  0.000  0.007  0.010
    7  0.003  0.000  0.007  0.010
    8  0.003  0.000  0.007  0.010
    9  0.003  0.002  0.006  0.011
   10  0.003  0.000  0.029  0.032
   11  0.002  0.002  0.012  0.016
   12  0.003  0.000  0.029  0.032
   13  0.002  0.002  0.012  0.016
   14  0.002  0.002  0.012  0.016
   15  0.034  0.002  0.004  0.040
   16  0.003  0.000  0.029  0.032
   17  0.034  0.002  0.004  0.040
   18  0.034  0.002  0.004  0.040
   19  0.001  0.001  0.019  0.020
   20  0.015  0.001  0.020  0.036
   21  0.015  0.001  0.020  0.036
   22  0.023  0.003  0.002  0.028
   23  0.015  0.001  0.020  0.036
   24  0.023  0.003  0.002  0.028
   25  0.001  0.001  0.019  0.020
   26  0.001  0.001  0.019  0.020
   27  0.023  0.003  0.002  0.028
   28  0.000  0.000  0.003  0.004
   29  0.002  0.001  0.005  0.008
   30  0.002  0.001  0.005  0.008
   31  0.002  0.001  0.005  0.008
   32  0.002  0.001  0.005  0.008
   33  0.002  0.001  0.005  0.008
   34  0.002  0.001  0.005  0.008
   35  0.001  0.001  0.003  0.004
   36  0.028  0.002  0.000  0.030
tot    0.319  0.040  0.344  0.703
 
band     5 # energy   -5.99337261 # occ.  2.00000000
 
ion      s      p      d    tot
    1  0.000  0.000  0.008  0.009
    2  0.005  0.001  0.004  0.009
    3  0.006  0.001  0.003  0.011
    4  0.005  0.001  0.004  0.009
    5  0.000  0.001  0.008  0.009
    6  0.000  0.000  0.003  0.003
    7  0.006  0.001  0.003  0.011
    8  0.000  0.000  0.003  0.003
    9  0.000  0.000  0.001  0.001
   10  0.000  0.000  0.037  0.037
   11  0.042  0.002  0.015  0.059
   12  0.024  0.002  0.013  0.039
   13  0.043  0.001  0.015  0.059
   14  0.000  0.003  0.029  0.032
   15  0.003  0.001  0.011  0.015
   16  0.024  0.002  0.013  0.039
   17  0.003  0.001  0.011  0.015
   18  0.000  0.004  0.003  0.007
   19  0.005  0.001  0.010  0.016
   20  0.000  0.002  0.029  0.032
   21  0.044  0.002  0.015  0.061
   22  0.015  0.001  0.010  0.027
   23  0.043  0.002  0.015  0.060
   24  0.000  0.000  0.028  0.029
   25  0.000  0.004  0.003  0.007
   26  0.005  0.001  0.010  0.016
   27  0.015  0.001  0.010  0.027
   28  0.000  0.000  0.001  0.001
   29  0.000  0.000  0.002  0.002
   30  0.005  0.001  0.003  0.008
   31  0.000  0.000  0.002  0.002
   32  0.004  0.001  0.003  0.009
   33  0.005  0.001  0.003  0.008
   34  0.004  0.001  0.003  0.009
   35  0.000  0.000  0.004  0.005
   36  0.000  0.002  0.006  0.009
tot    0.307  0.043  0.345  0.695
 
band     6 # energy   -5.99334948 # occ.  2.00000000
 
ion      s      p      d    tot
    1  0.000  0.000  0.008  0.009
    2  0.003  0.001  0.003  0.006
    3  0.001  0.000  0.003  0.005
    4  0.003  0.001  0.003  0.006
    5  0.000  0.001  0.008  0.009
    6  0.007  0.001  0.004  0.012
    7  0.001  0.000  0.003  0.005
    8  0.007  0.001  0.004  0.012
    9  0.000  0.000  0.001  0.001
   10  0.032  0.002  0.005  0.039
   11  0.015  0.003  0.024  0.041
   12  0.008  0.001  0.029  0.038
   13  0.014  0.003  0.024  0.041
   14  0.057  0.001  0.011  0.068
   15  0.001  0.003  0.006  0.010
   16  0.008  0.001  0.029  0.038
   17  0.001  0.003  0.006  0.010
   18  0.003  0.000  0.014  0.018
   19  0.002  0.003  0.005  0.010
   20  0.058  0.001  0.010  0.070
   21  0.014  0.002  0.025  0.041
   22  0.005  0.001  0.023  0.028
   23  0.015  0.002  0.025  0.042
   24  0.020  0.002  0.004  0.026
   25  0.007  0.000  0.013  0.020
   26  0.002  0.003  0.005  0.010
   27  0.005  0.001  0.022  0.028
   28  0.000  0.000  0.001  0.001
   29  0.006  0.001  0.003  0.010
   30  0.001  0.000  0.003  0.004
   31  0.006  0.001  0.003  0.010
   32  0.002  0.000  0.002  0.004
   33  0.001  0.000  0.003  0.005
   34  0.002  0.000  0.002  0.004
   35  0.000  0.000  0.004  0.005
   36  0.000  0.002  0.006  0.009
tot    0.307  0.043  0.345  0.695
 
band     7 # energy   -5.95149220 # occ.  2.00000000
 
ion      s      p      d    tot
    1  0.009  0.001  0.001  0.011
    2  0.000  0.001  0.006  0.007
    3  0.000  0.001  0.006  0.007
    4  0.000  0.001  0.006  0.007
    5  0.018  0.002  0.001  0.020
    6  0.000  0.001  0.006  0.007
    7  0.000  0.001  0.006  0.007
    8  0.000  0.001  0.006  0.007
    9  0.000  0.000  0.002  0.002
   10  0.025  0.003  0.002  0.030
   11  0.022  0.001  0.022  0.044
   12  0.024  0.003  0.002  0.030
   13  0.022  0.001  0.022  0.044
   14  0.022  0.001  0.022  0.044
   15  0.000  0.001  0.025  0.026
   16  0.024  0.003  0.002  0.030
   17  0.000  0.001  0.025  0.026
   18  0.000  0.001  0.025  0.026
   19  0.028  0.002  0.003  0.034
   20  0.003  0.002  0.017  0.022
   21  0.003  0.002  0.016  0.021
   22  0.007  0.000  0.027  0.033
   23  0.003  0.002  0.016  0.021
   24  0.007  0.000  0.027  0.033
   25  0.028  0.002  0.003  0.034
   26  0.028  0.002  0.003  0.034
   27  0.007  0.000  0.027  0.033
   28  0.007  0.001  0.002  0.010
   29  0.000  0.000  0.004  0.005
   30  0.000  0.000  0.004  0.005
   31  0.000  0.000  0.004  0.005
   32  0.000  0.000  0.004  0.005
   33  0.000  0.000  0.004  0.005
   34  0.000  0.000  0.004  0.005
   35  0.008  0.001  0.001  0.009
   36  0.002  0.000  0.001  0.003
tot    0.299  0.040  0.354  0.694
 
band     8 # energy   -5.94473020 # occ.  2.00000000
 
ion      s      p      d    tot
    1  0.000  0.001  0.004  0.005
    2  0.005  0.001  0.004  0.010
    3  0.008  0.001  0.004  0.013
    4  0.005  0.001  0.004  0.011
    5  0.000  0.000  0.004  0.004
    6  0.000  0.000  0.003  0.004
    7  0.008  0.001  0.004  0.013
    8  0.000  0.000  0.003  0.004
    9  0.000  0.001  0.011  0.013
   10  0.031  0.000  0.016  0.047
   11  0.001  0.002  0.018  0.021
   12  0.008  0.004  0.008  0.019
   13  0.001  0.002  0.018  0.021
   14  0.005  0.001  0.009  0.015
   15  0.016  0.001  0.035  0.052
   16  0.008  0.003  0.008  0.020
   17  0.015  0.001  0.036  0.052
   18  0.062  0.002  0.005  0.068
   19  0.011  0.001  0.027  0.039
   20  0.002  0.001  0.011  0.013
   21  0.000  0.002  0.012  0.014
   22  0.008  0.003  0.013  0.024
   23  0.000  0.002  0.012  0.014
   24  0.031  0.000  0.013  0.044
   25  0.043  0.002  0.003  0.048
   26  0.010  0.001  0.027  0.038
   27  0.008  0.003  0.013  0.024
   28  0.000  0.001  0.006  0.007
   29  0.000  0.000  0.002  0.002
   30  0.003  0.001  0.002  0.005
   31  0.000  0.000  0.002  0.002
   32  0.004  0.001  0.003  0.007
   33  0.003  0.001  0.002  0.005
   34  0.004  0.001  0.003  0.007
   35  0.000  0.001  0.003  0.004
   36  0.000  0.000  0.001  0.001
tot    0.300  0.042  0.351  0.693
 
band     9 # energy   -5.94469519 # occ.  2.00000000
 
ion      s      p      d    tot
    1  0.000  0.001  0.004  0.005
    2  0.004  0.001  0.003  0.008
    3  0.001  0.001  0.004  0.006
    4  0.003  0.001  0.003  0.007
    5  0.000  0.000  0.004  0.004
    6  0.009  0.001  0.004  0.014
    7  0.001  0.001  0.004  0.005
    8  0.009  0.001  0.004  0.014
    9  0.000  0.001  0.011  0.013
   10  0.000  0.005  0.006  0.010
   11  0.004  0.001  0.012  0.017
   12  0.024  0.001  0.014  0.039
   13  0.004  0.001  0.012  0.017
   14  0.000  0.002  0.021  0.023
   15  0.046  0.001  0.015  0.063
   16  0.023  0.001  0.013  0.038
   17  0.047  0.001  0.015  0.063
   18  0.000  0.001  0.046  0.047
   19  0.032  0.002  0.012  0.045
   20  0.000  0.002  0.012  0.014
   21  0.001  0.001  0.011  0.014
   22  0.024  0.001  0.013  0.038
   23  0.001  0.001  0.011  0.014
   24  0.000  0.004  0.013  0.017
   25  0.000  0.000  0.035  0.036
   26  0.032  0.002  0.011  0.045
   27  0.023  0.001  0.013  0.037
   28  0.000  0.001  0.006  0.007
   29  0.004  0.001  0.002  0.008
   30  0.001  0.000  0.003  0.004
   31  0.004  0.001  0.002  0.008
   32  0.001  0.000  0.002  0.003
   33  0.002  0.000  0.003  0.004
   34  0.001  0.000  0.002  0.003
   35  0.000  0.001  0.003  0.004
   36  0.000  0.000  0.001  0.001
tot    0.300  0.042  0.351  0.693
 
band    10 # energy   -5.92338525 # occ.  2.00000000
 
ion      s      p      d    tot
    1  0.000  0.000  0.000  0.000
    2  0.000  0.000  0.001  0.001
    3  0.000  0.000  0.001  0.001
    4  0.000  0.000  0.001  0.001
    5  0.001  0.000  0.000  0.001
    6  0.000  0.000  0.001  0.001
    7  0.000  0.000  0.001  0.001
    8  0.000  0.000  0.001  0.001
    9  0.000  0.000  0.001  0.001
   10  0.001  0.000  0.008  0.009
   11  0.000  0.000  0.009  0.009
   12  0.001  0.000  0.008  0.009
   13  0.000  0.000  0.009  0.009
   14  0.000  0.000  0.009  0.009
   15  0.004  0.000  0.006  0.010
   16  0.001  0.000  0.008  0.009
   17  0.004  0.000  0.006  0.010
   18  0.004  0.000  0.006  0.010
   19  0.005  0.000  0.026  0.031
   20  0.013  0.001  0.028  0.042
   21  0.013  0.001  0.028  0.042
   22  0.004  0.000  0.027  0.031
   23  0.013  0.001  0.028  0.042
   24  0.004  0.000  0.027  0.031
   25  0.005  0.000  0.026  0.031
   26  0.005  0.000  0.026  0.031
   27  0.004  0.000  0.027  0.031
   28  0.021  0.000  0.015  0.036
   29  0.020  0.000  0.018  0.038
   30  0.020  0.000  0.018  0.038
   31  0.020  0.000  0.018  0.038
   32  0.020  0.000  0.018  0.038
   33  0.020  0.000  0.018  0.038
   34  0.020  0.000  0.018  0.038
   35  0.020  0.000  0.018  0.038
   36  0.013  0.001  0.014  0.029
tot    0.257  0.009  0.472  0.738
 
band    11 # energy   -5.51360337 # occ.  2.00000000
 
ion      s      p      d    tot
    1  0.018  0.002  0.001  0.020
    2  0.000  0.001  0.007  0.008
    3  0.000  0.001  0.007  0.008
    4  0.000  0.001  0.007  0.008
    5  0.005  0.001  0.002  0.008
    6  0.000  0.001  0.007  0.008
    7  0.000  0.001  0.007  0.008
    8  0.000  0.001  0.007  0.008
    9  0.004  0.000  0.001  0.004
   10  0.004  0.001  0.015  0.020
   11  0.008  0.001  0.019  0.029
   12  0.005  0.001  0.014  0.020
   13  0.008  0.001  0.019  0.029
   14  0.008  0.001  0.019  0.028
   15  0.000  0.000  0.040  0.041
   16  0.005  0.001  0.014  0.020
   17  0.000  0.000  0.040  0.041
   18  0.000  0.000  0.040  0.041
   19  0.012  0.002  0.006  0.020
   20  0.001  0.001  0.035  0.036
   21  0.001  0.001  0.034  0.036
   22  0.007  0.001  0.041  0.049
   23  0.001  0.001  0.034  0.036
   24  0.007  0.001  0.041  0.049
   25  0.012  0.002  0.006  0.020
   26  0.012  0.002  0.006  0.020
   27  0.007  0.001  0.041  0.049
   28  0.018  0.002  0.001  0.021
   29  0.000  0.001  0.008  0.009
   30  0.000  0.001  0.008  0.009
   31  0.000  0.001  0.008  0.009
   32  0.000  0.001  0.008  0.009
   33  0.000  0.001  0.008  0.009
   34  0.000  0.001  0.008  0.009
   35  0.001  0.000  0.003  0.004
   36  0.011  0.001  0.000  0.012
tot    0.158  0.031  0.562  0.751
 
band    12 # energy   -5.49763391 # occ.  2.00000000
 
ion      s      p      d    tot
    1  0.000  0.001  0.004  0.004
    2  0.009  0.001  0.004  0.014
    3  0.001  0.000  0.005  0.006
    4  0.009  0.001  0.004  0.014
    5  0.000  0.001  0.011  0.012
    6  0.005  0.001  0.005  0.011
    7  0.001  0.000  0.005  0.006
    8  0.005  0.001  0.005  0.011
    9  0.000  0.000  0.010  0.010
   10  0.007  0.002  0.010  0.019
   11  0.005  0.000  0.044  0.050
   12  0.002  0.001  0.037  0.040
   13  0.005  0.000  0.044  0.050
   14  0.020  0.001  0.010  0.031
   15  0.001  0.001  0.015  0.017
   16  0.002  0.001  0.037  0.040
   17  0.001  0.001  0.015  0.017
   18  0.003  0.000  0.023  0.026
   19  0.002  0.001  0.012  0.015
   20  0.025  0.001  0.006  0.032
   21  0.006  0.000  0.051  0.058
   22  0.001  0.001  0.033  0.035
   23  0.006  0.000  0.052  0.058
   24  0.006  0.001  0.011  0.018
   25  0.006  0.000  0.021  0.028
   26  0.002  0.001  0.012  0.015
   27  0.001  0.001  0.033  0.035
   28  0.000  0.000  0.007  0.008
   29  0.006  0.001  0.004  0.012
   30  0.000  0.000  0.004  0.004
   31  0.007  0.001  0.004  0.012
   32  0.007  0.001  0.004  0.012
   33  0.000  0.000  0.004  0.004
   34  0.007  0.001  0.004  0.012
   35  0.000  0.000  0.003  0.004
   36  0.000  0.003  0.006  0.009
tot    0.156  0.031  0.562  0.749
 
band    13 # energy   -5.49763254 # occ.  2.00000000
 
ion      s      p      d    tot
    1  0.000  0.001  0.004  0.004
    2  0.001  0.001  0.005  0.007
    3  0.009  0.001  0.005  0.015
    4  0.001  0.001  0.005  0.007
    5  0.000  0.001  0.011  0.012
    6  0.005  0.001  0.004  0.009
    7  0.009  0.001  0.005  0.015
    8  0.005  0.001  0.004  0.010
    9  0.000  0.000  0.010  0.010
   10  0.000  0.001  0.046  0.047
   11  0.015  0.001  0.021  0.037
   12  0.005  0.002  0.019  0.026
   13  0.015  0.001  0.021  0.037
   14  0.000  0.000  0.056  0.056
   15  0.002  0.000  0.021  0.023
   16  0.005  0.002  0.019  0.026
   17  0.002  0.000  0.021  0.023
   18  0.000  0.001  0.012  0.013
   19  0.005  0.000  0.018  0.024
   20  0.000  0.000  0.066  0.066
   21  0.018  0.001  0.022  0.041
   22  0.004  0.001  0.019  0.024
   23  0.018  0.001  0.021  0.041
   24  0.000  0.001  0.040  0.041
   25  0.000  0.001  0.009  0.011
   26  0.005  0.000  0.018  0.024
   27  0.004  0.001  0.018  0.024
   28  0.000  0.000  0.007  0.008
   29  0.002  0.001  0.004  0.007
   30  0.009  0.001  0.004  0.014
   31  0.002  0.001  0.004  0.007
   32  0.002  0.001  0.004  0.007
   33  0.009  0.001  0.004  0.014
   34  0.002  0.001  0.004  0.007
   35  0.000  0.000  0.003  0.004
   36  0.000  0.003  0.006  0.009
tot    0.156  0.031  0.562  0.749
 
band    14 # energy   -5.48727904 # occ.  2.00000000
 
ion      s      p      d    tot
    1  0.000  0.000  0.002  0.003
    2  0.000  0.001  0.009  0.010
    3  0.000  0.001  0.009  0.010
    4  0.000  0.001  0.009  0.010
    5  0.014  0.001  0.000  0.015
    6  0.000  0.001  0.009  0.010
    7  0.000  0.001  0.009  0.010
    8  0.000  0.001  0.009  0.010
    9  0.017  0.002  0.002  0.021
   10  0.005  0.000  0.039  0.045
   11  0.001  0.001  0.033  0.035
   12  0.005  0.000  0.039  0.045
   13  0.001  0.001  0.033  0.035
   14  0.001  0.001  0.033  0.035
   15  0.011  0.002  0.008  0.021
   16  0.005  0.000  0.039  0.045
   17  0.011  0.002  0.008  0.021
   18  0.011  0.002  0.008  0.021
   19  0.001  0.000  0.036  0.038
   20  0.011  0.002  0.024  0.037
   21  0.011  0.002  0.024  0.037
   22  0.006  0.001  0.013  0.020
   23  0.011  0.002  0.024  0.037
   24  0.006  0.001  0.013  0.020
   25  0.001  0.000  0.036  0.038
   26  0.001  0.000  0.036  0.038
   27  0.006  0.001  0.013  0.020
   28  0.000  0.000  0.001  0.001
   29  0.000  0.001  0.006  0.006
   30  0.000  0.001  0.006  0.006
   31  0.000  0.001  0.006  0.006
   32  0.000  0.001  0.006  0.006
   33  0.000  0.001  0.006  0.006
   34  0.000  0.001  0.006  0.006
   35  0.014  0.001  0.001  0.016
   36  0.012  0.002  0.002  0.017
tot    0.164  0.033  0.555  0.752
 
band    15 # energy   -5.46280757 # occ.  2.00000000
 
ion      s      p      d    tot
    1  0.000  0.001  0.015  0.016
    2  0.010  0.001  0.004  0.015
    3  0.001  0.000  0.005  0.007
    4  0.010  0.001  0.004  0.015
    5  0.000  0.000  0.006  0.006
    6  0.004  0.001  0.005  0.011
    7  0.001  0.000  0.005  0.007
    8  0.004  0.001  0.005  0.011
    9  0.000  0.001  0.006  0.007
   10  0.000  0.001  0.035  0.035
   11  0.000  0.001  0.020  0.021
   12  0.008  0.000  0.022  0.031
   13  0.000  0.001  0.020  0.021
   14  0.000  0.001  0.016  0.017
   15  0.010  0.002  0.020  0.032
   16  0.008  0.000  0.022  0.031
   17  0.010  0.002  0.020  0.032
   18  0.000  0.000  0.061  0.061
   19  0.015  0.001  0.019  0.036
   20  0.000  0.002  0.020  0.021
   21  0.000  0.001  0.022  0.022
   22  0.017  0.001  0.021  0.038
   23  0.000  0.001  0.022  0.022
   24  0.000  0.001  0.029  0.030
   25  0.000  0.000  0.067  0.067
   26  0.015  0.001  0.019  0.036
   27  0.017  0.001  0.021  0.038
   28  0.000  0.001  0.005  0.006
   29  0.005  0.001  0.004  0.010
   30  0.000  0.000  0.004  0.005
   31  0.005  0.001  0.004  0.010
   32  0.005  0.001  0.003  0.008
   33  0.000  0.000  0.004  0.005
   34  0.005  0.001  0.003  0.008
   35  0.000  0.001  0.008  0.009
   36  0.000  0.000  0.002  0.002
tot    0.150  0.029  0.570  0.750
 
band    16 # energy   -5.46278353 # occ.  2.00000000
 
ion      s      p      d    tot
    1  0.000  0.001  0.015  0.016
    2  0.000  0.001  0.005  0.006
    3  0.009  0.001  0.005  0.015
    4  0.000  0.001  0.005  0.006
    5  0.000  0.000  0.006  0.006
    6  0.006  0.001  0.005  0.011
    7  0.009  0.001  0.005  0.015
    8  0.006  0.001  0.005  0.011
    9  0.000  0.001  0.006  0.007
   10  0.011  0.000  0.018  0.029
   11  0.000  0.001  0.017  0.018
   12  0.003  0.000  0.030  0.034
   13  0.000  0.001  0.017  0.018
   14  0.000  0.001  0.021  0.022
   15  0.003  0.001  0.048  0.052
   16  0.003  0.000  0.030  0.034
   17  0.003  0.001  0.048  0.052
   18  0.013  0.002  0.007  0.022
   19  0.005  0.001  0.051  0.057
   20  0.000  0.000  0.022  0.022
   21  0.000  0.001  0.020  0.022
   22  0.006  0.001  0.026  0.033
   23  0.000  0.001  0.020  0.022
   24  0.022  0.001  0.018  0.041
   25  0.021  0.001  0.004  0.026
   26  0.005  0.001  0.051  0.057
   27  0.006  0.001  0.026  0.033
   28  0.000  0.001  0.005  0.006
   29  0.001  0.000  0.004  0.005
   30  0.007  0.001  0.003  0.011
   31  0.001  0.000  0.004  0.005
   32  0.002  0.001  0.005  0.007
   33  0.007  0.001  0.003  0.011
   34  0.002  0.001  0.005  0.007
   35  0.000  0.001  0.008  0.009
   36  0.000  0.000  0.002  0.002
tot    0.150  0.029  0.570  0.750
 
band    17 # energy   -5.13237893 # occ.  2.00000000
 
ion      s      p      d    tot
    1  0.008  0.000  0.012  0.020
    2  0.000  0.001  0.022  0.023
    3  0.000  0.001  0.022  0.023
    4  0.000  0.001  0.022  0.023
    5  0.005  0.001  0.001  0.007
    6  0.000  0.001  0.022  0.023
    7  0.000  0.001  0.022  0.023
    8  0.000  0.001  0.022  0.023
    9  0.027  0.001  0.006  0.033
   10  0.000  0.000  0.031  0.032
   11  0.000  0.000  0.024  0.024
   12  0.000  0.000  0.031  0.032
   13  0.000  0.000  0.024  0.024
   14  0.000  0.000  0.024  0.024
   15  0.000  0.000  0.032  0.032
   16  0.000  0.000  0.031  0.032
   17  0.000  0.000  0.032  0.032
   18  0.000  0.000  0.032  0.032
   19  0.000  0.000  0.024  0.024
   20  0.000  0.000  0.032  0.032
   21  0.000  0.000  0.032  0.032
   22  0.000  0.000  0.021  0.021
   23  0.000  0.000  0.032  0.032
   24  0.000  0.000  0.021  0.021
   25  0.000  0.000  0.024  0.024
   26  0.000  0.000  0.024  0.024
   27  0.000  0.000  0.021  0.021
   28  0.003  0.000  0.007  0.010
   29  0.000  0.001  0.015  0.016
   30  0.000  0.001  0.015  0.016
   31  0.000  0.001  0.015  0.016
   32  0.000  0.001  0.015  0.016
   33  0.000  0.001  0.015  0.016
   34  0.000  0.001  0.015  0.016
   35  0.007  0.000  0.000  0.007
   36  0.016  0.000  0.004  0.021
tot    0.070  0.016  0.739  0.825
 
band    18 # energy   -5.12350294 # occ.  2.00000000
 
ion      s      p      d    tot
    1  0.000  0.000  0.026  0.026
    2  0.001  0.001  0.011  0.013
    3  0.005  0.000  0.016  0.022
    4  0.001  0.001  0.011  0.013
    5  0.000  0.001  0.027  0.028
    6  0.011  0.001  0.011  0.023
    7  0.005  0.000  0.016  0.021
    8  0.011  0.001  0.011  0.023
    9  0.000  0.001  0.004  0.006
   10  0.000  0.000  0.022  0.022
   11  0.000  0.000  0.053  0.054
   12  0.000  0.000  0.013  0.013
   13  0.000  0.000  0.053  0.054
   14  0.000  0.001  0.047  0.048
   15  0.000  0.000  0.026  0.026
   16  0.000  0.000  0.013  0.013
   17  0.000  0.000  0.026  0.026
   18  0.000  0.000  0.038  0.038
   19  0.000  0.000  0.009  0.009
   20  0.001  0.000  0.059  0.061
   21  0.000  0.000  0.034  0.035
   22  0.000  0.000  0.028  0.029
   23  0.000  0.000  0.034  0.035
   24  0.000  0.000  0.025  0.026
   25  0.001  0.000  0.011  0.012
   26  0.000  0.000  0.009  0.009
   27  0.000  0.000  0.028  0.029
   28  0.000  0.001  0.008  0.008
   29  0.007  0.001  0.012  0.020
   30  0.000  0.000  0.008  0.009
   31  0.007  0.001  0.012  0.020
   32  0.005  0.000  0.006  0.011
   33  0.000  0.000  0.008  0.009
   34  0.005  0.000  0.006  0.011
   35  0.000  0.000  0.018  0.018
   36  0.000  0.002  0.006  0.008
tot    0.065  0.016  0.746  0.827
 
band    19 # energy   -5.12349414 # occ.  2.00000000
 
ion      s      p      d    tot
    1  0.000  0.000  0.026  0.026
    2  0.010  0.001  0.014  0.025
    3  0.007  0.001  0.009  0.017
    4  0.010  0.001  0.014  0.025
    5  0.000  0.001  0.027  0.028
    6  0.000  0.000  0.015  0.016
    7  0.007  0.001  0.009  0.017
    8  0.000  0.000  0.015  0.016
    9  0.000  0.001  0.004  0.006
   10  0.000  0.000  0.010  0.010
   11  0.000  0.001  0.049  0.050
   12  0.000  0.000  0.019  0.019
   13  0.000  0.001  0.049  0.050
   14  0.000  0.000  0.055  0.055
   15  0.000  0.000  0.034  0.034
   16  0.000  0.000  0.019  0.019
   17  0.000  0.000  0.034  0.034
   18  0.000  0.000  0.022  0.022
   19  0.000  0.000  0.010  0.011
   20  0.000  0.000  0.026  0.026
   21  0.001  0.000  0.051  0.052
   22  0.000  0.000  0.026  0.027
   23  0.001  0.000  0.051  0.052
   24  0.000  0.000  0.029  0.030
   25  0.000  0.000  0.008  0.008
   26  0.000  0.000  0.010  0.011
   27  0.000  0.000  0.026  0.027
   28  0.000  0.001  0.008  0.008
   29  0.001  0.000  0.005  0.007
   30  0.008  0.001  0.009  0.018
   31  0.001  0.000  0.005  0.007
   32  0.004  0.001  0.011  0.015
   33  0.008  0.001  0.009  0.018
   34  0.004  0.001  0.011  0.015
   35  0.000  0.000  0.018  0.018
   36  0.000  0.002  0.006  0.008
tot    0.065  0.016  0.746  0.827
 
band    20 # energy   -5.10451238 # occ.  2.00000000
 
ion      s      p      d    tot
    1  0.016  0.001  0.000  0.017
    2  0.000  0.001  0.018  0.018
    3  0.000  0.001  0.018  0.018
    4  0.000  0.001  0.018  0.018
    5  0.015  0.000  0.013  0.028
    6  0.000  0.001  0.018  0.018
    7  0.000  0.001  0.018  0.018
    8  0.000  0.001  0.018  0.018
    9  0.000  0.000  0.008  0.008
   10  0.000  0.000  0.028  0.028
   11  0.000  0.000  0.035  0.035
   12  0.000  0.000  0.028  0.028
   13  0.000  0.000  0.035  0.035
   14  0.000  0.000  0.035  0.035
   15  0.000  0.000  0.036  0.037
   16  0.000  0.000  0.028  0.028
   17  0.000  0.000  0.036  0.037
   18  0.000  0.000  0.036  0.037
   19  0.000  0.000  0.023  0.024
   20  0.000  0.000  0.021  0.022
   21  0.000  0.000  0.021  0.022
   22  0.001  0.000  0.028  0.029
   23  0.000  0.000  0.021  0.022
   24  0.001  0.000  0.028  0.029
   25  0.000  0.000  0.023  0.024
   26  0.000  0.000  0.023  0.024
   27  0.001  0.000  0.028  0.029
   28  0.015  0.001  0.002  0.018
   29  0.000  0.001  0.016  0.017
   30  0.000  0.001  0.016  0.017
   31  0.000  0.001  0.016  0.017
   32  0.000  0.001  0.016  0.017
   33  0.000  0.001  0.016  0.017
   34  0.000  0.001  0.016  0.017
   35  0.012  0.000  0.006  0.018
   36  0.000  0.000  0.002  0.003
tot    0.064  0.013  0.747  0.824
 
band    21 # energy   -5.08279645 # occ.  2.00000000
 
ion      s      p      d    tot
    1  0.000  0.002  0.015  0.017
    2  0.014  0.001  0.019  0.034
    3  0.009  0.001  0.013  0.023
    4  0.014  0.001  0.019  0.034
    5  0.000  0.001  0.017  0.018
    6  0.001  0.001  0.019  0.020
    7  0.009  0.001  0.013  0.023
    8  0.000  0.001  0.019  0.020
    9  0.000  0.000  0.045  0.045
   10  0.000  0.001  0.053  0.054
   11  0.000  0.000  0.018  0.018
   12  0.000  0.000  0.048  0.048
   13  0.000  0.000  0.018  0.018
   14  0.000  0.000  0.026  0.026
   15  0.000  0.001  0.034  0.035
   16  0.000  0.000  0.047  0.048
   17  0.000  0.001  0.034  0.035
   18  0.000  0.001  0.029  0.030
   19  0.000  0.000  0.021  0.021
   20  0.000  0.000  0.016  0.017
   21  0.000  0.000  0.014  0.014
   22  0.001  0.000  0.012  0.013
   23  0.000  0.000  0.014  0.014
   24  0.003  0.000  0.023  0.027
   25  0.000  0.000  0.031  0.032
   26  0.000  0.000  0.021  0.022
   27  0.001  0.000  0.012  0.013
   28  0.000  0.000  0.015  0.015
   29  0.000  0.000  0.007  0.008
   30  0.006  0.000  0.005  0.011
   31  0.000  0.000  0.008  0.008
   32  0.004  0.001  0.010  0.015
   33  0.006  0.000  0.005  0.012
   34  0.004  0.001  0.010  0.015
   35  0.000  0.001  0.005  0.006
   36  0.000  0.000  0.008  0.009
tot    0.075  0.017  0.723  0.815
 
band    22 # energy   -5.08279391 # occ.  2.00000000
 
ion      s      p      d    tot
    1  0.000  0.002  0.015  0.017
    2  0.002  0.001  0.014  0.017
    3  0.006  0.001  0.021  0.028
    4  0.002  0.001  0.014  0.017
    5  0.000  0.001  0.017  0.018
    6  0.015  0.001  0.015  0.031
    7  0.007  0.001  0.021  0.028
    8  0.015  0.001  0.015  0.031
    9  0.000  0.000  0.045  0.045
   10  0.000  0.000  0.046  0.046
   11  0.000  0.000  0.023  0.023
   12  0.000  0.001  0.051  0.052
   13  0.000  0.000  0.023  0.023
   14  0.000  0.000  0.016  0.016
   15  0.000  0.001  0.030  0.031
   16  0.000  0.001  0.051  0.052