PROCAR new format
# of k-points:   10         # of bands:  252         # of ions:   36

 k-point     1 :    0.00000000 0.00000000 0.00000000     weight = 0.01562500

band     1 # energy   -8.69016823 # occ.  2.00000000
 
ion      s      p      d    tot
    1  0.007  0.001  0.000  0.007
    2  0.007  0.001  0.000  0.007
    3  0.007  0.001  0.000  0.007
    4  0.007  0.001  0.000  0.007
    5  0.007  0.001  0.000  0.007
    6  0.007  0.001  0.000  0.007
    7  0.007  0.001  0.000  0.007
    8  0.007  0.001  0.000  0.007
    9  0.007  0.001  0.000  0.007
   10  0.025  0.000  0.000  0.025
   11  0.025  0.000  0.000  0.025
   12  0.025  0.000  0.000  0.025
   13  0.025  0.000  0.000  0.025
   14  0.025  0.000  0.000  0.025
   15  0.025  0.000  0.000  0.025
   16  0.025  0.000  0.000  0.025
   17  0.025  0.000  0.000  0.025
   18  0.025  0.000  0.000  0.025
   19  0.025  0.000  0.000  0.026
   20  0.024  0.000  0.000  0.024
   21  0.024  0.000  0.000  0.024
   22  0.024  0.000  0.000  0.025
   23  0.024  0.000  0.000  0.024
   24  0.024  0.000  0.000  0.025
   25  0.025  0.000  0.000  0.026
   26  0.025  0.000  0.000  0.026
   27  0.024  0.000  0.000  0.025
   28  0.007  0.001  0.000  0.008
   29  0.007  0.001  0.000  0.007
   30  0.007  0.001  0.000  0.007
   31  0.007  0.001  0.000  0.007
   32  0.007  0.001  0.000  0.007
   33  0.007  0.001  0.000  0.007
   34  0.007  0.001  0.000  0.007
   35  0.007  0.001  0.000  0.008
   36  0.008  0.001  0.000  0.009
tot    0.565  0.017  0.001  0.583
 
band     2 # energy   -7.39262652 # occ.  2.00000000
 
ion      s      p      d    tot
    1  0.018  0.001  0.000  0.019
    2  0.018  0.001  0.000  0.019
    3  0.018  0.001  0.000  0.019
    4  0.018  0.001  0.000  0.019
    5  0.018  0.001  0.000  0.019
    6  0.018  0.001  0.000  0.019
    7  0.018  0.001  0.000  0.019
    8  0.018  0.001  0.000  0.019
    9  0.018  0.001  0.000  0.019
   10  0.010  0.002  0.001  0.013
   11  0.010  0.002  0.001  0.013
   12  0.010  0.002  0.001  0.013
   13  0.010  0.002  0.001  0.013
   14  0.010  0.002  0.001  0.013
   15  0.010  0.002  0.001  0.012
   16  0.010  0.002  0.001  0.013
   17  0.010  0.002  0.001  0.012
   18  0.010  0.002  0.001  0.012
   19  0.011  0.002  0.000  0.014
   20  0.009  0.002  0.001  0.012
   21  0.009  0.002  0.001  0.012
   22  0.011  0.002  0.001  0.013
   23  0.009  0.002  0.001  0.012
   24  0.011  0.002  0.001  0.013
   25  0.011  0.002  0.000  0.014
   26  0.011  0.002  0.000  0.014
   27  0.011  0.002  0.001  0.013
   28  0.020  0.001  0.001  0.022
   29  0.019  0.001  0.001  0.020
   30  0.019  0.001  0.001  0.020
   31  0.019  0.001  0.001  0.020
   32  0.019  0.001  0.001  0.020
   33  0.019  0.001  0.001  0.020
   34  0.019  0.001  0.001  0.020
   35  0.020  0.001  0.001  0.021
   36  0.019  0.001  0.001  0.021
tot    0.512  0.055  0.020  0.586
 
band     3 # energy   -5.78963561 # occ.  2.00000000
 
ion      s      p      d    tot
    1  0.017  0.000  0.006  0.022
    2  0.015  0.000  0.006  0.021
    3  0.015  0.000  0.006  0.021
    4  0.015  0.000  0.006  0.021
    5  0.007  0.000  0.007  0.015
    6  0.015  0.000  0.006  0.021
    7  0.015  0.000  0.006  0.021
    8  0.015  0.000  0.006  0.021
    9  0.023  0.000  0.004  0.028
   10  0.003  0.003  0.003  0.009
   11  0.011  0.005  0.001  0.017
   12  0.003  0.003  0.003  0.009
   13  0.011  0.005  0.001  0.017
   14  0.011  0.005  0.001  0.017
   15  0.000  0.003  0.004  0.006
   16  0.003  0.003  0.003  0.009
   17  0.000  0.003  0.004  0.006
   18  0.000  0.003  0.004  0.006
   19  0.001  0.003  0.005  0.009
   20  0.016  0.004  0.002  0.022
   21  0.016  0.004  0.002  0.022
   22  0.001  0.004  0.004  0.008
   23  0.016  0.004  0.002  0.022
   24  0.001  0.004  0.004  0.008
   25  0.001  0.003  0.005  0.009
   26  0.001  0.003  0.005  0.009
   27  0.001  0.004  0.004  0.008
   28  0.021  0.000  0.006  0.027
   29  0.016  0.000  0.008  0.024
   30  0.016  0.000  0.008  0.024
   31  0.016  0.000  0.008  0.024
   32  0.016  0.000  0.008  0.024
   33  0.016  0.000  0.008  0.024
   34  0.016  0.000  0.008  0.024
   35  0.026  0.000  0.006  0.032
   36  0.006  0.001  0.009  0.017
tot    0.387  0.069  0.173  0.629
 
band     4 # energy   -5.71487683 # occ.  2.00000000
 
ion      s      p      d    tot
    1  0.000  0.003  0.005  0.008
    2  0.005  0.002  0.002  0.009
    3  0.005  0.002  0.002  0.009
    4  0.008  0.002  0.002  0.013
    5  0.000  0.000  0.002  0.003
    6  0.000  0.001  0.002  0.003
    7  0.008  0.002  0.002  0.012
    8  0.000  0.001  0.002  0.003
    9  0.000  0.001  0.004  0.005
   10  0.049  0.002  0.006  0.057
   11  0.000  0.006  0.004  0.011
   12  0.006  0.008  0.008  0.022
   13  0.000  0.009  0.003  0.013
   14  0.001  0.001  0.005  0.007
   15  0.016  0.002  0.010  0.027
   16  0.021  0.006  0.007  0.034
   17  0.004  0.001  0.014  0.019
   18  0.036  0.005  0.003  0.043
   19  0.026  0.005  0.009  0.040
   20  0.030  0.004  0.003  0.037
   21  0.003  0.001  0.015  0.020
   22  0.001  0.012  0.002  0.014
   23  0.013  0.002  0.011  0.026
   24  0.005  0.001  0.006  0.012
   25  0.060  0.003  0.006  0.069
   26  0.007  0.007  0.010  0.024
   27  0.002  0.008  0.003  0.013
   28  0.000  0.004  0.006  0.010
   29  0.005  0.002  0.003  0.009
   30  0.010  0.002  0.003  0.016
   31  0.009  0.002  0.003  0.015
   32  0.002  0.001  0.003  0.006
   33  0.012  0.003  0.003  0.019
   34  0.000  0.001  0.003  0.004
   35  0.000  0.001  0.003  0.004
   36  0.000  0.001  0.005  0.006
tot    0.346  0.115  0.180  0.641
 
band     5 # energy   -5.71480256 # occ.  2.00000000
 
ion      s      p      d    tot
    1  0.000  0.003  0.005  0.008
    2  0.004  0.001  0.002  0.007
    3  0.004  0.001  0.002  0.008
    4  0.001  0.001  0.002  0.004
    5  0.000  0.000  0.002  0.003
    6  0.009  0.002  0.002  0.014
    7  0.001  0.001  0.002  0.004
    8  0.009  0.002  0.002  0.013
    9  0.000  0.001  0.004  0.005
   10  0.002  0.009  0.008  0.018
   11  0.000  0.005  0.004  0.010
   12  0.045  0.003  0.006  0.054
   13  0.001  0.002  0.005  0.007
   14  0.000  0.010  0.003  0.013
   15  0.022  0.003  0.008  0.032
   16  0.029  0.005  0.007  0.041
   17  0.033  0.004  0.004  0.041
   18  0.001  0.000  0.015  0.016
   19  0.036  0.005  0.008  0.048
   20  0.001  0.001  0.016  0.018
   21  0.027  0.004  0.004  0.035
   22  0.005  0.002  0.005  0.012
   23  0.018  0.003  0.008  0.029
   24  0.000  0.013  0.002  0.014
   25  0.002  0.007  0.011  0.020
   26  0.055  0.003  0.006  0.065
   27  0.003  0.006  0.004  0.013
   28  0.000  0.004  0.006  0.010
   29  0.008  0.002  0.003  0.013
   30  0.003  0.001  0.003  0.007
   31  0.003  0.001  0.003  0.008
   32  0.011  0.003  0.003  0.016
   33  0.000  0.001  0.003  0.004
   34  0.013  0.003  0.003  0.019
   35  0.000  0.001  0.003  0.004
   36  0.000  0.001  0.005  0.006
tot    0.346  0.115  0.180  0.641
 
band     6 # energy   -5.70416853 # occ.  2.00000000
 
ion      s      p      d    tot
    1  0.019  0.003  0.001  0.023
    2  0.000  0.002  0.004  0.005
    3  0.000  0.002  0.004  0.006
    4  0.000  0.002  0.004  0.005
    5  0.002  0.000  0.000  0.003
    6  0.000  0.002  0.004  0.005
    7  0.000  0.002  0.004  0.006
    8  0.000  0.002  0.004  0.005
    9  0.008  0.001  0.000  0.009
   10  0.030  0.006  0.005  0.042
   11  0.006  0.000  0.011  0.018
   12  0.031  0.006  0.005  0.042
   13  0.006  0.000  0.011  0.018
   14  0.006  0.000  0.011  0.018
   15  0.009  0.007  0.004  0.021
   16  0.031  0.006  0.005  0.042
   17  0.009  0.007  0.004  0.021
   18  0.009  0.007  0.004  0.021
   19  0.025  0.009  0.002  0.036
   20  0.000  0.003  0.010  0.013
   21  0.000  0.003  0.010  0.013
   22  0.023  0.002  0.009  0.034
   23  0.000  0.003  0.010  0.013
   24  0.023  0.002  0.009  0.034
   25  0.025  0.010  0.002  0.036
   26  0.025  0.009  0.002  0.036
   27  0.023  0.002  0.009  0.034
   28  0.019  0.003  0.001  0.022
   29  0.000  0.002  0.005  0.007
   30  0.000  0.002  0.005  0.007
   31  0.000  0.002  0.005  0.007
   32  0.000  0.002  0.005  0.007
   33  0.000  0.002  0.005  0.007
   34  0.000  0.002  0.005  0.007
   35  0.014  0.002  0.001  0.017
   36  0.000  0.000  0.000  0.001
tot    0.345  0.114  0.182  0.641
 
band     7 # energy   -5.69203164 # occ.  2.00000000
 
ion      s      p      d    tot
    1  0.000  0.000  0.003  0.003
    2  0.005  0.002  0.002  0.009
    3  0.005  0.002  0.002  0.009
    4  0.009  0.002  0.002  0.014
    5  0.000  0.003  0.006  0.008
    6  0.001  0.001  0.002  0.003
    7  0.009  0.002  0.002  0.013
    8  0.000  0.001  0.002  0.003
    9  0.000  0.002  0.003  0.005
   10  0.001  0.004  0.010  0.015
   11  0.033  0.003  0.009  0.045
   12  0.009  0.003  0.004  0.016
   13  0.055  0.004  0.005  0.064
   14  0.003  0.003  0.014  0.020
   15  0.011  0.006  0.004  0.022
   16  0.005  0.004  0.006  0.015
   17  0.019  0.001  0.006  0.027
   18  0.001  0.013  0.002  0.016
   19  0.002  0.004  0.006  0.012
   20  0.002  0.013  0.003  0.018
   21  0.031  0.002  0.007  0.040
   22  0.054  0.004  0.004  0.062
   23  0.018  0.006  0.006  0.030
   24  0.003  0.001  0.016  0.020
   25  0.000  0.007  0.008  0.015
   26  0.003  0.003  0.004  0.010
   27  0.032  0.003  0.009  0.044
   28  0.000  0.000  0.003  0.003
   29  0.005  0.002  0.002  0.009
   30  0.007  0.002  0.003  0.013
   31  0.009  0.002  0.003  0.014
   32  0.001  0.001  0.003  0.006
   33  0.011  0.003  0.003  0.017
   34  0.000  0.001  0.003  0.004
   35  0.000  0.003  0.006  0.009
   36  0.000  0.005  0.004  0.009
tot    0.344  0.117  0.180  0.642
 
band     8 # energy   -5.69192812 # occ.  2.00000000
 
ion      s      p      d    tot
    1  0.000  0.000  0.003  0.003
    2  0.005  0.002  0.002  0.008
    3  0.004  0.002  0.002  0.008
    4  0.001  0.001  0.002  0.004
    5  0.000  0.003  0.006  0.008
    6  0.009  0.002  0.002  0.014
    7  0.001  0.001  0.002  0.004
    8  0.009  0.002  0.002  0.014
    9  0.000  0.002  0.003  0.005
   10  0.010  0.003  0.003  0.016
   11  0.028  0.003  0.010  0.041
   12  0.001  0.004  0.010  0.015
   13  0.005  0.003  0.014  0.022
   14  0.057  0.004  0.004  0.066
   15  0.010  0.007  0.004  0.021
   16  0.004  0.004  0.007  0.015
   17  0.002  0.012  0.003  0.016
   18  0.020  0.001  0.006  0.027
   19  0.002  0.005  0.006  0.013
   20  0.032  0.001  0.007  0.040
   21  0.003  0.012  0.004  0.019
   22  0.005  0.001  0.015  0.022
   23  0.016  0.007  0.005  0.028
   24  0.056  0.005  0.004  0.065
   25  0.004  0.003  0.004  0.010
   26  0.000  0.006  0.008  0.015
   27  0.027  0.003  0.010  0.040
   28  0.000  0.000  0.003  0.003
   29  0.007  0.002  0.003  0.012
   30  0.004  0.001  0.002  0.008
   31  0.002  0.001  0.003  0.006
   32  0.010  0.002  0.003  0.015
   33  0.000  0.001  0.003  0.004
   34  0.011  0.003  0.003  0.017
   35  0.000  0.003  0.006  0.009
   36  0.000  0.005  0.004  0.009
tot    0.344  0.117  0.180  0.642
 
band     9 # energy   -5.62220002 # occ.  2.00000000
 
ion      s      p      d    tot
    1  0.000  0.000  0.001  0.001
    2  0.002  0.002  0.005  0.009
    3  0.002  0.002  0.005  0.009
    4  0.002  0.002  0.005  0.009
    5  0.035  0.003  0.000  0.037
    6  0.002  0.002  0.005  0.009
    7  0.002  0.002  0.005  0.009
    8  0.002  0.002  0.005  0.009
    9  0.005  0.002  0.003  0.011
   10  0.002  0.004  0.009  0.015
   11  0.019  0.009  0.003  0.032
   12  0.002  0.004  0.009  0.015
   13  0.019  0.009  0.003  0.032
   14  0.019  0.009  0.003  0.032
   15  0.029  0.002  0.010  0.042
   16  0.002  0.004  0.009  0.015
   17  0.029  0.002  0.010  0.042
   18  0.029  0.002  0.010  0.042
   19  0.007  0.001  0.010  0.018
   20  0.021  0.004  0.007  0.032
   21  0.021  0.004  0.007  0.032
   22  0.010  0.007  0.004  0.022
   23  0.021  0.004  0.007  0.032
   24  0.010  0.007  0.004  0.022
   25  0.007  0.001  0.010  0.018
   26  0.007  0.001  0.010  0.018
   27  0.010  0.007  0.004  0.022
   28  0.000  0.000  0.002  0.003
   29  0.002  0.001  0.004  0.007
   30  0.002  0.001  0.004  0.007
   31  0.002  0.001  0.004  0.007
   32  0.002  0.001  0.004  0.007
   33  0.002  0.001  0.004  0.007
   34  0.002  0.001  0.004  0.007
   35  0.001  0.001  0.002  0.003
   36  0.021  0.004  0.000  0.025
tot    0.350  0.111  0.192  0.653
 
band    10 # energy   -4.96285048 # occ.  2.00000000
 
ion      s      p      d    tot
    1  0.000  0.004  0.010  0.015
    2  0.002  0.002  0.005  0.009
    3  0.021  0.004  0.005  0.030
    4  0.007  0.002  0.005  0.015
    5  0.000  0.000  0.011  0.011
    6  0.008  0.002  0.005  0.016
    7  0.020  0.004  0.005  0.030
    8  0.004  0.002  0.005  0.010
    9  0.000  0.005  0.008  0.013
   10  0.012  0.001  0.006  0.019
   11  0.001  0.002  0.012  0.015
   12  0.002  0.004  0.019  0.024
   13  0.000  0.003  0.013  0.016
   14  0.003  0.001  0.008  0.012
   15  0.009  0.002  0.016  0.027
   16  0.004  0.003  0.016  0.023
   17  0.004  0.001  0.019  0.024
   18  0.024  0.005  0.006  0.035
   19  0.006  0.002  0.014  0.022
   20  0.001  0.001  0.010  0.013
   21  0.000  0.002  0.014  0.016
   22  0.001  0.002  0.025  0.029
   23  0.000  0.002  0.013  0.015
   24  0.008  0.002  0.004  0.015
   25  0.015  0.006  0.009  0.030
   26  0.002  0.001  0.016  0.019
   27  0.003  0.002  0.020  0.025
   28  0.000  0.005  0.008  0.013
   29  0.004  0.002  0.007  0.012
   30  0.024  0.004  0.008  0.036
   31  0.009  0.002  0.007  0.019
   32  0.009  0.002  0.007  0.018
   33  0.024  0.004  0.008  0.036
   34  0.003  0.002  0.007  0.012
   35  0.000  0.005  0.011  0.016
   36  0.000  0.000  0.012  0.012
tot    0.232  0.094  0.377  0.703
 
band    11 # energy   -4.96280925 # occ.  2.00000000
 
ion      s      p      d    tot
    1  0.000  0.004  0.010  0.015
    2  0.018  0.004  0.005  0.027
    3  0.000  0.002  0.005  0.007
    4  0.014  0.003  0.005  0.022
    5  0.000  0.000  0.011  0.011
    6  0.012  0.003  0.005  0.021
    7  0.001  0.002  0.005  0.007
    8  0.017  0.004  0.005  0.026
    9  0.000  0.005  0.008  0.013
   10  0.000  0.004  0.021  0.025
   11  0.002  0.002  0.011  0.014
   12  0.010  0.002  0.008  0.020
   13  0.002  0.001  0.009  0.013
   14  0.000  0.003  0.014  0.017
   15  0.016  0.003  0.012  0.031
   16  0.007  0.002  0.012  0.021
   17  0.021  0.004  0.008  0.034
   18  0.000  0.000  0.022  0.022
   19  0.010  0.004  0.012  0.025
   20  0.000  0.002  0.015  0.017
   21  0.001  0.001  0.011  0.013
   22  0.007  0.002  0.007  0.017
   23  0.001  0.001  0.012  0.014
   24  0.000  0.002  0.029  0.031
   25  0.000  0.000  0.017  0.018
   26  0.013  0.005  0.010  0.028
   27  0.005  0.002  0.013  0.021
   28  0.000  0.005  0.008  0.013
   29  0.021  0.003  0.008  0.032
   30  0.000  0.002  0.007  0.009
   31  0.015  0.003  0.007  0.026
   32  0.015  0.003  0.007  0.026
   33  0.000  0.002  0.007  0.009
   34  0.021  0.003  0.008  0.032
   35  0.000  0.005  0.011  0.016
   36  0.000  0.000  0.012  0.012
tot    0.232  0.094  0.377  0.703
 
band    12 # energy   -4.95859705 # occ.  2.00000000
 
ion      s      p      d    tot
    1  0.002  0.001  0.009  0.013
    2  0.005  0.001  0.009  0.015
    3  0.005  0.001  0.009  0.015
    4  0.005  0.001  0.009  0.015
    5  0.001  0.001  0.009  0.011
    6  0.005  0.001  0.009  0.015
    7  0.005  0.001  0.009  0.015
    8  0.005  0.001  0.009  0.015
    9  0.019  0.000  0.007  0.025
   10  0.010  0.000  0.024  0.034
   11  0.009  0.000  0.021  0.030
   12  0.010  0.000  0.024  0.034
   13  0.009  0.000  0.021  0.030
   14  0.009  0.000  0.021  0.030
   15  0.002  0.000  0.022  0.024
   16  0.010  0.000  0.024  0.034
   17  0.002  0.000  0.022  0.024
   18  0.002  0.000  0.022  0.024
   19  0.006  0.000  0.020  0.026
   20  0.010  0.000  0.025  0.035
   21  0.010  0.000  0.025  0.035
   22  0.002  0.000  0.021  0.023
   23  0.010  0.000  0.025  0.035
   24  0.002  0.000  0.021  0.023
   25  0.006  0.000  0.020  0.027
   26  0.006  0.000  0.020  0.026
   27  0.002  0.000  0.021  0.023
   28  0.001  0.001  0.007  0.008
   29  0.004  0.001  0.009  0.013
   30  0.003  0.001  0.009  0.013
   31  0.004  0.001  0.009  0.014
   32  0.004  0.001  0.009  0.013
   33  0.003  0.001  0.009  0.013
   34  0.004  0.001  0.009  0.013
   35  0.016  0.000  0.006  0.022
   36  0.001  0.002  0.007  0.009
tot    0.203  0.019  0.553  0.775
 
band    13 # energy   -4.94325654 # occ.  2.00000000
 
ion      s      p      d    tot
    1  0.036  0.003  0.000  0.039
    2  0.000  0.003  0.010  0.013
    3  0.000  0.003  0.010  0.013
    4  0.000  0.003  0.010  0.013
    5  0.000  0.000  0.001  0.002
    6  0.000  0.003  0.010  0.013
    7  0.000  0.003  0.010  0.013
    8  0.000  0.003  0.010  0.013
    9  0.022  0.004  0.002  0.028
   10  0.006  0.003  0.011  0.021
   11  0.002  0.000  0.016  0.018
   12  0.006  0.003  0.011  0.021
   13  0.002  0.000  0.016  0.018
   14  0.002  0.000  0.016  0.018
   15  0.009  0.003  0.015  0.027
   16  0.006  0.003  0.011  0.021
   17  0.009  0.003  0.015  0.027
   18  0.009  0.003  0.015  0.028
   19  0.003  0.003  0.021  0.027
   20  0.000  0.000  0.015  0.015
   21  0.000  0.000  0.015  0.015
   22  0.012  0.003  0.009  0.025
   23  0.000  0.000  0.015  0.015
   24  0.012  0.003  0.009  0.024
   25  0.003  0.003  0.021  0.027
   26  0.003  0.003  0.021  0.027
   27  0.012  0.003  0.009  0.024
   28  0.040  0.003  0.000  0.043
   29  0.000  0.003  0.013  0.016
   30  0.000  0.003  0.013  0.016
   31  0.000  0.003  0.013  0.016
   32  0.000  0.003  0.013  0.016
   33  0.000  0.003  0.013  0.016
   34  0.000  0.003  0.013  0.016
   35  0.023  0.003  0.001  0.028
   36  0.000  0.000  0.000  0.000
tot    0.223  0.087  0.400  0.710
 
band    14 # energy   -4.93355366 # occ.  2.00000000
 
ion      s      p      d    tot
    1  0.000  0.002  0.009  0.011
    2  0.001  0.002  0.005  0.008
    3  0.020  0.004  0.005  0.029
    4  0.008  0.002  0.005  0.016
    5  0.000  0.006  0.009  0.015
    6  0.011  0.003  0.005  0.018
    7  0.019  0.004  0.005  0.028
    8  0.003  0.002  0.005  0.009
    9  0.000  0.001  0.012  0.013
   10  0.001  0.001  0.016  0.018
   11  0.011  0.003  0.014  0.029
   12  0.012  0.004  0.009  0.025
   13  0.019  0.004  0.007  0.030
   14  0.001  0.002  0.025  0.027
   15  0.001  0.002  0.012  0.015
   16  0.007  0.002  0.012  0.022
   17  0.001  0.000  0.009  0.010
   18  0.000  0.004  0.017  0.021
   19  0.001  0.002  0.014  0.017
   20  0.001  0.001  0.030  0.032
   21  0.017  0.005  0.008  0.030
   22  0.009  0.004  0.010  0.023
   23  0.010  0.003  0.017  0.031
   24  0.000  0.001  0.013  0.015
   25  0.000  0.003  0.022  0.025
   26  0.001  0.000  0.009  0.011
   27  0.005  0.003  0.012  0.020
   28  0.000  0.002  0.014  0.016
   29  0.002  0.002  0.006  0.010
   30  0.020  0.004  0.007  0.031
   31  0.010  0.003  0.006  0.019
   32  0.009  0.003  0.007  0.019
   33  0.021  0.004  0.007  0.031
   34  0.002  0.002  0.006  0.010
   35  0.000  0.001  0.011  0.012
   36  0.000  0.010  0.007  0.017
tot    0.225  0.097  0.391  0.712
 
band    15 # energy   -4.93351238 # occ.  2.00000000
 
ion      s      p      d    tot
    1  0.000  0.002  0.009  0.011
    2  0.019  0.004  0.005  0.028
    3  0.000  0.002  0.005  0.007
    4  0.013  0.003  0.005  0.020
    5  0.000  0.006  0.009  0.015
    6  0.010  0.003  0.005  0.018
    7  0.001  0.002  0.005  0.008
    8  0.018  0.004  0.005  0.027
    9  0.000  0.001  0.012  0.013
   10  0.013  0.004  0.009  0.025
   11  0.009  0.003  0.016  0.028
   12  0.001  0.001  0.016  0.018
   13  0.002  0.002  0.024  0.027
   14  0.020  0.004  0.006  0.030
   15  0.000  0.002  0.013  0.016
   16  0.006  0.002  0.013  0.021
   17  0.000  0.004  0.017  0.021
   18  0.001  0.000  0.008  0.009
   19  0.001  0.002  0.016  0.018
   20  0.018  0.005  0.007  0.030
   21  0.002  0.002  0.029  0.032
   22  0.001  0.001  0.013  0.015
   23  0.009  0.003  0.020  0.031
   24  0.010  0.004  0.010  0.024
   25  0.001  0.000  0.008  0.010
   26  0.000  0.003  0.021  0.025
   27  0.004  0.002  0.012  0.019
   28  0.000  0.002  0.014  0.016
   29  0.019  0.004  0.007  0.030
   30  0.001  0.002  0.006  0.009
   31  0.011  0.003  0.007  0.021
   32  0.012  0.003  0.007  0.021
   33  0.001  0.002  0.006  0.009
   34  0.020  0.004  0.007  0.030
   35  0.000  0.001  0.011  0.012
   36  0.000  0.010  0.007  0.017
tot    0.224  0.097  0.391  0.712
 
band    16 # energy   -4.79103092 # occ.  2.00000000
 
ion      s      p      d    tot
    1  0.014  0.002  0.000  0.016
    2  0.000  0.003  0.011  0.014
    3  0.000  0.003  0.011  0.014
    4  0.000  0.003  0.011  0.014
    5  0.045  0.004  0.000  0.049
    6  0.000  0.003  0.011  0.014
    7  0.000  0.003  0.011  0.014
    8  0.000  0.003  0.011  0.014
    9  0.005  0.001  0.001  0.007
   10  0.001  0.001  0.026  0.029
   11  0.004  0.004  0.019  0.028
   12  0.001  0.001  0.026  0.029
   13  0.004  0.004  0.019  0.028
   14  0.004  0.004  0.019  0.028
   15  0.004  0.001  0.010  0.015
   16  0.001  0.001  0.026  0.029
   17  0.004  0.001  0.010  0.015
   18  0.004  0.001  0.010  0.015
   19  0.010  0.001  0.021  0.032
   20  0.011  0.004  0.008  0.023
   21  0.011  0.004  0.008  0.023
   22  0.002  0.001  0.018  0.022
   23  0.011  0.004  0.008  0.023
   24  0.002  0.001  0.018  0.022
   25  0.010  0.001  0.021  0.032
   26  0.010  0.001  0.021  0.032
   27  0.002  0.001  0.018  0.022
   28  0.003  0.002  0.005  0.009
   29  0.001  0.002  0.011  0.014
   30  0.001  0.002  0.011  0.014
   31  0.001  0.002  0.011  0.014
   32  0.001  0.002  0.011  0.014
   33  0.001  0.002  0.011  0.014
   34  0.001  0.002  0.011  0.014
   35  0.004  0.001  0.002  0.007
   36  0.039  0.008  0.000  0.047
tot    0.215  0.085  0.448  0.748
 
band    17 # energy   -4.28149579 # occ.  2.00000000
 
ion      s      p      d    tot
    1  0.000  0.001  0.030  0.031
    2  0.015  0.001  0.009  0.025
    3  0.007  0.001  0.008  0.016
    4  0.015  0.001  0.009  0.025
    5  0.000  0.001  0.017  0.017
    6  0.003  0.001  0.009  0.012
    7  0.005  0.001  0.008  0.014
    8  0.002  0.001  0.009  0.011
    9  0.000  0.003  0.003  0.006
   10  0.000  0.000  0.061  0.061
   11  0.000  0.003  0.017  0.021
   12  0.000  0.000  0.021  0.022
   13  0.000  0.003  0.017  0.020
   14  0.000  0.000  0.012  0.012
   15  0.000  0.005  0.016  0.021
   16  0.000  0.000  0.015  0.016
   17  0.000  0.005  0.016  0.022
   18  0.000  0.000  0.023  0.023
   19  0.002  0.005  0.020  0.026
   20  0.000  0.000  0.054  0.055
   21  0.000  0.000  0.024  0.024
   22  0.002  0.002  0.016  0.020
   23  0.000  0.000  0.020  0.020
   24  0.000  0.000  0.033  0.034
   25  0.000  0.000  0.014  0.014
   26  0.002  0.004  0.019  0.025
   27  0.002  0.002  0.014  0.018
   28  0.000  0.002  0.007  0.009
   29  0.009  0.001  0.018  0.028
   30  0.000  0.001  0.013  0.014
   31  0.011  0.001  0.018  0.030
   32  0.014  0.001  0.016  0.031
   33  0.000  0.001  0.013  0.014
   34  0.012  0.001  0.016  0.029
   35  0.000  0.002  0.016  0.018
   36  0.000  0.000  0.021  0.022
tot    0.102  0.050  0.652  0.804
 
band    18 # energy   -4.28147460 # occ.  2.00000000
 
ion      s      p      d    tot
    1  0.000  0.001  0.030  0.031
    2  0.000  0.001  0.008  0.009
    3  0.009  0.001  0.009  0.019
    4  0.001  0.001  0.008  0.010
    5  0.000  0.001  0.017  0.018
    6  0.012  0.001  0.008  0.022
    7  0.010  0.001  0.009  0.021
    8  0.014  0.001  0.008  0.023
    9  0.000  0.003  0.003  0.006
   10  0.000  0.000  0.004  0.005
   11  0.000  0.001  0.014  0.014
   12  0.000  0.000  0.044  0.044
   13  0.000  0.001  0.014  0.015
   14  0.000  0.004  0.018  0.023
   15  0.000  0.001  0.021  0.023
   16  0.000  0.000  0.050  0.050
   17  0.000  0.002  0.020  0.022
   18  0.001  0.007  0.014  0.021
   19  0.001  0.001  0.016  0.017
   20  0.000  0.000  0.011  0.011
   21  0.000  0.000  0.041  0.042
   22  0.001  0.001  0.026  0.028
   23  0.000  0.000  0.046  0.046
   24  0.003  0.003  0.009  0.015
   25  0.003  0.006  0.021  0.029
   26  0.001  0.002  0.016  0.019
   27  0.001  0.001  0.029  0.030
   28  0.000  0.002  0.007  0.009
   29  0.006  0.001  0.013  0.020
   30  0.015  0.001  0.018  0.035
   31  0.005  0.001  0.013  0.018
   32  0.002  0.001  0.015  0.017
   33  0.015  0.001  0.018  0.034
   34  0.003  0.001  0.016  0.019
   35  0.000  0.002  0.016  0.018
   36  0.000  0.000  0.021  0.022
tot    0.102  0.050  0.652  0.804
 
band    19 # energy   -4.26697649 # occ.  2.00000000
 
ion      s      p      d    tot
    1  0.003  0.000  0.001  0.004
    2  0.000  0.001  0.016  0.018
    3  0.000  0.001  0.016  0.018
    4  0.000  0.001  0.016  0.018
    5  0.013  0.000  0.000  0.013
    6  0.000  0.001  0.016  0.018
    7  0.000  0.001  0.016  0.018
    8  0.000  0.001  0.016  0.018
    9  0.028  0.001  0.001  0.031
   10  0.000  0.002  0.008  0.010
   11  0.000  0.000  0.019  0.019
   12  0.000  0.002  0.008  0.010
   13  0.000  0.000  0.019  0.019
   14  0.000  0.000  0.019  0.019
   15  0.000  0.003  0.037  0.040
   16  0.000  0.002  0.008  0.010
   17  0.000  0.003  0.037  0.040
   18  0.000  0.003  0.037  0.040
   19  0.000  0.001  0.025  0.026
   20  0.000  0.000  0.011  0.012
   21  0.000  0.000  0.011  0.012
   22  0.001  0.003  0.030  0.035
   23  0.000  0.000  0.011  0.012
   24  0.001  0.003  0.030  0.035
   25  0.000  0.001  0.025  0.026
   26  0.000  0.001  0.025  0.026
   27  0.001  0.003  0.030  0.035
   28  0.023  0.000  0.002  0.025
   29  0.000  0.001  0.028  0.029
   30  0.000  0.001  0.028  0.029
   31  0.000  0.001  0.028  0.029
   32  0.000  0.001  0.028  0.029
   33  0.000  0.001  0.028  0.029
   34  0.000  0.001  0.028  0.029
   35  0.020  0.000  0.005  0.026
   36  0.000  0.000  0.000  0.000
tot    0.096  0.047  0.664  0.806
 
band    20 # energy   -4.25297919 # occ.  2.00000000
 
ion      s      p      d    tot
    1  0.000  0.002  0.003  0.005
    2  0.015  0.001  0.009  0.026
    3  0.008  0.001  0.009  0.017
    4  0.014  0.001  0.009  0.025
    5  0.000  0.002  0.016  0.019
    6  0.004  0.001  0.009  0.014
    7  0.004  0.001  0.009  0.013
    8  0.001  0.001  0.009  0.011
    9  0.000  0.000  0.032  0.032
   10  0.001  0.007  0.021  0.029
   11  0.000  0.001  0.043  0.043
   12  0.000  0.003  0.011  0.014
   13  0.000  0.001  0.033  0.035
   14  0.001  0.003  0.006  0.010
   15  0.000  0.000  0.037  0.037
   16  0.000  0.001  0.007  0.008
   17  0.000  0.000  0.030  0.031
   18  0.000  0.001  0.010  0.011
   19  0.000  0.000  0.049  0.049
   20  0.002  0.006  0.019  0.027
   21  0.001  0.002  0.019  0.022
   22  0.000  0.001  0.021  0.022
   23  0.000  0.001  0.019  0.020
   24  0.000  0.003  0.016  0.019
   25  0.001  0.000  0.005  0.006
   26  0.000  0.000  0.038  0.038
   27  0.000  0.001  0.023  0.023
   28  0.000  0.001  0.036  0.037
   29  0.008  0.001  0.014  0.023
   30  0.000  0.001  0.013  0.014
   31  0.011  0.001  0.014  0.026
   32  0.013  0.001  0.013  0.027
   33  0.001  0.001  0.013  0.014
   34  0.010  0.001  0.013  0.024
   35  0.000  0.000  0.027  0.028
   36  0.000  0.004  0.000  0.005
tot    0.097  0.052  0.655  0.804
 
band    21 # energy   -4.25295303 # occ.  2.00000000
 
ion      s      p      d    tot
    1  0.000  0.002  0.003  0.005
    2  0.000  0.001  0.009  0.009
    3  0.008  0.001  0.009  0.018
    4  0.001  0.001  0.009  0.010
    5  0.000  0.002  0.016  0.019
    6  0.012  0.001  0.009  0.022
    7  0.011  0.001  0.009  0.022
    8  0.014  0.001  0.009  0.025
    9  0.000  0.000  0.032  0.032
   10  0.000  0.000  0.005  0.005
   11  0.001  0.003  0.012  0.015
   12  0.000  0.005  0.015  0.020
   13  0.000  0.002  0.021  0.024
   14  0.000  0.000  0.049  0.049
   15  0.000  0.001  0.015  0.015
   16  0.001  0.006  0.019  0.025
   17  0.000  0.000  0.021  0.022
   18  0.000  0.000  0.041  0.042
   19  0.001  0.000  0.012  0.013
   20  0.000  0.000  0.019  0.019
   21  0.001  0.004  0.019  0.024
   22  0.000  0.002  0.019  0.021
   23  0.002  0.005  0.019  0.026
   24  0.000  0.000  0.024  0.024
   25  0.000  0.000  0.056  0.056
   26  0.000  0.000  0.023  0.024
   27  0.000  0.003  0.017  0.020
   28  0.000  0.001  0.036  0.037
   29  0.006  0.001  0.013  0.020
   30  0.015  0.001  0.013  0.029
   31  0.003  0.001  0.012  0.016
   32  0.002  0.001  0.013  0.015
   33  0.014  0.001  0.014  0.029
   34  0.004  0.001  0.014  0.019
   35  0.000  0.000  0.027  0.028
   36  0.000  0.004  0.000  0.005
tot    0.097  0.052  0.655  0.804
 
band    22 # energy   -4.16623764 # occ.  2.00000000
 
ion      s      p      d    tot
    1  0.026  0.001  0.002  0.028
    2  0.000  0.001  0.017  0.018
    3  0.000  0.001  0.017  0.018
    4  0.000  0.001  0.017  0.018
    5  0.010  0.000  0.003  0.013
    6  0.000  0.001  0.017  0.018
    7  0.000  0.001  0.017  0.018
    8  0.000  0.001  0.017  0.018
    9  0.004  0.000  0.000  0.004
   10  0.000  0.002  0.029  0.031
   11  0.001  0.002  0.023  0.025
   12  0.000  0.002  0.029  0.031
   13  0.001  0.002  0.023  0.025
   14  0.001  0.002  0.023  0.025
   15  0.000  0.000  0.009  0.009
   16  0.000  0.002  0.029  0.031