PROCAR new format
# of k-points:   10         # of bands:  252         # of ions:   36

 k-point     1 :    0.00000000 0.00000000 0.00000000     weight = 0.01562500

band     1 # energy   -6.34254908 # occ.  2.00000000
 
ion      s      p      d    tot
    1  0.006  0.001  0.000  0.006
    2  0.006  0.001  0.000  0.006
    3  0.006  0.001  0.000  0.006
    4  0.006  0.001  0.000  0.006
    5  0.006  0.001  0.000  0.006
    6  0.006  0.001  0.000  0.006
    7  0.006  0.001  0.000  0.006
    8  0.006  0.001  0.000  0.006
    9  0.006  0.001  0.000  0.006
   10  0.023  0.000  0.000  0.023
   11  0.023  0.000  0.000  0.024
   12  0.023  0.000  0.000  0.023
   13  0.023  0.000  0.000  0.024
   14  0.023  0.000  0.000  0.024
   15  0.022  0.000  0.000  0.022
   16  0.023  0.000  0.000  0.023
   17  0.022  0.000  0.000  0.022
   18  0.022  0.000  0.000  0.022
   19  0.021  0.000  0.000  0.022
   20  0.026  0.000  0.000  0.026
   21  0.026  0.000  0.000  0.026
   22  0.022  0.000  0.000  0.023
   23  0.026  0.000  0.000  0.026
   24  0.022  0.000  0.000  0.023
   25  0.021  0.000  0.000  0.022
   26  0.021  0.000  0.000  0.022
   27  0.022  0.000  0.000  0.023
   28  0.006  0.001  0.000  0.006
   29  0.006  0.001  0.000  0.007
   30  0.006  0.001  0.000  0.007
   31  0.006  0.001  0.000  0.007
   32  0.006  0.001  0.000  0.007
   33  0.006  0.001  0.000  0.007
   34  0.006  0.001  0.000  0.007
   35  0.006  0.001  0.000  0.006
   36  0.015  0.001  0.000  0.016
tot    0.527  0.013  0.006  0.546
 
band     2 # energy   -5.48566254 # occ.  2.00000000
 
ion      s      p      d    tot
    1  0.009  0.000  0.001  0.010
    2  0.009  0.000  0.001  0.011
    3  0.009  0.000  0.001  0.011
    4  0.009  0.000  0.001  0.011
    5  0.010  0.000  0.001  0.011
    6  0.009  0.000  0.001  0.011
    7  0.009  0.000  0.001  0.011
    8  0.009  0.000  0.001  0.011
    9  0.010  0.001  0.001  0.011
   10  0.011  0.001  0.013  0.025
   11  0.012  0.001  0.011  0.024
   12  0.011  0.001  0.013  0.025
   13  0.012  0.001  0.011  0.024
   14  0.012  0.001  0.011  0.024
   15  0.013  0.001  0.011  0.024
   16  0.011  0.001  0.013  0.025
   17  0.013  0.001  0.011  0.024
   18  0.013  0.001  0.011  0.024
   19  0.008  0.001  0.010  0.019
   20  0.013  0.002  0.009  0.024
   21  0.013  0.002  0.009  0.024
   22  0.008  0.001  0.010  0.019
   23  0.013  0.002  0.009  0.024
   24  0.008  0.001  0.010  0.019
   25  0.008  0.001  0.010  0.019
   26  0.008  0.001  0.010  0.019
   27  0.008  0.001  0.010  0.019
   28  0.008  0.000  0.001  0.009
   29  0.010  0.000  0.002  0.013
   30  0.010  0.000  0.002  0.013
   31  0.010  0.000  0.002  0.013
   32  0.010  0.000  0.002  0.013
   33  0.010  0.000  0.002  0.013
   34  0.010  0.000  0.002  0.013
   35  0.007  0.000  0.001  0.008
   36  0.031  0.001  0.000  0.032
tot    0.385  0.029  0.215  0.629
 
band     3 # energy   -5.21950055 # occ.  2.00000000
 
ion      s      p      d    tot
    1  0.003  0.000  0.016  0.019
    2  0.005  0.000  0.010  0.015
    3  0.005  0.000  0.010  0.015
    4  0.005  0.000  0.010  0.015
    5  0.006  0.000  0.007  0.013
    6  0.005  0.000  0.010  0.015
    7  0.005  0.000  0.010  0.015
    8  0.005  0.000  0.010  0.015
    9  0.008  0.000  0.008  0.017
   10  0.002  0.000  0.022  0.024
   11  0.001  0.000  0.022  0.023
   12  0.002  0.000  0.022  0.024
   13  0.001  0.000  0.022  0.023
   14  0.001  0.000  0.022  0.023
   15  0.000  0.000  0.019  0.019
   16  0.002  0.000  0.022  0.024
   17  0.000  0.000  0.019  0.019
   18  0.000  0.000  0.019  0.019
   19  0.004  0.000  0.019  0.023
   20  0.000  0.000  0.043  0.043
   21  0.000  0.000  0.043  0.044
   22  0.004  0.000  0.017  0.021
   23  0.000  0.000  0.043  0.044
   24  0.004  0.000  0.017  0.021
   25  0.004  0.000  0.019  0.023
   26  0.004  0.000  0.019  0.023
   27  0.004  0.000  0.017  0.021
   28  0.002  0.000  0.013  0.015
   29  0.006  0.000  0.016  0.023
   30  0.006  0.000  0.016  0.023
   31  0.006  0.000  0.016  0.023
   32  0.006  0.000  0.016  0.023
   33  0.006  0.000  0.016  0.023
   34  0.006  0.000  0.016  0.023
   35  0.002  0.000  0.011  0.013
   36  0.032  0.000  0.004  0.037
tot    0.155  0.005  0.643  0.804
 
band     4 # energy   -5.09375007 # occ.  2.00000000
 
ion      s      p      d    tot
    1  0.023  0.001  0.004  0.028
    2  0.008  0.000  0.019  0.027
    3  0.008  0.000  0.019  0.027
    4  0.008  0.000  0.019  0.027
    5  0.006  0.000  0.026  0.032
    6  0.008  0.000  0.019  0.027
    7  0.008  0.000  0.019  0.027
    8  0.008  0.000  0.019  0.027
    9  0.002  0.000  0.022  0.024
   10  0.001  0.000  0.043  0.045
   11  0.000  0.000  0.025  0.026
   12  0.001  0.000  0.043  0.045
   13  0.000  0.000  0.025  0.026
   14  0.000  0.000  0.025  0.026
   15  0.009  0.001  0.006  0.016
   16  0.001  0.000  0.043  0.045
   17  0.009  0.001  0.006  0.016
   18  0.009  0.001  0.006  0.016
   19  0.002  0.000  0.017  0.020
   20  0.002  0.000  0.032  0.035
   21  0.002  0.000  0.032  0.035
   22  0.009  0.000  0.000  0.010
   23  0.002  0.000  0.032  0.035
   24  0.009  0.000  0.000  0.010
   25  0.002  0.000  0.017  0.020
   26  0.002  0.000  0.017  0.020
   27  0.009  0.000  0.000  0.010
   28  0.001  0.000  0.004  0.005
   29  0.000  0.000  0.009  0.009
   30  0.000  0.000  0.009  0.009
   31  0.000  0.000  0.009  0.009
   32  0.000  0.000  0.009  0.009
   33  0.000  0.000  0.009  0.009
   34  0.000  0.000  0.009  0.009
   35  0.002  0.001  0.001  0.003
   36  0.019  0.001  0.000  0.021
tot    0.178  0.014  0.591  0.784
 
band     5 # energy   -5.04198753 # occ.  2.00000000
 
ion      s      p      d    tot
    1  0.000  0.000  0.005  0.005
    2  0.000  0.000  0.003  0.003
    3  0.001  0.000  0.007  0.008
    4  0.000  0.000  0.003  0.003
    5  0.000  0.000  0.010  0.010
    6  0.002  0.001  0.005  0.008
    7  0.001  0.000  0.007  0.008
    8  0.002  0.001  0.005  0.007
    9  0.000  0.000  0.001  0.001
   10  0.008  0.001  0.015  0.023
   11  0.009  0.001  0.071  0.081
   12  0.002  0.000  0.080  0.082
   13  0.008  0.001  0.074  0.083
   14  0.033  0.001  0.014  0.048
   15  0.002  0.001  0.015  0.019
   16  0.002  0.000  0.076  0.078
   17  0.002  0.001  0.013  0.017
   18  0.008  0.000  0.041  0.049
   19  0.000  0.000  0.021  0.021
   20  0.012  0.001  0.030  0.043
   21  0.003  0.001  0.024  0.028
   22  0.003  0.000  0.028  0.031
   23  0.003  0.001  0.024  0.028
   24  0.013  0.001  0.007  0.020
   25  0.000  0.000  0.016  0.016
   26  0.000  0.000  0.021  0.022
   27  0.004  0.000  0.026  0.030
   28  0.000  0.000  0.001  0.001
   29  0.001  0.000  0.004  0.005
   30  0.001  0.000  0.002  0.003
   31  0.001  0.000  0.004  0.005
   32  0.000  0.000  0.002  0.002
   33  0.001  0.000  0.002  0.003
   34  0.000  0.000  0.002  0.003
   35  0.000  0.000  0.006  0.006
   36  0.000  0.000  0.003  0.003
tot    0.122  0.017  0.667  0.805
 
band     6 # energy   -5.04198070 # occ.  2.00000000
 
ion      s      p      d    tot
    1  0.000  0.000  0.005  0.005
    2  0.002  0.001  0.007  0.010
    3  0.001  0.000  0.003  0.004
    4  0.002  0.001  0.007  0.010
    5  0.000  0.000  0.010  0.010
    6  0.000  0.000  0.004  0.005
    7  0.001  0.000  0.003  0.004
    8  0.000  0.000  0.005  0.005
    9  0.000  0.000  0.001  0.001
   10  0.000  0.000  0.099  0.099
   11  0.024  0.001  0.036  0.060
   12  0.006  0.001  0.034  0.041
   13  0.026  0.001  0.032  0.058
   14  0.000  0.001  0.092  0.092
   15  0.006  0.001  0.031  0.038
   16  0.006  0.001  0.038  0.044
   17  0.006  0.000  0.033  0.040
   18  0.000  0.002  0.005  0.007
   19  0.000  0.000  0.018  0.018
   20  0.000  0.001  0.022  0.023
   21  0.010  0.001  0.028  0.038
   22  0.010  0.001  0.013  0.024
   23  0.009  0.001  0.028  0.037
   24  0.000  0.000  0.034  0.034
   25  0.000  0.000  0.023  0.023
   26  0.000  0.000  0.017  0.018
   27  0.009  0.001  0.014  0.024
   28  0.000  0.000  0.001  0.001
   29  0.000  0.000  0.002  0.002
   30  0.001  0.000  0.003  0.004
   31  0.000  0.000  0.002  0.002
   32  0.001  0.000  0.003  0.005
   33  0.001  0.000  0.003  0.004
   34  0.001  0.000  0.003  0.005
   35  0.000  0.000  0.006  0.006
   36  0.000  0.000  0.003  0.003
tot    0.122  0.017  0.666  0.805
 
band     7 # energy   -5.03349272 # occ.  2.00000000
 
ion      s      p      d    tot
    1  0.001  0.000  0.000  0.002
    2  0.000  0.000  0.006  0.006
    3  0.000  0.000  0.006  0.006
    4  0.000  0.000  0.006  0.006
    5  0.005  0.001  0.005  0.011
    6  0.000  0.000  0.006  0.006
    7  0.000  0.000  0.006  0.006
    8  0.000  0.000  0.006  0.006
    9  0.001  0.000  0.005  0.007
   10  0.008  0.001  0.004  0.014
   11  0.014  0.001  0.044  0.059
   12  0.008  0.001  0.004  0.014
   13  0.014  0.001  0.044  0.059
   14  0.014  0.001  0.044  0.059
   15  0.001  0.000  0.061  0.062
   16  0.008  0.001  0.004  0.014
   17  0.001  0.000  0.061  0.062
   18  0.001  0.000  0.061  0.062
   19  0.010  0.001  0.024  0.035
   20  0.005  0.001  0.014  0.020
   21  0.005  0.001  0.014  0.020
   22  0.001  0.000  0.045  0.046
   23  0.005  0.001  0.014  0.020
   24  0.001  0.000  0.045  0.046
   25  0.010  0.001  0.024  0.035
   26  0.010  0.001  0.024  0.035
   27  0.001  0.000  0.045  0.046
   28  0.004  0.001  0.003  0.008
   29  0.000  0.000  0.003  0.004
   30  0.000  0.000  0.003  0.004
   31  0.000  0.000  0.003  0.004
   32  0.000  0.000  0.003  0.004
   33  0.000  0.000  0.003  0.004
   34  0.000  0.000  0.003  0.004
   35  0.002  0.000  0.004  0.007
   36  0.000  0.000  0.000  0.000
tot    0.131  0.017  0.651  0.799
 
band     8 # energy   -5.02978657 # occ.  2.00000000
 
ion      s      p      d    tot
    1  0.000  0.000  0.007  0.007
    2  0.001  0.000  0.005  0.007
    3  0.000  0.000  0.004  0.004
    4  0.001  0.000  0.005  0.007
    5  0.000  0.000  0.001  0.001
    6  0.000  0.000  0.004  0.004
    7  0.000  0.000  0.003  0.003
    8  0.000  0.000  0.003  0.003
    9  0.000  0.000  0.007  0.007
   10  0.020  0.001  0.030  0.051
   11  0.000  0.001  0.043  0.044
   12  0.008  0.001  0.023  0.032
   13  0.000  0.001  0.040  0.040
   14  0.000  0.000  0.029  0.030
   15  0.003  0.000  0.077  0.080
   16  0.003  0.001  0.021  0.025
   17  0.007  0.000  0.059  0.066
   18  0.019  0.001  0.008  0.027
   19  0.003  0.001  0.026  0.029
   20  0.012  0.001  0.012  0.024
   21  0.005  0.000  0.049  0.054
   22  0.000  0.001  0.031  0.032
   23  0.002  0.000  0.063  0.065
   24  0.001  0.000  0.028  0.029
   25  0.018  0.001  0.021  0.040
   26  0.007  0.001  0.024  0.032
   27  0.000  0.001  0.031  0.032
   28  0.000  0.000  0.005  0.006
   29  0.000  0.000  0.002  0.002
   30  0.000  0.000  0.003  0.004
   31  0.000  0.000  0.002  0.002
   32  0.000  0.000  0.002  0.003
   33  0.001  0.000  0.004  0.004
   34  0.001  0.000  0.003  0.004
   35  0.000  0.000  0.002  0.002
   36  0.000  0.000  0.002  0.002
tot    0.112  0.016  0.680  0.808
 
band     9 # energy   -5.02978487 # occ.  2.00000000
 
ion      s      p      d    tot
    1  0.000  0.000  0.007  0.007
    2  0.000  0.000  0.003  0.003
    3  0.001  0.000  0.004  0.005
    4  0.000  0.000  0.003  0.003
    5  0.000  0.000  0.001  0.001
    6  0.001  0.000  0.004  0.005
    7  0.001  0.000  0.005  0.006
    8  0.001  0.000  0.005  0.006
    9  0.000  0.000  0.007  0.007
   10  0.000  0.001  0.019  0.021
   11  0.000  0.000  0.032  0.032
   12  0.013  0.001  0.026  0.040
   13  0.000  0.001  0.035  0.036
   14  0.000  0.001  0.046  0.047
   15  0.016  0.001  0.019  0.036
   16  0.017  0.001  0.029  0.047
   17  0.012  0.000  0.037  0.050
   18  0.000  0.000  0.088  0.089
   19  0.016  0.001  0.022  0.038
   20  0.000  0.000  0.071  0.071
   21  0.008  0.000  0.033  0.041
   22  0.001  0.001  0.030  0.031
   23  0.011  0.001  0.020  0.031
   24  0.000  0.001  0.032  0.033
   25  0.000  0.001  0.026  0.028
   26  0.012  0.001  0.023  0.035
   27  0.001  0.000  0.029  0.030
   28  0.000  0.000  0.005  0.006
   29  0.001  0.000  0.003  0.004
   30  0.000  0.000  0.002  0.002
   31  0.001  0.000  0.003  0.004
   32  0.000  0.000  0.003  0.004
   33  0.000  0.000  0.002  0.002
   34  0.000  0.000  0.003  0.003
   35  0.000  0.000  0.002  0.002
   36  0.000  0.000  0.002  0.002
tot    0.112  0.016  0.681  0.808
 
band    10 # energy   -5.02493895 # occ.  2.00000000
 
ion      s      p      d    tot
    1  0.001  0.000  0.010  0.011
    2  0.002  0.000  0.008  0.010
    3  0.002  0.000  0.008  0.010
    4  0.002  0.000  0.008  0.010
    5  0.004  0.000  0.008  0.012
    6  0.002  0.000  0.008  0.010
    7  0.002  0.000  0.008  0.010
    8  0.002  0.000  0.008  0.010
    9  0.002  0.000  0.000  0.003
   10  0.003  0.001  0.021  0.024
   11  0.003  0.001  0.023  0.026
   12  0.003  0.001  0.021  0.024
   13  0.003  0.001  0.023  0.026
   14  0.003  0.001  0.023  0.026
   15  0.002  0.000  0.028  0.030
   16  0.003  0.001  0.021  0.024
   17  0.002  0.000  0.028  0.030
   18  0.002  0.000  0.028  0.030
   19  0.007  0.001  0.017  0.025
   20  0.003  0.001  0.055  0.059
   21  0.003  0.001  0.055  0.059
   22  0.005  0.000  0.038  0.043
   23  0.003  0.001  0.055  0.059
   24  0.004  0.000  0.038  0.043
   25  0.007  0.001  0.017  0.025
   26  0.007  0.001  0.017  0.025
   27  0.005  0.000  0.038  0.043
   28  0.001  0.000  0.007  0.008
   29  0.002  0.000  0.010  0.012
   30  0.002  0.000  0.010  0.012
   31  0.002  0.000  0.010  0.012
   32  0.002  0.000  0.010  0.012
   33  0.002  0.000  0.010  0.012
   34  0.002  0.000  0.010  0.012
   35  0.005  0.000  0.000  0.005
   36  0.004  0.000  0.008  0.012
tot    0.109  0.012  0.689  0.810
 
band    11 # energy   -5.00494130 # occ.  2.00000000
 
ion      s      p      d    tot
    1  0.001  0.000  0.020  0.021
    2  0.001  0.000  0.010  0.011
    3  0.001  0.000  0.010  0.011
    4  0.001  0.000  0.010  0.011
    5  0.001  0.000  0.000  0.002
    6  0.001  0.000  0.010  0.011
    7  0.001  0.000  0.010  0.011
    8  0.001  0.000  0.010  0.011
    9  0.006  0.001  0.000  0.006
   10  0.002  0.000  0.066  0.068
   11  0.002  0.000  0.040  0.042
   12  0.002  0.000  0.066  0.068
   13  0.002  0.000  0.040  0.042
   14  0.002  0.000  0.040  0.042
   15  0.004  0.000  0.006  0.010
   16  0.002  0.000  0.066  0.068
   17  0.004  0.000  0.006  0.010
   18  0.004  0.000  0.006  0.010
   19  0.000  0.000  0.025  0.025
   20  0.000  0.000  0.044  0.044
   21  0.000  0.000  0.044  0.044
   22  0.004  0.000  0.025  0.029
   23  0.000  0.000  0.044  0.044
   24  0.004  0.000  0.025  0.029
   25  0.000  0.000  0.025  0.025
   26  0.000  0.000  0.025  0.025
   27  0.004  0.000  0.025  0.029
   28  0.008  0.000  0.007  0.015
   29  0.002  0.000  0.009  0.011
   30  0.002  0.000  0.009  0.011
   31  0.002  0.000  0.009  0.011
   32  0.002  0.000  0.009  0.011
   33  0.002  0.000  0.009  0.011
   34  0.002  0.000  0.009  0.011
   35  0.000  0.000  0.014  0.014
   36  0.001  0.000  0.001  0.001
tot    0.065  0.007  0.770  0.841
 
band    12 # energy   -4.99196485 # occ.  2.00000000
 
ion      s      p      d    tot
    1  0.000  0.000  0.016  0.016
    2  0.001  0.000  0.009  0.010
    3  0.004  0.001  0.006  0.010
    4  0.001  0.001  0.009  0.010
    5  0.000  0.000  0.015  0.015
    6  0.001  0.000  0.009  0.010
    7  0.004  0.001  0.006  0.010
    8  0.001  0.000  0.009  0.010
    9  0.000  0.000  0.004  0.005
   10  0.006  0.000  0.021  0.028
   11  0.000  0.000  0.026  0.027
   12  0.001  0.000  0.047  0.049
   13  0.000  0.000  0.026  0.026
   14  0.000  0.000  0.041  0.042
   15  0.002  0.000  0.047  0.049
   16  0.002  0.000  0.046  0.048
   17  0.002  0.000  0.049  0.051
   18  0.008  0.000  0.011  0.019
   19  0.000  0.000  0.021  0.022
   20  0.012  0.000  0.008  0.020
   21  0.003  0.000  0.063  0.066
   22  0.001  0.000  0.040  0.041
   23  0.003  0.000  0.061  0.064
   24  0.005  0.000  0.019  0.024
   25  0.002  0.000  0.037  0.039
   26  0.000  0.000  0.021  0.021
   27  0.001  0.000  0.039  0.040
   28  0.000  0.000  0.010  0.010
   29  0.002  0.001  0.005  0.008
   30  0.000  0.000  0.007  0.007
   31  0.002  0.001  0.005  0.008
   32  0.002  0.000  0.005  0.007
   33  0.000  0.000  0.007  0.007
   34  0.002  0.000  0.005  0.007
   35  0.000  0.000  0.004  0.004
   36  0.000  0.001  0.003  0.004
tot    0.070  0.009  0.759  0.837
 
band    13 # energy   -4.99195603 # occ.  2.00000000
 
ion      s      p      d    tot
    1  0.000  0.000  0.016  0.016
    2  0.003  0.000  0.007  0.010
    3  0.000  0.000  0.010  0.010
    4  0.003  0.000  0.007  0.010
    5  0.000  0.000  0.015  0.015
    6  0.003  0.001  0.007  0.010
    7  0.000  0.000  0.010  0.010
    8  0.003  0.001  0.007  0.010
    9  0.000  0.000  0.004  0.005
   10  0.000  0.000  0.055  0.056
   11  0.000  0.000  0.036  0.036
   12  0.005  0.000  0.029  0.034
   13  0.000  0.000  0.037  0.037
   14  0.000  0.000  0.021  0.021
   15  0.006  0.000  0.024  0.030
   16  0.005  0.000  0.030  0.035
   17  0.006  0.000  0.023  0.029
   18  0.000  0.000  0.060  0.060
   19  0.001  0.000  0.031  0.033
   20  0.000  0.000  0.080  0.080
   21  0.009  0.000  0.025  0.034
   22  0.004  0.000  0.026  0.029
   23  0.009  0.000  0.027  0.036
   24  0.000  0.000  0.046  0.046
   25  0.000  0.000  0.016  0.016
   26  0.001  0.000  0.032  0.034
   27  0.004  0.000  0.026  0.030
   28  0.000  0.000  0.010  0.010
   29  0.001  0.000  0.006  0.007
   30  0.003  0.001  0.004  0.008
   31  0.001  0.000  0.006  0.007
   32  0.001  0.000  0.006  0.007
   33  0.003  0.001  0.004  0.008
   34  0.001  0.000  0.006  0.007
   35  0.000  0.000  0.004  0.004
   36  0.000  0.001  0.003  0.004
tot    0.069  0.009  0.759  0.837
 
band    14 # energy   -4.98781642 # occ.  2.00000000
 
ion      s      p      d    tot
    1  0.001  0.000  0.002  0.003
    2  0.001  0.000  0.012  0.014
    3  0.001  0.000  0.012  0.014
    4  0.001  0.000  0.012  0.014
    5  0.003  0.000  0.000  0.004
    6  0.001  0.000  0.012  0.014
    7  0.001  0.000  0.012  0.014
    8  0.001  0.000  0.012  0.014
    9  0.006  0.000  0.019  0.025
   10  0.003  0.000  0.017  0.020
   11  0.000  0.000  0.006  0.007
   12  0.003  0.000  0.017  0.020
   13  0.000  0.000  0.006  0.007
   14  0.000  0.000  0.006  0.007
   15  0.001  0.000  0.048  0.048
   16  0.003  0.000  0.017  0.020
   17  0.001  0.000  0.048  0.048
   18  0.001  0.000  0.048  0.048
   19  0.000  0.000  0.041  0.042
   20  0.007  0.000  0.020  0.027
   21  0.007  0.000  0.020  0.027
   22  0.000  0.000  0.042  0.042
   23  0.007  0.000  0.020  0.027
   24  0.000  0.000  0.042  0.042
   25  0.000  0.000  0.041  0.041
   26  0.000  0.000  0.041  0.042
   27  0.000  0.000  0.042  0.042
   28  0.005  0.000  0.000  0.006
   29  0.004  0.000  0.014  0.018
   30  0.004  0.000  0.014  0.018
   31  0.004  0.000  0.014  0.018
   32  0.004  0.000  0.014  0.018
   33  0.004  0.000  0.014  0.018
   34  0.004  0.000  0.014  0.018
   35  0.011  0.000  0.022  0.033
   36  0.000  0.001  0.006  0.007
tot    0.093  0.007  0.724  0.825
 
band    15 # energy   -4.98315640 # occ.  2.00000000
 
ion      s      p      d    tot
    1  0.000  0.000  0.008  0.008
    2  0.000  0.000  0.008  0.008
    3  0.003  0.000  0.006  0.010
    4  0.001  0.000  0.007  0.008
    5  0.000  0.000  0.006  0.006
    6  0.002  0.000  0.008  0.010
    7  0.003  0.000  0.006  0.010
    8  0.001  0.000  0.008  0.010
    9  0.000  0.000  0.022  0.022
   10  0.000  0.000  0.015  0.015
   11  0.002  0.000  0.017  0.019
   12  0.001  0.000  0.026  0.028
   13  0.002  0.000  0.014  0.017
   14  0.000  0.000  0.037  0.037
   15  0.000  0.000  0.033  0.033
   16  0.001  0.000  0.025  0.026
   17  0.000  0.000  0.032  0.033
   18  0.000  0.000  0.034  0.034
   19  0.009  0.000  0.037  0.046
   20  0.000  0.001  0.014  0.015
   21  0.000  0.000  0.040  0.040
   22  0.012  0.000  0.036  0.048
   23  0.000  0.000  0.037  0.037
   24  0.000  0.000  0.061  0.061
   25  0.000  0.000  0.112  0.112
   26  0.010  0.000  0.025  0.035
   27  0.010  0.000  0.039  0.050
   28  0.000  0.000  0.006  0.007
   29  0.002  0.001  0.004  0.007
   30  0.000  0.000  0.009  0.009
   31  0.002  0.001  0.005  0.007
   32  0.001  0.000  0.004  0.005
   33  0.000  0.000  0.009  0.010
   34  0.001  0.000  0.004  0.005
   35  0.000  0.000  0.011  0.011
   36  0.000  0.000  0.001  0.001
tot    0.065  0.008  0.767  0.840
 
band    16 # energy   -4.98314669 # occ.  2.00000000
 
ion      s      p      d    tot
    1  0.000  0.000  0.008  0.008
    2  0.003  0.000  0.007  0.010
    3  0.000  0.000  0.008  0.008
    4  0.003  0.000  0.007  0.010
    5  0.000  0.000  0.006  0.006
    6  0.002  0.000  0.006  0.008
    7  0.000  0.000  0.008  0.009
    8  0.002  0.000  0.006  0.009
    9  0.000  0.000  0.022  0.022
   10  0.002  0.000  0.029  0.031
   11  0.001  0.000  0.028  0.029
   12  0.000  0.000  0.018  0.018
   13  0.001  0.000  0.031  0.032
   14  0.003  0.000  0.009  0.012
   15  0.000  0.000  0.033  0.034
   16  0.001  0.000  0.019  0.020
   17  0.000  0.000  0.034  0.034
   18  0.000  0.000  0.032  0.033
   19  0.004  0.000  0.079  0.083
   20  0.000  0.000  0.046  0.046
   21  0.000  0.000  0.021  0.021
   22  0.003  0.000  0.055  0.058
   23  0.000  0.000  0.024  0.024
   24  0.015  0.000  0.030  0.045
   25  0.012  0.000  0.004  0.017
   26  0.002  0.000  0.091  0.094
   27  0.005  0.000  0.051  0.056
   28  0.000  0.000  0.006  0.007
   29  0.000  0.000  0.008  0.008
   30  0.002  0.000  0.003  0.005
   31  0.000  0.000  0.007  0.007
   32  0.001  0.001  0.008  0.009
   33  0.002  0.000  0.003  0.005
   34  0.001  0.001  0.008  0.009
   35  0.000  0.000  0.011  0.011
   36  0.000  0.000  0.001  0.001
tot    0.065  0.008  0.767  0.840
 
band    17 # energy   -4.83408889 # occ.  2.00000000
 
ion      s      p      d    tot
    1  0.001  0.000  0.000  0.002
    2  0.000  0.000  0.008  0.008
    3  0.000  0.000  0.008  0.008
    4  0.000  0.000  0.008  0.008
    5  0.000  0.000  0.015  0.016
    6  0.000  0.000  0.008  0.008
    7  0.000  0.000  0.008  0.008
    8  0.000  0.000  0.008  0.008
    9  0.003  0.001  0.005  0.009
   10  0.001  0.000  0.015  0.016
   11  0.000  0.001  0.074  0.075
   12  0.001  0.000  0.016  0.016
   13  0.000  0.001  0.074  0.075
   14  0.000  0.001  0.073  0.074
   15  0.000  0.001  0.036  0.036
   16  0.001  0.000  0.016  0.016
   17  0.000  0.001  0.036  0.036
   18  0.000  0.001  0.037  0.037
   19  0.000  0.000  0.027  0.027
   20  0.001  0.000  0.064  0.066
   21  0.001  0.000  0.064  0.066
   22  0.002  0.000  0.016  0.018
   23  0.001  0.000  0.064  0.066
   24  0.002  0.000  0.016  0.018
   25  0.000  0.000  0.027  0.028
   26  0.000  0.000  0.027  0.027
   27  0.002  0.000  0.016  0.018
   28  0.005  0.001  0.000  0.007
   29  0.000  0.000  0.010  0.010
   30  0.000  0.000  0.010  0.010
   31  0.000  0.000  0.010  0.010
   32  0.000  0.000  0.010  0.010
   33  0.000  0.000  0.010  0.010
   34  0.000  0.000  0.010  0.010
   35  0.001  0.000  0.000  0.002
   36  0.000  0.001  0.004  0.005
tot    0.025  0.015  0.825  0.865
 
band    18 # energy   -4.83194302 # occ.  2.00000000
 
ion      s      p      d    tot
    1  0.000  0.000  0.002  0.002
    2  0.001  0.001  0.008  0.011
    3  0.000  0.000  0.010  0.010
    4  0.001  0.001  0.009  0.011
    5  0.000  0.001  0.017  0.018
    6  0.002  0.001  0.006  0.008
    7  0.000  0.000  0.010  0.010
    8  0.002  0.001  0.006  0.008
    9  0.000  0.001  0.014  0.014
   10  0.000  0.001  0.026  0.028
   11  0.001  0.000  0.078  0.079
   12  0.000  0.000  0.019  0.020
   13  0.001  0.000  0.078  0.079
   14  0.002  0.000  0.042  0.045
   15  0.001  0.000  0.024  0.025
   16  0.000  0.000  0.019  0.020
   17  0.001  0.000  0.024  0.025
   18  0.003  0.001  0.040  0.043
   19  0.000  0.000  0.010  0.010
   20  0.003  0.000  0.050  0.053
   21  0.001  0.000  0.075  0.076
   22  0.000  0.000  0.038  0.038
   23  0.001  0.000  0.075  0.076
   24  0.000  0.001  0.019  0.020
   25  0.001  0.001  0.032  0.034
   26  0.000  0.000  0.009  0.010
   27  0.000  0.000  0.038  0.038
   28  0.000  0.000  0.006  0.006
   29  0.000  0.000  0.005  0.006
   30  0.000  0.000  0.007  0.008
   31  0.000  0.000  0.005  0.006
   32  0.001  0.001  0.005  0.007
   33  0.000  0.000  0.007  0.008
   34  0.001  0.001  0.005  0.007
   35  0.000  0.000  0.001  0.001
   36  0.000  0.001  0.005  0.006
tot    0.024  0.016  0.825  0.865
 
band    19 # energy   -4.83190736 # occ.  2.00000000
 
ion      s      p      d    tot
    1  0.000  0.000  0.002  0.002
    2  0.001  0.000  0.008  0.009
    3  0.002  0.001  0.006  0.009
    4  0.001  0.000  0.008  0.008
    5  0.000  0.001  0.017  0.018
    6  0.000  0.001  0.011  0.011
    7  0.002  0.001  0.006  0.009
    8  0.000  0.000  0.011  0.011
    9  0.000  0.001  0.014  0.014
   10  0.000  0.000  0.017  0.017
   11  0.002  0.000  0.054  0.056
   12  0.000  0.001  0.024  0.025
   13  0.002  0.000  0.054  0.056
   14  0.000  0.000  0.091  0.091
   15  0.002  0.000  0.035  0.037
   16  0.000  0.001  0.024  0.025
   17  0.002  0.000  0.035  0.037
   18  0.000  0.000  0.019  0.019
   19  0.001  0.001  0.024  0.026
   20  0.000  0.000  0.083  0.083
   21  0.002  0.000  0.059  0.061
   22  0.000  0.001  0.025  0.026
   23  0.002  0.000  0.059  0.061
   24  0.000  0.000  0.044  0.045
   25  0.000  0.000  0.002  0.002
   26  0.001  0.001  0.025  0.026
   27  0.000  0.001  0.025  0.026
   28  0.000  0.000  0.006  0.006
   29  0.001  0.001  0.006  0.008
   30  0.001  0.000  0.004  0.006
   31  0.001  0.001  0.006  0.008
   32  0.000  0.000  0.006  0.007
   33  0.001  0.000  0.004  0.006
   34  0.000  0.000  0.006  0.007
   35  0.000  0.000  0.001  0.001
   36  0.000  0.001  0.005  0.006
tot    0.024  0.016  0.825  0.865
 
band    20 # energy   -4.83113638 # occ.  2.00000000
 
ion      s      p      d    tot
    1  0.000  0.000  0.007  0.007
    2  0.000  0.001  0.013  0.013
    3  0.000  0.001  0.013  0.013
    4  0.000  0.001  0.013  0.013
    5  0.004  0.001  0.000  0.005
    6  0.000  0.001  0.013  0.013
    7  0.000  0.001  0.013  0.013
    8  0.000  0.001  0.013  0.013
    9  0.001  0.000  0.004  0.005
   10  0.002  0.001  0.047  0.049
   11  0.000  0.000  0.021  0.022
   12  0.002  0.001  0.046  0.049
   13  0.000  0.000  0.021  0.022
   14  0.000  0.000  0.021  0.021
   15  0.004  0.000  0.029  0.033
   16  0.002  0.001  0.046  0.049
   17  0.004  0.000  0.029  0.033
   18  0.003  0.000  0.029  0.033
   19  0.001  0.000  0.049  0.051
   20  0.000  0.000  0.011  0.011
   21  0.000  0.000  0.010  0.011
   22  0.001  0.001  0.045  0.047
   23  0.000  0.000  0.010  0.011
   24  0.001  0.001  0.045  0.047
   25  0.001  0.000  0.049  0.051
   26  0.001  0.000  0.049  0.051
   27  0.001  0.001  0.045  0.047
   28  0.003  0.000  0.019  0.022
   29  0.001  0.000  0.012  0.013
   30  0.001  0.000  0.012  0.013
   31  0.001  0.000  0.012  0.013
   32  0.001  0.000  0.012  0.013
   33  0.001  0.000  0.012  0.013
   34  0.001  0.000  0.012  0.013
   35  0.006  0.001  0.001  0.007
   36  0.003  0.001  0.000  0.004
tot    0.046  0.017  0.784  0.847
 
band    21 # energy   -4.81389123 # occ.  2.00000000
 
ion      s      p      d    tot
    1  0.000  0.001  0.020  0.021
    2  0.001  0.001  0.009  0.011
    3  0.000  0.000  0.011  0.012
    4  0.001  0.001  0.009  0.011
    5  0.000  0.000  0.005  0.005
    6  0.001  0.000  0.005  0.007
    7  0.000  0.000  0.011  0.012
    8  0.001  0.000  0.005  0.007
    9  0.000  0.000  0.006  0.006
   10  0.000  0.000  0.070  0.070
   11  0.001  0.001  0.028  0.030
   12  0.002  0.000  0.057  0.059
   13  0.001  0.001  0.029  0.030
   14  0.000  0.000  0.000  0.000
   15  0.000  0.001  0.036  0.037
   16  0.002  0.000  0.058  0.059
   17  0.000  0.001  0.035  0.036
   18  0.000  0.000  0.072  0.072
   19  0.001  0.000  0.038  0.039
   20  0.000  0.000  0.008  0.008
   21  0.000  0.001  0.023  0.024
   22  0.002  0.000  0.040  0.043
   23  0.000  0.001  0.022  0.023
   24  0.000  0.000  0.031  0.031
   25  0.000  0.000  0.072  0.073
   26  0.001  0.000  0.037  0.038
   27  0.002  0.000  0.040  0.042
   28  0.000  0.000  0.009  0.009
   29  0.000  0.000  0.004  0.005
   30  0.000  0.000  0.007  0.008
   31  0.000  0.000  0.004  0.005
   32  0.001  0.001  0.004  0.006
   33  0.000  0.000  0.007  0.008
   34  0.001  0.001  0.004  0.006
   35  0.000  0.001  0.014  0.015
   36  0.000  0.000  0.000  0.000
tot    0.021  0.014  0.832  0.866
 
band    22 # energy   -4.81385375 # occ.  2.00000000
 
ion      s      p      d    tot
    1  0.000  0.001  0.020  0.021
    2  0.000  0.000  0.008  0.009
    3  0.002  0.001  0.005  0.008
    4  0.000  0.000  0.008  0.009
    5  0.000  0.000  0.005  0.005
    6  0.001  0.001  0.012  0.013
    7  0.002  0.001  0.005  0.008
    8  0.001  0.001  0.012  0.013
    9  0.000  0.000  0.006  0.006
   10  0.002  0.000  0.053  0.056
   11  0.000  0.000  0.010  0.010
   12  0.000  0.000  0.066  0.067
   13  0.000  0.000  0.009  0.010
   14  0.001  0.001  0.038  0.040
   15  0.000  0.000  0.059  0.060
   16  0.001  0.000  0.066  0.066