 vasp.6.2.0 18Jan21 (build Jun 12 2021 23:27:24) complex                        
  
 executed on             LinuxIFC date 2022.05.26  20:04:58
 running on   28 total cores
 distrk:  each k-point on   28 cores,    1 groups
 distr:  one band on NCORE=   1 cores,   28 groups


--------------------------------------------------------------------------------------------------------


 INCAR:
   ISMEAR = -5
   SIGMA = 0.1
   ISPIN = 1
   EDIFF = 1.d-5
   EDIFFG = -0.01
   NSW = 0
   NELM = 150
   ENCUT = 500
   ISIF = 2
   IBRION = 2
   LREAL = Auto
   ALGO = Fast
   ICHARG = 11
   LORBIT = 10
   LCHARG = .F.
   LWAVE = .F.

 POTCAR:    PAW_PBE Cu 22Jun2005                  
 POTCAR:    PAW_PBE Rh 04Feb2005                  
 POTCAR:    PAW_PBE O 08Apr2002                   
 -----------------------------------------------------------------------------
|                                                                             |
|           W    W    AA    RRRRR   N    N  II  N    N   GGGG   !!!           |
|           W    W   A  A   R    R  NN   N  II  NN   N  G    G  !!!           |
|           W    W  A    A  R    R  N N  N  II  N N  N  G       !!!           |
|           W WW W  AAAAAA  RRRRR   N  N N  II  N  N N  G  GGG   !            |
|           WW  WW  A    A  R   R   N   NN  II  N   NN  G    G                |
|           W    W  A    A  R    R  N    N  II  N    N   GGGG   !!!           |
|                                                                             |
|     For optimal performance we recommend to set                             |
|       NCORE = 2 up to number-of-cores-per-socket                            |
|     NCORE specifies how many cores store one orbital (NPAR=cpu/NCORE).      |
|     This setting can greatly improve the performance of VASP for DFT.       |
|     The default, NCORE=1 might be grossly inefficient on modern             |
|     multi-core architectures or massively parallel machines. Do your        |
|     own testing! More info at https://www.vasp.at/wiki/index.php/NCORE      |
|     Unfortunately you need to use the default for GW and RPA                |
|     calculations (for HF NCORE is supported but not extensively tested      |
|     yet).                                                                   |
|                                                                             |
 -----------------------------------------------------------------------------

 POTCAR:    PAW_PBE Cu 22Jun2005                  
   VRHFIN =Cu: d10 p1                                                                               
   LEXCH  = PE                                                                                      
   EATOM  =  1390.9808 eV,  102.2342 Ry                                                             
                                                                                                    
   TITEL  = PAW_PBE Cu 22Jun2005                                                                    
   LULTRA =        F    use ultrasoft PP ?                                                          
   IUNSCR =        1    unscreen: 0-lin 1-nonlin 2-no                                               
   RPACOR =    2.000    partial core radius                                                         
   POMASS =   63.546; ZVAL   =   11.000    mass and valenz                                          
   RCORE  =    2.300    outmost cutoff radius                                                       
   RWIGS  =    2.200; RWIGS  =    1.164    wigner-seitz radius (au A)                               
   ENMAX  =  295.446; ENMIN  =  221.585 eV                                                          
   ICORE  =        3    local potential                                                             
   LCOR   =        T    correct aug charges                                                         
   LPAW   =        T    paw PP                                                                      
   EAUG   =  586.980                                                                                
   DEXC   =    0.000                                                                                
   RMAX   =    2.344    core radius for proj-oper                                                   
   RAUG   =    1.300    factor for augmentation sphere                                              
   RDEP   =    2.302    radius for radial grids                                                     
   RDEPT  =    1.771    core radius for aug-charge                                                  
                                                                                                    
   Atomic configuration                                                                             
    9 entries                                                                                       
     n  l   j            E        occ.                                                              
     1  0  0.50     -8850.2468   2.0000                                                             
     2  0  0.50     -1062.3498   2.0000                                                             
     2  1  1.50      -916.8226   6.0000                                                             
     3  0  0.50      -114.6929   2.0000                                                             
     3  1  1.50       -72.1325   6.0000                                                             
     3  2  2.50        -5.0394  10.0000                                                             
     4  0  0.50        -4.6097   1.0000                                                             
     4  1  0.50        -4.0817   0.0000                                                             
     4  3  2.50        -1.3606   0.0000                                                             
   Description                                                                                      
     l       E           TYP  RCUT    TYP  RCUT                                                     
     2     -5.0393973     23  2.200                                                                 
     2     10.8846608     23  2.200                                                                 
     0     -4.6097109     23  2.200                                                                 
     0      8.2520465     23  2.200                                                                 
     1     -2.7211652     23  2.200                                                                 
     1     21.7055443     23  2.200                                                                 
     3      2.7211652     23  2.300                                                                 
  local pseudopotential read in
  partial core-charges read in
  partial kinetic energy density read in
  atomic valenz-charges read in
  non local Contribution for L=           2  read in
    real space projection operators read in
  non local Contribution for L=           2  read in
    real space projection operators read in
  non local Contribution for L=           0  read in
    real space projection operators read in
  non local Contribution for L=           0  read in
    real space projection operators read in
  non local Contribution for L=           1  read in
    real space projection operators read in
  non local Contribution for L=           1  read in
    real space projection operators read in
    PAW grid and wavefunctions read in
 
   number of l-projection  operators is LMAX  =           6
   number of lm-projection operators is LMMAX =          18
 
 POTCAR:    PAW_PBE Rh 04Feb2005                  
   VRHFIN =Rh: s1 d8                                                                                
   LEXCH  = PE                                                                                      
   EATOM  =   616.4198 eV,   45.3056 Ry                                                             
                                                                                                    
   TITEL  = PAW_PBE Rh 04Feb2005                                                                    
   LULTRA =        F    use ultrasoft PP ?                                                          
   IUNSCR =        1    unscreen: 0-lin 1-nonlin 2-no                                               
   RPACOR =    2.170    partial core radius                                                         
   POMASS =  102.906; ZVAL   =    9.000    mass and valenz                                          
   RCORE  =    2.700    outmost cutoff radius                                                       
   RWIGS  =    2.650; RWIGS  =    1.402    wigner-seitz radius (au A)                               
   ENMAX  =  228.996; ENMIN  =  171.747 eV                                                          
   ICORE  =        3    local potential                                                             
   LCOR   =        T    correct aug charges                                                         
   LPAW   =        T    paw PP                                                                      
   EAUG   =  374.513                                                                                
   DEXC   =    0.000                                                                                
   RMAX   =    2.752    core radius for proj-oper                                                   
   RAUG   =    1.300    factor for augmentation sphere                                              
   RDEP   =    2.703    radius for radial grids                                                     
   RDEPT  =    2.174    core radius for aug-charge                                                  
                                                                                                    
   Atomic configuration                                                                             
   12 entries                                                                                       
     n  l   j            E        occ.                                                              
     1  0  0.50    -23034.1986   2.0000                                                             
     2  0  0.50     -3339.2387   2.0000                                                             
     2  1  1.50     -2992.3290   6.0000                                                             
     3  0  0.50      -596.7249   2.0000                                                             
     3  1  1.50      -482.7183   6.0000                                                             
     3  2  2.50      -300.5356  10.0000                                                             
     4  0  0.50       -82.4809   2.0000                                                             
     4  1  0.50       -50.4082   6.0000                                                             
     4  2  2.50        -5.9408   8.0000                                                             
     5  0  0.50        -4.2999   1.0000                                                             
     5  1  1.50        -1.3606   0.0000                                                             
     4  3  2.50        -1.3606   0.0000                                                             
   Description                                                                                      
     l       E           TYP  RCUT    TYP  RCUT                                                     
     2     -5.9407964     23  2.500                                                                 
     2     -7.3013790     23  2.500                                                                 
     0     -4.2998518     23  2.400                                                                 
     0      6.0533315     23  2.400                                                                 
     1     -4.0817478     23  2.700                                                                 
     1     27.2116520     23  2.700                                                                 
     3     -4.0817478     23  2.500                                                                 
  local pseudopotential read in
  partial core-charges read in
  partial kinetic energy density read in
  atomic valenz-charges read in
  non local Contribution for L=           2  read in
    real space projection operators read in
  non local Contribution for L=           2  read in
    real space projection operators read in
  non local Contribution for L=           0  read in
    real space projection operators read in
  non local Contribution for L=           0  read in
    real space projection operators read in
  non local Contribution for L=           1  read in
    real space projection operators read in
  non local Contribution for L=           1  read in
    real space projection operators read in
    PAW grid and wavefunctions read in
 
   number of l-projection  operators is LMAX  =           6
   number of lm-projection operators is LMMAX =          18
 
 POTCAR:    PAW_PBE O 08Apr2002                   
   VRHFIN =O: s2p4                                                                                  
   LEXCH  = PE                                                                                      
   EATOM  =   432.3788 eV,   31.7789 Ry                                                             
                                                                                                    
   TITEL  = PAW_PBE O 08Apr2002                                                                     
   LULTRA =        F    use ultrasoft PP ?                                                          
   IUNSCR =        1    unscreen: 0-lin 1-nonlin 2-no                                               
   RPACOR =    1.200    partial core radius                                                         
   POMASS =   16.000; ZVAL   =    6.000    mass and valenz                                          
   RCORE  =    1.520    outmost cutoff radius                                                       
   RWIGS  =    1.550; RWIGS  =    0.820    wigner-seitz radius (au A)                               
   ENMAX  =  400.000; ENMIN  =  300.000 eV                                                          
   ICORE  =        2    local potential                                                             
   LCOR   =        T    correct aug charges                                                         
   LPAW   =        T    paw PP                                                                      
   EAUG   =  605.392                                                                                
   DEXC   =    0.000                                                                                
   RMAX   =    1.553    core radius for proj-oper                                                   
   RAUG   =    1.300    factor for augmentation sphere                                              
   RDEP   =    1.550    radius for radial grids                                                     
   RDEPT  =    1.329    core radius for aug-charge                                                  
                                                                                                    
   Atomic configuration                                                                             
    4 entries                                                                                       
     n  l   j            E        occ.                                                              
     1  0  0.50      -514.6923   2.0000                                                             
     2  0  0.50       -23.9615   2.0000                                                             
     2  1  0.50        -9.0305   4.0000                                                             
     3  2  1.50        -9.5241   0.0000                                                             
   Description                                                                                      
     l       E           TYP  RCUT    TYP  RCUT                                                     
     0    -23.9615318     23  1.200                                                                 
     0     -9.5240782     23  1.200                                                                 
     1     -9.0304911     23  1.520                                                                 
     1      8.1634956     23  1.520                                                                 
     2     -9.5240782      7  1.500                                                                 
  local pseudopotential read in
  partial core-charges read in
  partial kinetic energy density read in
  kinetic energy density of atom read in
  atomic valenz-charges read in
  non local Contribution for L=           0  read in
    real space projection operators read in
  non local Contribution for L=           0  read in
    real space projection operators read in
  non local Contribution for L=           1  read in
    real space projection operators read in
  non local Contribution for L=           1  read in
    real space projection operators read in
    PAW grid and wavefunctions read in
 
   number of l-projection  operators is LMAX  =           4
   number of lm-projection operators is LMMAX =           8
 
 Optimization of the real space projectors (new method)

 maximal supplied QI-value         = 16.25
 optimisation between [QCUT,QGAM] = [ 11.38, 22.75] = [ 36.24,144.96] Ry 
 Optimized for a Real-space Cutoff    1.52 Angstroem

   l    n(q)    QCUT    max X(q) W(low)/X(q) W(high)/X(q)  e(spline) 
   2      9    11.376     4.610    0.21E-03    0.10E-03    0.26E-06
   2      9    11.376     8.522    0.33E-03    0.16E-03    0.37E-06
   0     10    11.376    51.609    0.62E-04    0.20E-04    0.13E-06
   0     10    11.376    27.747    0.54E-04    0.20E-04    0.13E-06
   1     10    11.376    20.408    0.13E-04    0.99E-04    0.19E-06
   1     10    11.376    13.425    0.12E-04    0.87E-04    0.17E-06
 Optimization of the real space projectors (new method)

 maximal supplied QI-value         = 13.98
 optimisation between [QCUT,QGAM] = [ 11.33, 22.79] = [ 35.93,145.49] Ry 
 Optimized for a Real-space Cutoff    1.47 Angstroem

   l    n(q)    QCUT    max X(q) W(low)/X(q) W(high)/X(q)  e(spline) 
   2      9    11.327    59.645    0.31E-03    0.12E-04    0.28E-06
   2      9    11.327    58.460    0.31E-03    0.12E-04    0.29E-06
   0     10    11.327    97.683    0.32E-04    0.83E-04    0.31E-06
   0     10    11.327    53.223    0.30E-04    0.78E-04    0.29E-06
   1     10    11.327    13.596    0.49E-03    0.95E-03    0.55E-06
   1     10    11.327     7.885    0.36E-03    0.71E-03    0.41E-06
 Optimization of the real space projectors (new method)

 maximal supplied QI-value         = 24.76
 optimisation between [QCUT,QGAM] = [ 11.39, 22.77] = [ 36.31,145.25] Ry 
 Optimized for a Real-space Cutoff    1.00 Angstroem

   l    n(q)    QCUT    max X(q) W(low)/X(q) W(high)/X(q)  e(spline) 
   0      7    11.387    20.381    0.39E-03    0.13E-02    0.15E-06
   0      7    11.387    15.268    0.42E-03    0.14E-02    0.17E-06
   1      6    11.387     5.964    0.41E-03    0.11E-02    0.17E-06
   1      6    11.387     5.382    0.39E-03    0.87E-03    0.15E-06
  PAW_PBE Cu 22Jun2005                  :
 energy of atom  1       EATOM=-1390.9808
 kinetic energy error for atom=    0.0043 (will be added to EATOM!!)
  PAW_PBE Rh 04Feb2005                  :
 energy of atom  2       EATOM= -616.4198
 kinetic energy error for atom=    0.0030 (will be added to EATOM!!)
  PAW_PBE O 08Apr2002                   :
 energy of atom  3       EATOM= -432.3788
 kinetic energy error for atom=    0.0224 (will be added to EATOM!!)
 
 
 POSCAR: Cu-Rh-O
  positions in direct lattice
  velocities in cartesian coordinates
 exchange correlation table for  LEXCH =        8
   RHO(1)=    0.500       N(1)  =     2000
   RHO(2)=  100.500       N(2)  =     4000

 VTST: version 3.2, (02/03/18)

 CHAIN: initializing optimizer
 
 OPT: Using VASP Conjugate-Gradient optimizer
 CHAIN: Read ICHAIN            0
 
 POSCAR: Cu-Rh-O
  positions in direct lattice
  velocities in cartesian coordinates
 


--------------------------------------------------------------------------------------------------------


 ion  position               nearest neighbor table
   1  0.000  0.000  0.252-   7 2.57   3 2.57   4 2.57   2 2.57   6 2.57   8 2.57  12 2.57  10 2.57
                            16 2.57
   2  0.333  0.000  0.252-   8 2.57   9 2.57   5 2.57   1 2.57   3 2.57  11 2.57   4 2.57  10 2.57
                            17 2.57
   3  0.667  0.000  0.252-   1 2.57   7 2.57   6 2.57   9 2.57   2 2.57  12 2.57   5 2.57  18 2.57
                            11 2.57
   4  0.000  0.333  0.252-   5 2.57   6 2.57   1 2.57   7 2.57   2 2.57  13 2.57   9 2.57  10 2.57
                            15 2.57
   5  0.333  0.333  0.252-   4 2.57   2 2.57   7 2.57  13 2.57   8 2.57   6 2.57   3 2.57  11 2.57
                            14 2.57
   6  0.667  0.333  0.252-   4 2.57   9 2.57  15 2.57   3 2.57   1 2.57   8 2.57  14 2.57   5 2.57
                            12 2.57
   7  0.000  0.667  0.252-   1 2.57   3 2.57  16 2.57  18 2.57   4 2.57   5 2.57   8 2.57   9 2.57
                            13 2.57
   8  0.333  0.667  0.252-   9 2.57   2 2.57  17 2.57   6 2.57   1 2.57   7 2.57   5 2.57  14 2.57
                            16 2.57
   9  0.667  0.667  0.252-   8 2.57   6 2.57   2 2.57  17 2.57   3 2.57   7 2.57   4 2.57  15 2.57
                            18 2.57
  10  0.111  0.111  0.351-  20 2.55  26 2.56  19 2.56  11 2.57  12 2.57  13 2.57   1 2.57   2 2.57
                             4 2.57  15 2.57  16 2.57  17 2.57
  11  0.444  0.111  0.351-  20 2.55  21 2.55  27 2.56  10 2.57  13 2.57   2 2.57  17 2.57  14 2.57
                            12 2.57   5 2.57   3 2.57  18 2.57
  12  0.778  0.111  0.351-  21 2.55  19 2.56  25 2.56  15 2.57  10 2.57  14 2.57  18 2.57   3 2.57
                             1 2.57  16 2.57  11 2.57   6 2.57
  13  0.111  0.444  0.351-  23 2.55  20 2.55  22 2.56  16 2.57  18 2.57  10 2.57  11 2.57  14 2.57
                             5 2.57   4 2.57   7 2.57  15 2.57
  14  0.444  0.444  0.351-  21 2.55  23 2.55  24 2.56  15 2.57  17 2.57  12 2.57  16 2.57  13 2.57
                            11 2.57   6 2.57   8 2.57   5 2.57
  15  0.778  0.444  0.351-  19 2.56  24 2.56  22 2.56  14 2.57  17 2.57  12 2.57   6 2.57  18 2.57
                            10 2.57   9 2.57  13 2.57   4 2.57
  16  0.111  0.778  0.351-  23 2.55  25 2.56  26 2.56  18 2.57  13 2.57   7 2.57  14 2.57  17 2.57
                            12 2.57  10 2.57   8 2.57   1 2.57
  17  0.444  0.778  0.351-  26 2.56  27 2.56  24 2.56  14 2.57  15 2.57   8 2.57   9 2.57  11 2.57
                            16 2.57  18 2.57  10 2.57   2 2.57
  18  0.778  0.778  0.351-  25 2.56  22 2.56  27 2.56  16 2.57  13 2.57   7 2.57  15 2.57  12 2.57
                            17 2.57   9 2.57   3 2.57  11 2.57
  19  0.889  0.223  0.449-  28 2.55  32 2.55  31 2.55  15 2.56  12 2.56  10 2.56  21 2.56  20 2.56
                            22 2.56  24 2.56  25 2.57  26 2.57
  20  0.222  0.222  0.448-  10 2.55  11 2.55  13 2.55  26 2.56  19 2.56  27 2.57  22 2.57  36 2.57
                            29 2.58  31 2.58  23 2.58  21 2.58
  21  0.557  0.222  0.448-  12 2.55  14 2.55  11 2.55  19 2.56  25 2.56  24 2.57  27 2.57  36 2.57
                            32 2.58  30 2.58  20 2.58  23 2.58
  22  0.889  0.556  0.449-  35 2.54  31 2.56  33 2.56  18 2.56  15 2.56  19 2.56  25 2.56  13 2.56
                            24 2.56  27 2.56  23 2.57  20 2.57
  23  0.222  0.557  0.448-  16 2.55  13 2.55  14 2.55  25 2.56  26 2.56  22 2.57  24 2.57  36 2.57
                            33 2.58  34 2.58  20 2.58  21 2.58
  24  0.556  0.556  0.449-  35 2.54  32 2.56  34 2.56  15 2.56  17 2.56  19 2.56  26 2.56  14 2.56
                            22 2.56  27 2.56  21 2.57  23 2.57
  25  0.889  0.889  0.449-  28 2.55  33 2.55  30 2.55  18 2.56  16 2.56  12 2.56  21 2.56  23 2.56
                            22 2.56  27 2.56  19 2.57  26 2.57
  26  0.223  0.889  0.449-  28 2.55  29 2.55  34 2.55  17 2.56  10 2.56  16 2.56  20 2.56  23 2.56
                            27 2.56  24 2.56  25 2.57  19 2.57
  27  0.556  0.889  0.449-  35 2.54  29 2.56  30 2.56  17 2.56  18 2.56  26 2.56  25 2.56  11 2.56
                            24 2.56  22 2.56  20 2.57  21 2.57
  28  0.000  0.000  0.546-  25 2.55  19 2.55  26 2.55  33 2.56  30 2.56  31 2.56  29 2.56  32 2.56
                            34 2.56
  29  0.333  0.998  0.547-  34 2.54  26 2.55  28 2.56  27 2.56  35 2.56  31 2.58  20 2.58  36 2.58
                            30 2.59
  30  0.669  0.998  0.547-  33 2.54  25 2.55  28 2.56  27 2.56  35 2.56  32 2.58  21 2.58  36 2.58
                            29 2.59
  31  0.998  0.333  0.547-  32 2.54  19 2.55  28 2.56  22 2.56  35 2.56  29 2.58  20 2.58  36 2.58
                            33 2.59
  32  0.669  0.333  0.547-  31 2.54  19 2.55  28 2.56  24 2.56  35 2.56  30 2.58  21 2.58  36 2.58
                            34 2.59
  33  0.998  0.669  0.547-  30 2.54  25 2.55  28 2.56  22 2.56  35 2.56  34 2.58  23 2.58  36 2.58
                            31 2.59
  34  0.333  0.669  0.547-  29 2.54  26 2.55  28 2.56  24 2.56  35 2.56  33 2.58  23 2.58  36 2.58
                            32 2.59
  35  0.667  0.667  0.546-  24 2.54  27 2.54  22 2.54  34 2.56  32 2.56  29 2.56  30 2.56  33 2.56
                            31 2.56
  36  0.333  0.333  0.547-  37 1.79  23 2.57  20 2.57  21 2.57  31 2.58  29 2.58  33 2.58  34 2.58
                            32 2.58  30 2.58
  37  0.333  0.333  0.631-  36 1.79
 
  LATTYP: Found a hexagonal cell.
 ALAT       =     7.6967864036
 C/A-ratio  =     2.7653617908
  
  Lattice vectors:
  
 A1 = (  -3.8483927580,  -6.6656128093,   0.0000000000)
 A2 = (   7.6967864037,   0.0000000000,   0.0000000000)
 A3 = (   0.0000000000,   0.0000000000,  21.2843990326)


Analysis of symmetry for initial positions (statically):
=====================================================================
 Subroutine PRICEL returns:
 Original cell was already a primitive cell.
 

 Routine SETGRP: Setting up the symmetry group for a 
 hexagonal supercell.


 Subroutine GETGRP returns: Found  6 space group operations
 (whereof  6 operations were pure point group operations)
 out of a pool of 24 trial point group operations.


The static configuration has the point symmetry C_3v.


Analysis of symmetry for dynamics (positions and initial velocities):
=====================================================================
 Subroutine PRICEL returns:
 Original cell was already a primitive cell.
 

 Routine SETGRP: Setting up the symmetry group for a 
 hexagonal supercell.


 Subroutine GETGRP returns: Found  6 space group operations
 (whereof  6 operations were pure point group operations)
 out of a pool of 24 trial point group operations.


The dynamic configuration has the point symmetry C_3v.


Analysis of constrained symmetry for selective dynamics:
=====================================================================
 Subroutine PRICEL returns:
 Original cell was already a primitive cell.
 

 Routine SETGRP: Setting up the symmetry group for a 
 hexagonal supercell.


 Subroutine GETGRP returns: Found  6 space group operations
 (whereof  6 operations were pure point group operations)
 out of a pool of 24 trial point group operations.


The constrained configuration has the point symmetry C_3v.


 Subroutine INISYM returns: Found  6 space group operations
 (whereof  6 operations are pure point group operations),
 and found     1 'primitive' translations


----------------------------------------------------------------------------------------

                                     Primitive cell                                     

  volume of cell :    1091.9705

  direct lattice vectors                    reciprocal lattice vectors
     7.696786404  0.000000000  0.000000000     0.129924354 -0.075011849  0.000000000
     3.848392758  6.665612809  0.000000000     0.000000000  0.150023716  0.000000000
     0.000000000  0.000000000 21.284399033     0.000000000  0.000000000  0.046982769

  length of vectors
     7.696786404  7.696786404 21.284399033     0.150023716  0.150023716  0.046982769

  position of ions in fractional coordinates (direct lattice)
     0.000000000  0.000000000  0.252370745
     0.333333343  0.000000000  0.252370745
     0.666666687  0.000000000  0.252370745
     1.000000000  0.333333343  0.252370745
     0.333333313  0.333333343  0.252370745
     0.666666687  0.333333343  0.252370745
     1.000000000  0.666666687  0.252370745
     0.333333373  0.666666687  0.252370745
     0.666666627  0.666666687  0.252370745
     0.111111119  0.111111112  0.350790262
     0.444444418  0.111111112  0.350790262
     0.777777791  0.111111112  0.350790262
     0.111111119  0.444444448  0.350790262
     0.444444478  0.444444448  0.350790262
     0.777777731  0.444444448  0.350790262
     0.111111112  0.777777731  0.350790262
     0.444444478  0.777777731  0.350790262
     0.777777851  0.777777731  0.350790262
     0.888628564  0.222742887  0.448748291
     0.221729390  0.221729375  0.448280860
     0.556541280  0.221729375  0.448280860
     0.888703709  0.555648115  0.449042026
     0.221729360  0.556541220  0.448280860
     0.555648175  0.555648115  0.449042026
     0.888628564  0.888628564  0.448748291
     0.222742902  0.888628564  0.448748291
     0.555648115  0.888703709  0.449042026
     0.000000000  0.000000000  0.545915422
     0.332883843  0.998276116  0.547005797
     0.668840071  0.998276116  0.547005797
     0.998276116  0.332883843  0.547005797
     0.668840071  0.332883843  0.547005797
     0.998276116  0.668840071  0.547005797
     0.332883873  0.668840071  0.547005797
     0.666666627  0.666666687  0.546097926
     0.333333313  0.333333343  0.546628567
     0.333333313  0.333333343  0.630571641

  ion indices of the primitive-cell ions
   primitive index   ion index
                 1           1
                 2           2
                 3           3
                 4           4
                 5           5
                 6           6
                 7           7
                 8           8
                 9           9
                10          10
                11          11
                12          12
                13          13
                14          14
                15          15
                16          16
                17          17
                18          18
                19          19
                20          20
                21          21
                22          22
                23          23
                24          24
                25          25
                26          26
                27          27
                28          28
                29          29
                30          30
                31          31
                32          32
                33          33
                34          34
                35          35
                36          36
                37          37

----------------------------------------------------------------------------------------

 
 
 KPOINTS: Automatic mesh                          

Automatic generation of k-mesh.
 Grid dimensions read from file:
 generate k-points for:    8    8    1

 Generating k-lattice:

  Cartesian coordinates                     Fractional coordinates (reciprocal lattice)
     0.016240544 -0.009376481  0.000000000     0.125000000 -0.000000000  0.000000000
     0.000000000  0.018752964  0.000000000     0.000000000  0.125000000  0.000000000
     0.000000000  0.000000000  0.046982769     0.000000000  0.000000000  1.000000000

  Length of vectors
     0.018752964  0.018752964  0.046982769

  Shift w.r.t. Gamma in fractional coordinates (k-lattice)
     0.000000000  0.000000000  0.000000000

 TETIRR: Found     36 inequivalent tetrahedra from      384
 
 Subroutine IBZKPT returns following result:
 ===========================================
 
 Found     10 irreducible k-points:
 
 Following reciprocal coordinates:
            Coordinates               Weight
  0.000000  0.000000  0.000000      1.000000
  0.125000 -0.000000  0.000000      6.000000
  0.250000 -0.000000  0.000000      6.000000
  0.375000 -0.000000  0.000000      6.000000
  0.500000 -0.000000  0.000000      3.000000
  0.250000  0.125000  0.000000      6.000000
  0.375000  0.125000  0.000000     12.000000
  0.500000  0.125000  0.000000     12.000000
  0.500000  0.250000  0.000000      6.000000
 -0.375000  0.250000  0.000000      6.000000
 
 Following cartesian coordinates:
            Coordinates               Weight
  0.000000  0.000000  0.000000      1.000000
  0.016241 -0.009376  0.000000      6.000000
  0.032481 -0.018753  0.000000      6.000000
  0.048722 -0.028129  0.000000      6.000000
  0.064962 -0.037506  0.000000      3.000000
  0.032481  0.000000  0.000000      6.000000
  0.048722 -0.009376  0.000000     12.000000
  0.064962 -0.018753  0.000000     12.000000
  0.064962  0.000000  0.000000      6.000000
 -0.048722  0.065635  0.000000      6.000000
 


--------------------------------------------------------------------------------------------------------




 Dimension of arrays:
   k-points           NKPTS =     10   k-points in BZ     NKDIM =     10   number of bands    NBANDS=    252
   number of dos      NEDOS =    301   number of ions     NIONS =     37
   non local maximal  LDIM  =      6   non local SUM 2l+1 LMDIM =     18
   total plane-waves  NPLWV = 211680
   max r-space proj   IRMAX =   2893   max aug-charges    IRDMAX=  11216
   dimension x,y,z NGX =    42 NGY =   42 NGZ =  120
   dimension x,y,z NGXF=    84 NGYF=   84 NGZF=  240
   support grid    NGXF=    84 NGYF=   84 NGZF=  240
   ions per type =              35   1   1
   NGX,Y,Z   is equivalent  to a cutoff of   9.07,  9.07,  9.37 a.u.
   NGXF,Y,Z  is equivalent  to a cutoff of  18.14, 18.14, 18.75 a.u.

 SYSTEM =  unknown system                          
 POSCAR =  Cu-Rh-O                                 

 Startparameter for this run:
   NWRITE =      2    write-flag & timer
   PREC   = normal    normal or accurate (medium, high low for compatibility)
   ISTART =      0    job   : 0-new  1-cont  2-samecut
   ICHARG =     11    charge: 1-file 2-atom 10-const
   ISPIN  =      1    spin polarized calculation?
   LNONCOLLINEAR =      F non collinear calculations
   LSORBIT =      F    spin-orbit coupling
   INIWAV =      1    electr: 0-lowe 1-rand  2-diag
   LASPH  =      F    aspherical Exc in radial PAW
   METAGGA=      F    non-selfconsistent MetaGGA calc.

 Electronic Relaxation 1
   ENCUT  =  500.0 eV  36.75 Ry    6.06 a.u.  14.03 14.03 38.81*2*pi/ulx,y,z
   ENINI  =  500.0     initial cutoff
   ENAUG  =  605.4 eV  augmentation charge cutoff
   NELM   =    150;   NELMIN=  2; NELMDL= -5     # of ELM steps 
   EDIFF  = 0.1E-04   stopping-criterion for ELM
   LREAL  =      T    real-space projection
   NLSPLINE    = F    spline interpolate recip. space projectors
   LCOMPAT=      F    compatible to vasp.4.4
   GGA_COMPAT  = T    GGA compatible to vasp.4.4-vasp.4.6
   LMAXPAW     = -100 max onsite density
   LMAXMIX     =    2 max onsite mixed and CHGCAR
   VOSKOWN=      0    Vosko Wilk Nusair interpolation
   ROPT   =   -0.00050  -0.00050  -0.00050
 Ionic relaxation
   EDIFFG = -.1E-01   stopping-criterion for IOM
   NSW    =      0    number of steps for IOM
   NBLOCK =      1;   KBLOCK =      1    inner block; outer block 
   IBRION =     -1    ionic relax: 0-MD 1-quasi-New 2-CG
   NFREE  =      1    steps in history (QN), initial steepest desc. (CG)
   ISIF   =      2    stress and relaxation
   IWAVPR =     10    prediction:  0-non 1-charg 2-wave 3-comb
   ISYM   =      2    0-nonsym 1-usesym 2-fastsym
   LCORR  =      T    Harris-Foulkes like correction to forces

   POTIM  = 0.5000    time-step for ionic-motion
   TEIN   =    0.0    initial temperature
   TEBEG  =    0.0;   TEEND  =   0.0 temperature during run
   SMASS  =  -3.00    Nose mass-parameter (am)
   estimated Nose-frequenzy (Omega)   =  0.10E-29 period in steps = 0.13E+47 mass=  -0.135E-26a.u.
   SCALEE = 1.0000    scale energy and forces
   NPACO  =    256;   APACO  = 16.0  distance and # of slots for P.C.
   PSTRESS=    0.0 pullay stress

  Mass of Ions in am
   POMASS =  63.55102.91 16.00
  Ionic Valenz
   ZVAL   =  11.00  9.00  6.00
  Atomic Wigner-Seitz radii
   RWIGS  =  -1.00 -1.00 -1.00
  virtual crystal weights 
   VCA    =   1.00  1.00  1.00
   NELECT =     400.0000    total number of electrons
   NUPDOWN=      -1.0000    fix difference up-down

 DOS related values:
   EMIN   =  10.00;   EMAX   =-10.00  energy-range for DOS
   EFERMI =   0.00
   ISMEAR =    -5;   SIGMA  =   0.10  broadening in eV -4-tet -1-fermi 0-gaus

 Electronic relaxation 2 (details)
   IALGO  =     68    algorithm
   LDIAG  =      T    sub-space diagonalisation (order eigenvalues)
   LSUBROT=      F    optimize rotation matrix (better conditioning)
   TURBO    =      0    0=normal 1=particle mesh
   IRESTART =      0    0=no restart 2=restart with 2 vectors
   NREBOOT  =      0    no. of reboots
   NMIN     =      0    reboot dimension
   EREF     =   0.00    reference energy to select bands
   IMIX   =      4    mixing-type and parameters
     AMIX     =   0.40;   BMIX     =  1.00
     AMIX_MAG =   1.60;   BMIX_MAG =  1.00
     AMIN     =   0.10
     WC   =   100.;   INIMIX=   1;  MIXPRE=   1;  MAXMIX= -45

 Intra band minimization:
   WEIMIN = 0.0000     energy-eigenvalue tresh-hold
   EBREAK =  0.99E-08  absolut break condition
   DEPER  =   0.30     relativ break condition  

   TIME   =   0.40     timestep for ELM

  volume/ion in A,a.u.               =      29.51       199.16
  Fermi-wavevector in a.u.,A,eV,Ry     =   1.171362  2.213554 18.668409  1.372089
  Thomas-Fermi vector in A             =   2.307807
 
 Write flags
   LWAVE        =      F    write WAVECAR
   LDOWNSAMPLE  =      F    k-point downsampling of WAVECAR
   LCHARG       =      F    write CHGCAR
   LVTOT        =      F    write LOCPOT, total local potential
   LVHAR        =      F    write LOCPOT, Hartree potential only
   LELF         =      F    write electronic localiz. function (ELF)
   LORBIT       =     10    0 simple, 1 ext, 2 COOP (PROOUT), +10 PAW based schemes


 Dipole corrections
   LMONO  =      F    monopole corrections only (constant potential shift)
   LDIPOL =      F    correct potential (dipole corrections)
   IDIPOL =      0    1-x, 2-y, 3-z, 4-all directions 
   EPSILON=  1.0000000 bulk dielectric constant

 Exchange correlation treatment:
   GGA     =    --    GGA type
   LEXCH   =     8    internal setting for exchange type
   VOSKOWN=      0    Vosko Wilk Nusair interpolation
   LHFCALC =     F    Hartree Fock is set to
   LHFONE  =     F    Hartree Fock one center treatment
   AEXX    =    0.0000 exact exchange contribution

 Linear response parameters
   LEPSILON=     F    determine dielectric tensor
   LRPA    =     F    only Hartree local field effects (RPA)
   LNABLA  =     F    use nabla operator in PAW spheres
   LVEL    =     F    velocity operator in full k-point grid
   LINTERFAST=   F  fast interpolation
   KINTER  =     0    interpolate to denser k-point grid
   CSHIFT  =0.1000    complex shift for real part using Kramers Kronig
   OMEGAMAX=  -1.0    maximum frequency
   DEG_THRESHOLD= 0.2000000E-02 threshold for treating states as degnerate
   RTIME   =   -0.100 relaxation time in fs
  (WPLASMAI=    0.000 imaginary part of plasma frequency in eV, 0.658/RTIME)
   DFIELD  = 0.0000000 0.0000000 0.0000000 field for delta impulse in time
 
 Orbital magnetization related:
   ORBITALMAG=     F  switch on orbital magnetization
   LCHIMAG   =     F  perturbation theory with respect to B field
   DQ        =  0.001000  dq finite difference perturbation B field
   LLRAUG    =     F  two centre corrections for induced B field



--------------------------------------------------------------------------------------------------------


 Static calculation
 charge density and potential remain constant during run
 non-spin polarized calculation
 RMM-DIIS sequential band-by-band and
  variant of blocked Davidson during initial phase
 perform sub-space diagonalisation
    before iterative eigenvector-optimisation
 no mixing
 using additional bands           52
 real space projection scheme for non local part
 use partial core corrections
 calculate Harris-corrections to forces 
   (improved forces if not selfconsistent)
 use gradient corrections 
 WARNING: stress and forces are not correct
  (second derivative of E(xc) not defined)
 use of overlap-Matrix (Vanderbilt PP)
 Fermi weights with tetrahedron method with Bloechl corrections


--------------------------------------------------------------------------------------------------------


  energy-cutoff  :      500.00
  volume of cell :     1091.97
      direct lattice vectors                 reciprocal lattice vectors
     7.696786404  0.000000000  0.000000000     0.129924354 -0.075011849  0.000000000
     3.848392758  6.665612809  0.000000000     0.000000000  0.150023716  0.000000000
     0.000000000  0.000000000 21.284399033     0.000000000  0.000000000  0.046982769

  length of vectors
     7.696786404  7.696786404 21.284399033     0.150023716  0.150023716  0.046982769


 
 k-points in units of 2pi/SCALE and weight: Automatic mesh                          
   0.00000000  0.00000000  0.00000000       0.016
   0.01624054 -0.00937648  0.00000000       0.094
   0.03248109 -0.01875296  0.00000000       0.094
   0.04872163 -0.02812944  0.00000000       0.094
   0.06496218 -0.03750592  0.00000000       0.047
   0.03248109  0.00000000  0.00000000       0.094
   0.04872163 -0.00937648  0.00000000       0.188
   0.06496218 -0.01875296  0.00000000       0.188
   0.06496218  0.00000000  0.00000000       0.094
  -0.04872163  0.06563537  0.00000000       0.094
 
 k-points in reciprocal lattice and weights: Automatic mesh                          
   0.00000000  0.00000000  0.00000000       0.016
   0.12500000 -0.00000000  0.00000000       0.094
   0.25000000 -0.00000000  0.00000000       0.094
   0.37500000 -0.00000000  0.00000000       0.094
   0.50000000 -0.00000000  0.00000000       0.047
   0.25000000  0.12500000  0.00000000       0.094
   0.37500000  0.12500000  0.00000000       0.188
   0.50000000  0.12500000  0.00000000       0.188
   0.50000000  0.25000000  0.00000000       0.094
  -0.37500000  0.25000000  0.00000000       0.094
 
 position of ions in fractional coordinates (direct lattice) 
   0.00000000  0.00000000  0.25237075
   0.33333334  0.00000000  0.25237075
   0.66666669  0.00000000  0.25237075
   0.00000000  0.33333334  0.25237075
   0.33333331  0.33333334  0.25237075
   0.66666669  0.33333334  0.25237075
   0.00000000  0.66666669  0.25237075
   0.33333337  0.66666669  0.25237075
   0.66666663  0.66666669  0.25237075
   0.11111112  0.11111111  0.35079026
   0.44444442  0.11111111  0.35079026
   0.77777779  0.11111111  0.35079026
   0.11111112  0.44444445  0.35079026
   0.44444448  0.44444445  0.35079026
   0.77777773  0.44444445  0.35079026
   0.11111111  0.77777773  0.35079026
   0.44444448  0.77777773  0.35079026
   0.77777785  0.77777773  0.35079026
   0.88862856  0.22274289  0.44874829
   0.22172939  0.22172937  0.44828086
   0.55654128  0.22172937  0.44828086
   0.88870371  0.55564812  0.44904203
   0.22172936  0.55654122  0.44828086
   0.55564818  0.55564812  0.44904203
   0.88862856  0.88862856  0.44874829
   0.22274290  0.88862856  0.44874829
   0.55564812  0.88870371  0.44904203
   0.00000000  0.00000000  0.54591542
   0.33288384  0.99827612  0.54700580
   0.66884007  0.99827612  0.54700580
   0.99827612  0.33288384  0.54700580
   0.66884007  0.33288384  0.54700580
   0.99827612  0.66884007  0.54700580
   0.33288387  0.66884007  0.54700580
   0.66666663  0.66666669  0.54609793
   0.33333331  0.33333334  0.54662857
   0.33333331  0.33333334  0.63057164
 
 position of ions in cartesian coordinates  (Angst):
   0.00000000  0.00000000  5.37155964
   2.56559554  0.00000000  5.37155964
   5.13119109  0.00000000  5.37155964
   1.28279762  2.22187100  5.37155964
   3.84839293  2.22187100  5.37155964
   6.41398872  2.22187100  5.37155964
   2.56559525  4.44374201  5.37155964
   5.13119102  4.44374201  5.37155964
   7.69678588  4.44374201  5.37155964
   1.28279775  0.74062365  7.46635991
   3.84839295  0.74062365  7.46635991
   6.41398873  0.74062365  7.46635991
   2.56559535  2.96249461  7.46635991
   5.13119101  2.96249461  7.46635991
   7.69678586  2.96249461  7.46635991
   3.84839268  5.18436521  7.46635991
   6.41398840  5.18436521  7.46635991
   8.97958418  5.18436521  7.46635991
   7.69678637  1.48471784  9.55133768
   2.55990547  1.47796216  9.54138870
   5.13688108  1.47796216  9.54138870
   8.97851481  3.70373519  9.55758966
   3.84839272  3.70968829  9.54138870
   6.41505750  3.70373519  9.55758966
  10.25937598  5.92325394  9.55133768
   5.13419627  5.92325394  9.55133768
   7.69678578  5.92375483  9.55758966
   0.00000000  0.00000000 11.61948167
   6.40389441  6.65412207 11.64268966
   8.98967774  6.65412207 11.64268966
   8.96458581  2.21887481 11.64268966
   6.42898694  2.21887481 11.64268966
  10.25747732  4.45822895 11.64268966
   5.13609535  4.45822895 11.64268966
   7.69678588  4.44374201 11.62336616
   3.84839293  2.22187100 11.63466055
   3.84839293  2.22187100 13.42133842
 


--------------------------------------------------------------------------------------------------------


 k-point   1 :   0.0000 0.0000 0.0000  plane waves:   27671
 k-point   2 :   0.1250-0.0000 0.0000  plane waves:   27649
 k-point   3 :   0.2500-0.0000 0.0000  plane waves:   27714
 k-point   4 :   0.3750-0.0000 0.0000  plane waves:   27740
 k-point   5 :   0.5000-0.0000 0.0000  plane waves:   27782
 k-point   6 :   0.2500 0.1250 0.0000  plane waves:   27698
 k-point   7 :   0.3750 0.1250 0.0000  plane waves:   27702
 k-point   8 :   0.5000 0.1250 0.0000  plane waves:   27747
 k-point   9 :   0.5000 0.2500 0.0000  plane waves:   27734
 k-point  10 :  -0.3750 0.2500 0.0000  plane waves:   27782

 maximum and minimum number of plane-waves per node :     27782    27649

 maximum number of plane-waves:     27782
 maximum index in each direction: 
   IXMAX=   14   IYMAX=   14   IZMAX=   38
   IXMIN=  -14   IYMIN=  -14   IZMIN=  -38


 serial   3D FFT for wavefunctions
 parallel 3D FFT for charge:
    minimum data exchange during FFTs selected (reduces bandwidth)


 total amount of memory used by VASP MPI-rank0   104483. kBytes
=======================================================================

   base      :      30000. kBytes
   nonlr-proj:      17597. kBytes
   fftplans  :       2916. kBytes
   grid      :      12390. kBytes
   one-center:        575. kBytes
   wavefun   :      41005. kBytes
 
     INWAV:  cpu time    0.0000: real time    0.0000
 initial charge density was supplied:
 number of electron     399.9999926 magnetization 
 keeping initial charge density in first step


--------------------------------------------------------------------------------------------------------


 Maximum index for non-local projection operator         2777
 Maximum index for augmentation-charges          537 (set IRDMAX)


--------------------------------------------------------------------------------------------------------


 First call to EWALD:  gamma=   0.172
 Maximum number of real-space cells 4x 4x 2
 Maximum number of reciprocal cells 2x 2x 5

    FEWALD:  cpu time    0.0014: real time    0.0015


--------------------------------------- Iteration      1(   1)  ---------------------------------------


    POTLOK:  cpu time    0.0261: real time    0.0264
    SETDIJ:  cpu time    0.0042: real time    0.0043
     EDDAV:  cpu time    5.7121: real time    5.7142
 BZINTS: Fermi energy:   14.210205;  400.000000 electrons
         Band energy: 0.262622E+04;  BLOECHL correction:   -0.002382
       DOS:  cpu time    0.0101: real time    0.0102
    --------------------------------------------
      LOOP:  cpu time    5.7526: real time    5.7552

 eigenvalue-minimisations  :  5040
 total energy-change (2. order) : 0.3646870E+04  (-0.1728813E+05)
 number of electron     399.9999926 magnetization 
 augmentation part      399.9999926 magnetization 

 Free energy of the ion-electron system (eV)
  ---------------------------------------------------
  alpha Z        PSCENC =       883.44436124
  Ewald energy   TEWEN  =    147714.60213767
  -Hartree energ DENC   =   -195147.59898100
  -exchange      EXHF   =         0.00000000
  -V(xc)+E(xc)   XCENC  =      1568.94165050
  PAW double counting   =     46948.00190715   -50679.69228869
  entropy T*S    EENTRO =         0.00000000
  eigenvalues    EBANDS =      2626.21903207
  atomic energy  EATOM  =     49732.95234906
  Solvation  Ediel_sol  =         0.00000000
  ---------------------------------------------------
  free energy    TOTEN  =      3646.87016799 eV

  energy without entropy =     3646.87016799  energy(sigma->0) =     3646.87016799


--------------------------------------------------------------------------------------------------------




--------------------------------------- Iteration      1(   2)  ---------------------------------------


     EDDAV:  cpu time    5.6802: real time    5.6834
 BZINTS: Fermi energy:    3.194206;  400.000000 electrons
         Band energy:-0.645077E+03;  BLOECHL correction:   -0.007650
       DOS:  cpu time    0.0098: real time    0.0098
    --------------------------------------------
      LOOP:  cpu time    5.6899: real time    5.6931

 eigenvalue-minimisations  :  5040
 total energy-change (2. order) :-0.3271296E+04  (-0.3135948E+04)
 number of electron     399.9999926 magnetization 
 augmentation part      399.9999926 magnetization 

 Free energy of the ion-electron system (eV)
  ---------------------------------------------------
  alpha Z        PSCENC =       883.44436124
  Ewald energy   TEWEN  =    147714.60213767
  -Hartree energ DENC   =   -195147.59898100
  -exchange      EXHF   =         0.00000000
  -V(xc)+E(xc)   XCENC  =      1568.94165050
  PAW double counting   =     46948.00190715   -50679.69228869
  entropy T*S    EENTRO =         0.00000000
  eigenvalues    EBANDS =      -645.07651021
  atomic energy  EATOM  =     49732.95234906
  Solvation  Ediel_sol  =         0.00000000
  ---------------------------------------------------
  free energy    TOTEN  =       375.57462572 eV

  energy without entropy =      375.57462572  energy(sigma->0) =      375.57462572


--------------------------------------------------------------------------------------------------------




--------------------------------------- Iteration      1(   3)  ---------------------------------------


     EDDAV:  cpu time    6.2108: real time    6.2115
 BZINTS: Fermi energy:    0.327303;  400.000000 electrons
         Band energy:-0.112458E+04;  BLOECHL correction:   -0.092743
       DOS:  cpu time    0.0098: real time    0.0098
    --------------------------------------------
      LOOP:  cpu time    6.2206: real time    6.2213

 eigenvalue-minimisations  :  5600
 total energy-change (2. order) :-0.4795083E+03  (-0.4514012E+03)
 number of electron     399.9999926 magnetization 
 augmentation part      399.9999926 magnetization 

 Free energy of the ion-electron system (eV)
  ---------------------------------------------------
  alpha Z        PSCENC =       883.44436124
  Ewald energy   TEWEN  =    147714.60213767
  -Hartree energ DENC   =   -195147.59898100
  -exchange      EXHF   =         0.00000000
  -V(xc)+E(xc)   XCENC  =      1568.94165050
  PAW double counting   =     46948.00190715   -50679.69228869
  entropy T*S    EENTRO =         0.00000000
  eigenvalues    EBANDS =     -1124.58484384
  atomic energy  EATOM  =     49732.95234906
  Solvation  Ediel_sol  =         0.00000000
  ---------------------------------------------------
  free energy    TOTEN  =      -103.93370791 eV

  energy without entropy =     -103.93370791  energy(sigma->0) =     -103.93370791


--------------------------------------------------------------------------------------------------------




--------------------------------------- Iteration      1(   4)  ---------------------------------------


     EDDAV:  cpu time    7.7015: real time    7.7021
 BZINTS: Fermi energy:    0.024752;  400.000000 electrons
         Band energy:-0.115468E+04;  BLOECHL correction:   -0.041347
       DOS:  cpu time    0.0099: real time    0.0099
    --------------------------------------------
      LOOP:  cpu time    7.7114: real time    7.7120

 eigenvalue-minimisations  :  7252
 total energy-change (2. order) :-0.3009556E+02  (-0.2893790E+02)
 number of electron     399.9999926 magnetization 
 augmentation part      399.9999926 magnetization 

 Free energy of the ion-electron system (eV)
  ---------------------------------------------------
  alpha Z        PSCENC =       883.44436124
  Ewald energy   TEWEN  =    147714.60213767
  -Hartree energ DENC   =   -195147.59898100
  -exchange      EXHF   =         0.00000000
  -V(xc)+E(xc)   XCENC  =      1568.94165050
  PAW double counting   =     46948.00190715   -50679.69228869
  entropy T*S    EENTRO =         0.00000000
  eigenvalues    EBANDS =     -1154.68040624
  atomic energy  EATOM  =     49732.95234906
  Solvation  Ediel_sol  =         0.00000000
  ---------------------------------------------------
  free energy    TOTEN  =      -134.02927032 eV

  energy without entropy =     -134.02927032  energy(sigma->0) =     -134.02927032


--------------------------------------------------------------------------------------------------------




--------------------------------------- Iteration      1(   5)  ---------------------------------------


     EDDAV:  cpu time    6.3580: real time    6.3584
 BZINTS: Fermi energy:    0.009215;  400.000000 electrons
         Band energy:-0.115534E+04;  BLOECHL correction:   -0.044056
       DOS:  cpu time    0.0103: real time    0.0103
    --------------------------------------------
      LOOP:  cpu time    6.3683: real time    6.3688

 eigenvalue-minimisations  :  5768
 total energy-change (2. order) :-0.6644735E+00  (-0.6562595E+00)
 number of electron     399.9999926 magnetization 
 augmentation part      399.9999926 magnetization 

 Free energy of the ion-electron system (eV)
  ---------------------------------------------------
  alpha Z        PSCENC =       883.44436124
  Ewald energy   TEWEN  =    147714.60213767
  -Hartree energ DENC   =   -195147.59898100
  -exchange      EXHF   =         0.00000000
  -V(xc)+E(xc)   XCENC  =      1568.94165050
  PAW double counting   =     46948.00190715   -50679.69228869
  entropy T*S    EENTRO =         0.00000000
  eigenvalues    EBANDS =     -1155.34487976
  atomic energy  EATOM  =     49732.95234906
  Solvation  Ediel_sol  =         0.00000000
  ---------------------------------------------------
  free energy    TOTEN  =      -134.69374384 eV

  energy without entropy =     -134.69374384  energy(sigma->0) =     -134.69374384


--------------------------------------------------------------------------------------------------------




--------------------------------------- Iteration      1(   6)  ---------------------------------------


    EDDIAG:  cpu time    1.0549: real time    1.0553
  RMM-DIIS:  cpu time    3.0940: real time    3.0942
    ORTHCH:  cpu time    0.2081: real time    0.2081
 BZINTS: Fermi energy:    0.008997;  400.000000 electrons
         Band energy:-0.115536E+04;  BLOECHL correction:   -0.044075
       DOS:  cpu time    0.0103: real time    0.0103
    --------------------------------------------
      LOOP:  cpu time    4.3673: real time    4.3679

 eigenvalue-minimisations  :  5391
 total energy-change (2. order) :-0.1232212E-01  (-0.1230634E-01)
 number of electron     399.9999926 magnetization 
 augmentation part      399.9999926 magnetization 

 Free energy of the ion-electron system (eV)
  ---------------------------------------------------
  alpha Z        PSCENC =       883.44436124
  Ewald energy   TEWEN  =    147714.60213767
  -Hartree energ DENC   =   -195147.59898100
  -exchange      EXHF   =         0.00000000
  -V(xc)+E(xc)   XCENC  =      1568.94165050
  PAW double counting   =     46948.00190715   -50679.69228869
  entropy T*S    EENTRO =         0.00000000
  eigenvalues    EBANDS =     -1155.35720189
  atomic energy  EATOM  =     49732.95234906
  Solvation  Ediel_sol  =         0.00000000
  ---------------------------------------------------
  free energy    TOTEN  =      -134.70606596 eV

  energy without entropy =     -134.70606596  energy(sigma->0) =     -134.70606596


--------------------------------------------------------------------------------------------------------




--------------------------------------- Iteration      1(   7)  ---------------------------------------


    EDDIAG:  cpu time    1.0555: real time    1.0556
  RMM-DIIS:  cpu time    4.4484: real time    4.4486
    ORTHCH:  cpu time    0.2082: real time    0.2082
 BZINTS: Fermi energy:    0.008925;  400.000000 electrons
         Band energy:-0.115536E+04;  BLOECHL correction:   -0.044087
       DOS:  cpu time    0.0101: real time    0.0101
    --------------------------------------------
      LOOP:  cpu time    5.7222: real time    5.7225

 eigenvalue-minimisations  :  7800
 total energy-change (2. order) :-0.5538148E-02  (-0.5529045E-02)
 number of electron     399.9999926 magnetization 
 augmentation part      399.9999926 magnetization 

 Free energy of the ion-electron system (eV)
  ---------------------------------------------------
  alpha Z        PSCENC =       883.44436124
  Ewald energy   TEWEN  =    147714.60213767
  -Hartree energ DENC   =   -195147.59898100
  -exchange      EXHF   =         0.00000000
  -V(xc)+E(xc)   XCENC  =      1568.94165050
  PAW double counting   =     46948.00190715   -50679.69228869
  entropy T*S    EENTRO =         0.00000000
  eigenvalues    EBANDS =     -1155.36274004
  atomic energy  EATOM  =     49732.95234906
  Solvation  Ediel_sol  =         0.00000000
  ---------------------------------------------------
  free energy    TOTEN  =      -134.71160411 eV

  energy without entropy =     -134.71160411  energy(sigma->0) =     -134.71160411


--------------------------------------------------------------------------------------------------------




--------------------------------------- Iteration      1(   8)  ---------------------------------------


    EDDIAG:  cpu time    1.0572: real time    1.0574
  RMM-DIIS:  cpu time    4.2230: real time    4.2232
    ORTHCH:  cpu time    0.2075: real time    0.2075
 BZINTS: Fermi energy:    0.008919;  400.000000 electrons
         Band energy:-0.115536E+04;  BLOECHL correction:   -0.044086
       DOS:  cpu time    0.0101: real time    0.0101
    --------------------------------------------
      LOOP:  cpu time    5.4977: real time    5.4982

 eigenvalue-minimisations  :  7501
 total energy-change (2. order) :-0.5084951E-03  (-0.5417338E-03)
 number of electron     399.9999926 magnetization 
 augmentation part      399.9999926 magnetization 

 Free energy of the ion-electron system (eV)
  ---------------------------------------------------
  alpha Z        PSCENC =       883.44436124
  Ewald energy   TEWEN  =    147714.60213767
  -Hartree energ DENC   =   -195147.59898100
  -exchange      EXHF   =         0.00000000
  -V(xc)+E(xc)   XCENC  =      1568.94165050
  PAW double counting   =     46948.00190715   -50679.69228869
  entropy T*S    EENTRO =         0.00000000
  eigenvalues    EBANDS =     -1155.36324853
  atomic energy  EATOM  =     49732.95234906
  Solvation  Ediel_sol  =         0.00000000
  ---------------------------------------------------
  free energy    TOTEN  =      -134.71211261 eV

  energy without entropy =     -134.71211261  energy(sigma->0) =     -134.71211261


--------------------------------------------------------------------------------------------------------




--------------------------------------- Iteration      1(   9)  ---------------------------------------


    EDDIAG:  cpu time    1.0548: real time    1.0549
  RMM-DIIS:  cpu time    4.4521: real time    4.4523
    ORTHCH:  cpu time    0.2079: real time    0.2079
 BZINTS: Fermi energy:    0.008918;  400.000000 electrons
         Band energy:-0.115536E+04;  BLOECHL correction:   -0.044086
       DOS:  cpu time    0.0099: real time    0.0099
    --------------------------------------------
      LOOP:  cpu time    5.7247: real time    5.7250

 eigenvalue-minimisations  :  7917
 total energy-change (2. order) :-0.1202704E-03  (-0.1213114E-03)
 number of electron     399.9999926 magnetization 
 augmentation part      399.9999926 magnetization 

 Free energy of the ion-electron system (eV)
  ---------------------------------------------------
  alpha Z        PSCENC =       883.44436124
  Ewald energy   TEWEN  =    147714.60213767
  -Hartree energ DENC   =   -195147.59898100
  -exchange      EXHF   =         0.00000000
  -V(xc)+E(xc)   XCENC  =      1568.94165050
  PAW double counting   =     46948.00190715   -50679.69228869
  entropy T*S    EENTRO =         0.00000000
  eigenvalues    EBANDS =     -1155.36336880
  atomic energy  EATOM  =     49732.95234906
  Solvation  Ediel_sol  =         0.00000000
  ---------------------------------------------------
  free energy    TOTEN  =      -134.71223288 eV

  energy without entropy =     -134.71223288  energy(sigma->0) =     -134.71223288


--------------------------------------------------------------------------------------------------------




--------------------------------------- Iteration      1(  10)  ---------------------------------------


    EDDIAG:  cpu time    1.0550: real time    1.0553
  RMM-DIIS:  cpu time    4.1139: real time    4.1141
    ORTHCH:  cpu time    0.2079: real time    0.2079
 BZINTS: Fermi energy:    0.008918;  400.000000 electrons
         Band energy:-0.115536E+04;  BLOECHL correction:   -0.044086
       DOS:  cpu time    0.0101: real time    0.0101
    --------------------------------------------
      LOOP:  cpu time    5.3870: real time    5.3875

 eigenvalue-minimisations  :  7101
 total energy-change (2. order) :-0.2960983E-04  (-0.3002957E-04)
 number of electron     399.9999926 magnetization 
 augmentation part      399.9999926 magnetization 

 Free energy of the ion-electron system (eV)
  ---------------------------------------------------
  alpha Z        PSCENC =       883.44436124
  Ewald energy   TEWEN  =    147714.60213767
  -Hartree energ DENC   =   -195147.59898100
  -exchange      EXHF   =         0.00000000
  -V(xc)+E(xc)   XCENC  =      1568.94165050
  PAW double counting   =     46948.00190715   -50679.69228869
  entropy T*S    EENTRO =         0.00000000
  eigenvalues    EBANDS =     -1155.36339841
  atomic energy  EATOM  =     49732.95234906
  Solvation  Ediel_sol  =         0.00000000
  ---------------------------------------------------
  free energy    TOTEN  =      -134.71226249 eV

  energy without entropy =     -134.71226249  energy(sigma->0) =     -134.71226249


--------------------------------------------------------------------------------------------------------




--------------------------------------- Iteration      1(  11)  ---------------------------------------


    EDDIAG:  cpu time    1.0555: real time    1.0558
  RMM-DIIS:  cpu time    3.0471: real time    3.0472
    ORTHCH:  cpu time    0.2078: real time    0.2078
 BZINTS: Fermi energy:    0.008918;  400.000000 electrons
         Band energy:-0.115536E+04;  BLOECHL correction:   -0.044086
       DOS:  cpu time    0.0104: real time    0.0104
    --------------------------------------------
      LOOP:  cpu time    4.3208: real time    4.3213

 eigenvalue-minimisations  :  4802
 total energy-change (2. order) :-0.5783921E-05  (-0.5900598E-05)
 number of electron     399.9999926 magnetization 
 augmentation part      399.9999926 magnetization 

 Free energy of the ion-electron system (eV)
  ---------------------------------------------------
  alpha Z        PSCENC =       883.44436124
  Ewald energy   TEWEN  =    147714.60213767
  -Hartree energ DENC   =   -195147.59898100
  -exchange      EXHF   =         0.00000000
  -V(xc)+E(xc)   XCENC  =      1568.94165050
  PAW double counting   =     46948.00190715   -50679.69228869
  entropy T*S    EENTRO =         0.00000000
  eigenvalues    EBANDS =     -1155.36340420
  atomic energy  EATOM  =     49732.95234906
  Solvation  Ediel_sol  =         0.00000000
  ---------------------------------------------------
  free energy    TOTEN  =      -134.71226827 eV

  energy without entropy =     -134.71226827  energy(sigma->0) =     -134.71226827


--------------------------------------------------------------------------------------------------------




 average (electrostatic) potential at core
  the test charge radii are     0.9430  1.1806  0.7215
  (the norm of the test charge is              1.0000)
       1 -70.9761       2 -70.9640       3 -70.9639       4 -70.9640       5 -70.9669
       6 -70.9636       7 -70.9639       8 -70.9636       9 -70.9941      10 -71.2395
      11 -71.2141      12 -71.2391      13 -71.2140      14 -71.2136      15 -71.2261
      16 -71.2391      17 -71.2261      18 -71.2261      19 -71.2300      20 -71.2419
      21 -71.2413      22 -71.2353      23 -71.2413      24 -71.2349      25 -71.2298
      26 -71.2300      27 -71.2353      28 -70.9074      29 -70.9542      30 -70.9540
      31 -70.9542      32 -70.9538      33 -70.9540      34 -70.9538      35 -70.9394
      36 -73.7092      37 -75.6677
 
 
 
 E-fermi :   0.0089     XC(G=0):  -5.9307     alpha+bet : -5.3847

 Fermi energy:         0.0089179382

 k-point     1 :       0.0000    0.0000    0.0000
  band No.  band energies     occupation 
      1     -17.6132      2.00000
      2      -8.7983      2.00000
      3      -7.4910      2.00000
      4      -5.9428      2.00000
      5      -5.8396      2.00000
      6      -5.8394      2.00000
      7      -5.8150      2.00000
      8      -5.8148      2.00000
      9      -5.8052      2.00000
     10      -5.7423      2.00000
     11      -5.2100      2.00000
     12      -5.0973      2.00000
     13      -5.0972      2.00000
     14      -5.0586      2.00000
     15      -5.0585      2.00000
     16      -5.0398      2.00000
     17      -4.9479      2.00000
     18      -4.6856      2.00000
     19      -4.5037      2.00000
     20      -4.5037      2.00000
     21      -4.4175      2.00000
     22      -4.4175      2.00000
     23      -4.3319      2.00000
     24      -4.3186      2.00000
     25      -4.3185      2.00000
     26      -4.2648      2.00000
     27      -4.0520      2.00000
     28      -4.0519      2.00000
     29      -4.0309      2.00000
     30      -4.0306      2.00000
     31      -4.0305      2.00000
     32      -3.9944      2.00000
     33      -3.9239      2.00000
     34      -3.9239      2.00000
     35      -3.8609      2.00000
     36      -3.8609      2.00000
     37      -3.8571      2.00000
     38      -3.8473      2.00000
     39      -3.8473      2.00000
     40      -3.8458      2.00000
     41      -3.8055      2.00000
     42      -3.7917      2.00000
     43      -3.7917      2.00000
     44      -3.7596      2.00000
     45      -3.7191      2.00000
     46      -3.7191      2.00000
     47      -3.6993      2.00000
     48      -3.6992      2.00000
     49      -3.6042      2.00000
     50      -3.5795      2.00000
     51      -3.5454      2.00000
     52      -3.5453      2.00000
     53      -3.5202      2.00000
     54      -3.5066      2.00000
     55      -3.4731      2.00000
     56      -3.4249      2.00000
     57      -3.4249      2.00000
     58      -3.3874      2.00000
     59      -3.1835      2.00000
     60      -3.1835      2.00000
     61      -3.1697      2.00000
     62      -3.1584      2.00000
     63      -3.1119      2.00000
     64      -3.1119      2.00000
     65      -3.0820      2.00000
     66      -3.0820      2.00000
     67      -3.0696      2.00000
     68      -3.0696      2.00000
     69      -3.0362      2.00000
     70      -3.0243      2.00000
     71      -3.0242      2.00000
     72      -3.0148      2.00000
     73      -3.0006      2.00000
     74      -2.9904      2.00000
     75      -2.9904      2.00000
     76      -2.9295      2.00000
     77      -2.9295      2.00000
     78      -2.9212      2.00000
     79      -2.8782      2.00000
     80      -2.8782      2.00000
     81      -2.8251      2.00000
     82      -2.8251      2.00000
     83      -2.8202      2.00000
     84      -2.8096      2.00000
     85      -2.8096      2.00000
     86      -2.7772      2.00000
     87      -2.7426      2.00000
     88      -2.7425      2.00000
     89      -2.7350      2.00000
     90      -2.7336      2.00000
     91      -2.7335      2.00000
     92      -2.7296      2.00000
     93      -2.6940      2.00000
     94      -2.6940      2.00000
     95      -2.6718      2.00000
     96      -2.6718      2.00000
     97      -2.6537      2.00000
     98      -2.6537      2.00000
     99      -2.6418      2.00000
    100      -2.6418      2.00000
    101      -2.6301      2.00000
    102      -2.6205      2.00000
    103      -2.6204      2.00000
    104      -2.5903      2.00000
    105      -2.5903      2.00000
    106      -2.5747      2.00000
    107      -2.5747      2.00000
    108      -2.5733      2.00000
    109      -2.4481      2.00000
    110      -2.4480      2.00000
    111      -2.4264      2.00000
    112      -2.3277      2.00000
    113      -2.3257      2.00000
    114      -2.3236      2.00000
    115      -2.3236      2.00000
    116      -2.3219      2.00000
    117      -2.3218      2.00000
    118      -2.3149      2.00000
    119      -2.3149      2.00000
    120      -2.3129      2.00000
    121      -2.2953      2.00000
    122      -2.2768      2.00000
    123      -2.2622      2.00000
    124      -2.2181      2.00000
    125      -2.2181      2.00000
    126      -2.1276      2.00000
    127      -2.1276      2.00000
    128      -2.1211      2.00000
    129      -2.1210      2.00000
    130      -2.0928      2.00000
    131      -2.0915      2.00000
    132      -2.0915      2.00000
    133      -2.0691      2.00000
    134      -2.0691      2.00000
    135      -2.0553      2.00000
    136      -2.0171      2.00000
    137      -2.0117      2.00000
    138      -2.0116      2.00000
    139      -2.0078      2.00000
    140      -2.0059      2.00000
    141      -2.0058      2.00000
    142      -1.9790      2.00000
    143      -1.9789      2.00000
    144      -1.8886      2.00000
    145      -1.8885      2.00000
    146      -1.8705      2.00000
    147      -1.8705      2.00000
    148      -1.8656      2.00000
    149      -1.8622      2.00000
    150      -1.8534      2.00000
    151      -1.8533      2.00000
    152      -1.8519      2.00000
    153      -1.8441      2.00000
    154      -1.8440      2.00000
    155      -1.8042      2.00000
    156      -1.8016      2.00000
    157      -1.8015      2.00000
    158      -1.7346      2.00000
    159      -1.7329      2.00000
    160      -1.7310      2.00000
    161      -1.7276      2.00000
    162      -1.7276      2.00000
    163      -1.7218      2.00000
    164      -1.7137      2.00000
    165      -1.7137      2.00000
    166      -1.6995      2.00000
    167      -1.6995      2.00000
    168      -1.6742      2.00000
    169      -1.6742      2.00000
    170      -1.6741      2.00000
    171      -1.6622      2.00000
    172      -1.6598      2.00000
    173      -1.6568      2.00000
    174      -1.6568      2.00000
    175      -1.6495      2.00000
    176      -1.6495      2.00000
    177      -1.6460      2.00000
    178      -1.6460      2.00000
    179      -1.6419      2.00000
    180      -1.6419      2.00000
    181      -1.6418      2.00000
    182      -1.6388      2.00000
    183      -1.6327      2.00000
    184      -1.6223      2.00000
    185      -1.6089      2.00000
    186      -1.6089      2.00000
    187      -1.5584      2.00000
    188      -1.5583      2.00000
    189      -1.5396      2.00000
    190      -1.5396      2.00000
    191      -1.5210      2.00000
    192      -1.5129      2.00000
    193      -1.5115      2.00000
    194      -1.5114      2.00000
    195      -1.1090      2.00000
    196      -1.0885      2.00000
    197      -1.0885      2.00000
    198      -0.6700      2.00000
    199      -0.3999      2.00000
    200      -0.3998      2.00000
    201      -0.3236      2.00000
    202      -0.3061      2.00000
    203      -0.3060      2.83369
    204      -0.0641      1.42749
    205       0.1829      0.00000
    206       0.1830      0.00000
    207       1.1322      0.00000
    208       2.0154      0.00000
    209       2.0252      0.00000
    210       2.0253      0.00000
    211       2.2262      0.00000
    212       2.2262      0.00000
    213       3.3899      0.00000
    214       3.4152      0.00000
    215       3.5879      0.00000
    216       3.6792      0.00000
    217       3.6792      0.00000
    218       3.8056      0.00000
    219       3.8056      0.00000
    220       4.5008      0.00000
    221       4.5040      0.00000
    222       4.5040      0.00000
    223       4.5367      0.00000
    224       4.5367      0.00000
    225       4.5528      0.00000
    226       4.7719      0.00000
    227       4.7719      0.00000
    228       4.8763      0.00000
    229       4.8764      0.00000
    230       4.9520      0.00000
    231       5.1591      0.00000
    232       5.3615      0.00000
    233       5.6978      0.00000
    234       6.1600      0.00000
    235       6.3028      0.00000
    236       6.3259      0.00000
    237       6.3260      0.00000
    238       6.5812      0.00000
    239       6.5812      0.00000
    240       6.9098      0.00000
    241       6.9098      0.00000
    242       6.9140      0.00000
    243       7.0195      0.00000
    244       7.0196      0.00000
    245       7.0876      0.00000
    246       7.4537      0.00000
    247       7.5138      0.00000
    248       7.5377      0.00000
    249       7.5395      0.00000
    250       7.6064      0.00000
    251       7.6078      0.00000
    252       7.6442      0.00000

 k-point     2 :       0.1250   -0.0000    0.0000
  band No.  band energies     occupation 
      1     -17.6132      2.00000
      2      -8.7432      2.00000
      3      -7.4379      2.00000
      4      -6.3771      2.00000
      5      -6.0668      2.00000
      6      -6.0556      2.00000
      7      -5.8534      2.00000
      8      -5.5441      2.00000
      9      -5.5201      2.00000
     10      -5.3913      2.00000
     11      -5.3481      2.00000
     12      -5.2071      2.00000
     13      -5.1968      2.00000
     14      -5.0915      2.00000
     15      -4.9376      2.00000
     16      -4.8852      2.00000
     17      -4.8477      2.00000
     18      -4.6999      2.00000
     19      -4.4934      2.00000
     20      -4.4902      2.00000
     21      -4.4228      2.00000
     22      -4.4086      2.00000
     23      -4.3409      2.00000
     24      -4.3135      2.00000
     25      -4.3076      2.00000
     26      -4.2511      2.00000
     27      -4.0954      2.00000
     28      -4.0581      2.00000
     29      -4.0436      2.00000
     30      -4.0110      2.00000
     31      -4.0020      2.00000
     32      -3.9855      2.00000
     33      -3.9676      2.00000
     34      -3.9674      2.00000
     35      -3.9367      2.00000
     36      -3.9325      2.00000
     37      -3.9113      2.00000
     38      -3.8967      2.00000
     39      -3.8332      2.00000
     40      -3.8262      2.00000
     41      -3.8015      2.00000
     42      -3.7657      2.00000
     43      -3.7561      2.00000
     44      -3.7253      2.00000
     45      -3.7118      2.00000
     46      -3.7006      2.00000
     47      -3.6567      2.00000
     48      -3.6554      2.00000
     49      -3.6150      2.00000
     50      -3.5987      2.00000
     51      -3.5631      2.00000
     52      -3.5444      2.00000
     53      -3.5221      2.00000
     54      -3.4672      2.00000
     55      -3.4519      2.00000
     56      -3.4156      2.00000
     57      -3.4025      2.00000
     58      -3.3785      2.00000
     59      -3.2552      2.00000
     60      -3.2334      2.00000
     61      -3.2180      2.00000
     62      -3.1721      2.00000
     63      -3.1374      2.00000
     64      -3.1151      2.00000
     65      -3.1069      2.00000
     66      -3.0910      2.00000
     67      -3.0767      2.00000
     68      -3.0729      2.00000
     69      -3.0491      2.00000
     70      -3.0295      2.00000
     71      -3.0140      2.00000
     72      -3.0068      2.00000
     73      -2.9912      2.00000
     74      -2.9876      2.00000
     75      -2.9690      2.00000
     76      -2.9450      2.00000
     77      -2.9231      2.00000
     78      -2.9106      2.00000
     79      -2.8637      2.00000
     80      -2.8519      2.00000
     81      -2.8456      2.00000
     82      -2.8454      2.00000
     83      -2.8270      2.00000
     84      -2.7998      2.00000
     85      -2.7980      2.00000
     86      -2.7763      2.00000
     87      -2.7736      2.00000
     88      -2.7571      2.00000
[...]
  0.000   0.000   0.000   0.000   0.000   0.000   0.000   0.000   0.000   0.000   0.000   0.000   0.000   0.000   0.000   0.000
  0.000   0.000   0.000   0.000   0.000   0.000   0.000   0.000   0.000   0.000   0.000   0.000   0.000   0.000   0.000   0.000
  0.000   0.000   0.000   0.000   0.000   0.000   0.000   0.000   0.000   0.000   0.000   0.000   0.000   0.000   0.000   0.000
  0.000   0.000   0.000   0.000   0.000   0.000   0.000   0.000   0.000   0.000   0.000   0.000   0.000   0.000   0.000   0.000
  0.000   0.000   0.000   0.000   0.000   0.000   0.000   0.000   0.000   0.000   0.000   0.000   0.000   0.000   0.000   0.000
  0.000   0.000   0.000   0.000   0.000   0.000   0.000   0.000   0.000   0.000   1.000   0.000   0.000   0.000   0.000   0.000
  0.000   0.000   0.000   0.000   0.000   0.000   0.000   0.000   0.000   0.000   0.000   0.000   0.000   0.000   0.000   0.000
  0.000   0.000   0.000   0.000   0.000   0.000   0.000   0.000   0.000   0.000   0.000   0.000   0.000   0.000   0.000   0.000
  0.000   0.000   0.000   0.000   0.000   0.000   0.000   0.000   0.000   0.000   0.000   0.000   0.000   0.000   0.000   0.000
  0.000   0.000   0.000   0.000   0.000   0.000   0.000   0.000   0.000   0.000   0.000   0.000   0.000   0.000   0.000   0.000
  0.000   0.000   0.000   0.000   0.000   0.000   0.000   0.000   0.000   0.000   0.000   0.000   0.000   0.000   0.000   0.000
  0.000   0.000   0.000   0.000   0.000   0.000   0.000   0.000   0.000   0.000   0.000   0.000   0.000   0.000   0.000   0.000
  0.000   0.000   0.000   0.000   0.000   0.000   0.000   0.000   0.000   0.000   0.000   0.000   0.000   0.000   0.000   0.000


------------------------ aborting loop because EDIFF is reached ----------------------------------------





 total charge

# of ion       s       p       d       tot
------------------------------------------
    1        0.449   0.282   9.191   9.922
    2        0.449   0.284   9.187   9.921
    3        0.449   0.284   9.187   9.921
    4        0.449   0.284   9.187   9.921
    5        0.449   0.287   9.184   9.920
    6        0.449   0.284   9.187   9.921
    7        0.449   0.284   9.187   9.921
    8        0.449   0.284   9.187   9.921
    9        0.446   0.284   9.185   9.915
   10        0.443   0.371   9.180   9.993
   11        0.441   0.370   9.181   9.992
   12        0.443   0.371   9.180   9.993
   13        0.441   0.370   9.181   9.992
   14        0.441   0.370   9.181   9.992
   15        0.440   0.367   9.184   9.991
   16        0.443   0.371   9.180   9.993
   17        0.440   0.367   9.184   9.991
   18        0.440   0.367   9.184   9.991
   19        0.441   0.373   9.180   9.994
   20        0.454   0.384   9.175  10.013
   21        0.454   0.384   9.175  10.013
   22        0.436   0.369   9.185   9.990
   23        0.454   0.384   9.175  10.013
   24        0.436   0.369   9.185   9.990
   25        0.441   0.373   9.180   9.994
   26        0.441   0.373   9.180   9.994
   27        0.436   0.369   9.185   9.990
   28        0.457   0.286   9.196   9.939
   29        0.441   0.294   9.194   9.929
   30        0.441   0.294   9.194   9.929
   31        0.441   0.294   9.194   9.929
   32        0.441   0.294   9.194   9.929
   33        0.441   0.294   9.194   9.929
   34        0.441   0.294   9.194   9.929
   35        0.449   0.290   9.192   9.931
   36        0.560   0.650   7.438   8.648
   37        1.604   3.205   0.000   4.809
--------------------------------------------------
tot         17.722  15.458 328.924 362.104
 
    CHARGE:  cpu time    0.2126: real time    0.2127
    FORLOC:  cpu time    0.0074: real time    0.0074
    FORNL :  cpu time    1.1901: real time    1.1903
    STRESS:  cpu time    3.5218: real time    3.5221
    FORCOR:  cpu time    0.0279: real time    0.0279
    FORHAR:  cpu time    0.0117: real time    0.0117
    OFIELD:  cpu time    0.0001: real time    0.0001

  FORCE on cell =-STRESS in cart. coord.  units (eV):
  Direction    XX          YY          ZZ          XY          YZ          ZX
  --------------------------------------------------------------------------------------
  Alpha Z   883.44436   883.44436   883.44436
  Ewald  173801.80305173801.80262************     0.00040     0.00012     0.00019
  Hartree186900.45053186900.45050************     0.00004     0.00006     0.00008
  E(xc)   -2319.73204 -2319.73159 -2323.68144    -0.00039    -0.00004    -0.00006
  Local  ************************373971.77000     0.01879    -0.00059    -0.00099
  n-local  -781.27365  -765.63667  -779.39190     8.55102    -0.05441     0.34519
  augment  3373.61577  3373.63608  3384.89704    -0.01759     0.00024     0.00043
  Kinetic  3374.31438  3378.71174  3381.93673     3.31630     1.89579    -1.12771
  Fock        0.00000     0.00000     0.00000     0.00000     0.00000     0.00000
  -------------------------------------------------------------------------------------
  Total      -2.05132    -2.05132     3.36879     0.00000    -0.00000    -0.00000
  in kB      -3.00976    -3.00976     4.94280     0.00000    -0.00000    -0.00000
  external pressure =       -0.36 kB  Pullay stress =        0.00 kB


 VOLUME and BASIS-vectors are now :
 -----------------------------------------------------------------------------
  energy-cutoff  :      500.00
  volume of cell :     1091.97
      direct lattice vectors                 reciprocal lattice vectors
     7.696786404  0.000000000  0.000000000     0.129924354 -0.075011849  0.000000000
     3.848392758  6.665612809  0.000000000     0.000000000  0.150023716  0.000000000
     0.000000000  0.000000000 21.284399033     0.000000000  0.000000000  0.046982769

  length of vectors
     7.696786404  7.696786404 21.284399033     0.150023716  0.150023716  0.046982769


 FORCES acting on ions
    electron-ion (+dipol)            ewald-force                    non-local-force                 convergence-correction
 -----------------------------------------------------------------------------------------------
   -.416E-04 0.151E-06 0.350E+04   0.579E-04 -.438E-05 -.350E+04   0.888E-18 0.177E-18 -.276E+01   -.410E-03 -.204E-03 -.478E+00
   -.320E+00 0.810E-01 0.350E+04   0.193E+00 0.310E-01 -.350E+04   0.503E-01 0.604E-01 -.188E+01   0.791E-01 -.146E+00 -.378E+00
   0.320E+00 0.810E-01 0.350E+04   -.193E+00 0.309E-01 -.350E+04   -.503E-01 0.604E-01 -.188E+01   -.782E-01 -.144E+00 -.377E+00
   -.897E-01 -.317E+00 0.350E+04   0.123E+00 0.152E+00 -.350E+04   0.775E-01 0.134E-01 -.188E+01   -.870E-01 0.142E+00 -.378E+00
   -.655E-04 -.560E-05 0.350E+04   0.116E-03 -.101E-04 -.350E+04   0.165E-17 0.148E-17 -.173E+01   0.123E-01 0.751E-02 -.417E+00
   0.897E-01 -.317E+00 0.350E+04   -.123E+00 0.152E+00 -.350E+04   -.775E-01 0.134E-01 -.188E+01   0.852E-01 0.143E+00 -.377E+00
   0.230E+00 0.236E+00 0.350E+04   -.698E-01 -.183E+00 -.350E+04   0.271E-01 -.738E-01 -.188E+01   -.163E+00 0.403E-02 -.377E+00
   -.230E+00 0.236E+00 0.350E+04   0.695E-01 -.183E+00 -.350E+04   -.271E-01 -.738E-01 -.188E+01   0.167E+00 0.247E-02 -.377E+00
   -.144E-03 -.330E-04 0.350E+04   0.263E-03 0.205E-04 -.350E+04   0.370E-17 0.401E-18 -.233E+01   -.132E-01 -.684E-02 -.360E+00
   0.334E+00 0.193E+00 0.120E+04   0.102E+00 0.590E-01 -.120E+04   -.426E+00 -.246E+00 -.113E+01   -.245E-02 -.143E-02 0.118E+00
   -.909E-04 -.500E+00 0.120E+04   0.190E-03 0.592E+00 -.119E+04   -.865E-08 0.130E+00 -.383E+00   0.123E-01 -.240E+00 0.126E+00
   -.334E+00 0.193E+00 0.120E+04   -.102E+00 0.590E-01 -.120E+04   0.426E+00 -.246E+00 -.113E+01   0.260E-05 0.742E-03 0.120E+00
   -.433E+00 0.250E+00 0.120E+04   0.513E+00 -.296E+00 -.119E+04   0.112E+00 -.649E-01 -.383E+00   -.202E+00 0.132E+00 0.126E+00
   0.433E+00 0.250E+00 0.120E+04   -.513E+00 -.296E+00 -.119E+04   -.112E+00 -.649E-01 -.383E+00   0.226E+00 0.130E+00 0.126E+00
   -.142E-03 -.141E+01 0.120E+04   0.298E-03 0.113E+01 -.120E+04   -.841E-08 0.126E+00 -.862E+00   -.434E-02 0.142E+00 0.397E-01
   -.917E-04 -.386E+00 0.120E+04   0.186E-03 -.118E+00 -.120E+04   -.328E-07 0.492E+00 -.113E+01   -.286E-03 -.158E-02 0.120E+00
   -.122E+01 0.705E+00 0.120E+04   0.982E+00 -.567E+00 -.120E+04   0.109E+00 -.632E-01 -.862E+00   0.122E+00 -.748E-01 0.396E-01
   0.122E+01 0.705E+00 0.120E+04   -.982E+00 -.567E+00 -.120E+04   -.109E+00 -.632E-01 -.862E+00   -.120E+00 -.712E-01 0.411E-01
   -.588E-04 -.553E+00 -.112E+04   0.678E-04 0.381E+00 0.112E+04   -.700E-08 0.105E+00 0.767E+00   -.146E-01 0.454E-01 0.588E+00
   -.181E+02 -.105E+02 -.113E+04   0.192E+02 0.111E+02 0.113E+04   -.107E+01 -.621E+00 -.323E+00   0.464E-01 0.267E-01 0.733E+00
   0.181E+02 -.105E+02 -.113E+04   -.192E+02 0.111E+02 0.113E+04   0.107E+01 -.621E+00 -.323E+00   -.204E-01 0.272E-01 0.733E+00
   -.999E+01 0.577E+01 -.113E+04   0.968E+01 -.559E+01 0.112E+04   0.383E+00 -.221E+00 0.104E+01   -.459E-01 0.276E-01 0.596E+00
   -.784E-04 0.209E+02 -.113E+04   0.146E-03 -.221E+02 0.113E+04   -.826E-07 0.124E+01 -.323E+00   0.122E-01 -.324E-01 0.733E+00
   0.999E+01 0.577E+01 -.113E+04   -.968E+01 -.559E+01 0.112E+04   -.383E+00 -.221E+00 0.104E+01   0.435E-01 0.242E-01 0.596E+00
   0.479E+00 0.277E+00 -.112E+04   -.330E+00 -.191E+00 0.112E+04   -.910E-01 -.526E-01 0.767E+00   -.541E-01 -.312E-01 0.588E+00
   -.479E+00 0.277E+00 -.112E+04   0.330E+00 -.191E+00 0.112E+04   0.910E-01 -.526E-01 0.767E+00   0.323E-01 -.351E-01 0.588E+00
   -.127E-03 -.115E+02 -.113E+04   0.244E-03 0.112E+02 0.112E+04   -.294E-07 0.442E+00 0.104E+01   0.860E-03 -.536E-01 0.596E+00
   -.325E-04 0.190E-04 -.342E+04   0.374E-04 -.339E-04 0.342E+04   -.248E-17 0.268E-17 0.207E+01   -.717E-03 -.362E-03 0.579E+00
   -.392E+01 -.387E+01 -.341E+04   0.316E+01 0.215E+01 0.341E+04   0.538E+00 0.135E+01 0.270E+01   0.946E-01 0.122E+00 0.524E+00
   0.392E+01 -.387E+01 -.341E+04   -.316E+01 0.215E+01 0.341E+04   -.538E+00 0.135E+01 0.270E+01   -.930E-01 0.125E+00 0.523E+00
   -.531E+01 -.146E+01 -.341E+04   0.345E+01 0.166E+01 0.341E+04   0.144E+01 -.211E+00 0.270E+01   0.153E+00 0.207E-01 0.524E+00
   0.531E+01 -.146E+01 -.341E+04   -.345E+01 0.166E+01 0.341E+04   -.144E+01 -.211E+00 0.270E+01   -.155E+00 0.211E-01 0.523E+00
   -.139E+01 0.533E+01 -.341E+04   0.285E+00 -.381E+01 0.341E+04   0.904E+00 -.114E+01 0.270E+01   0.616E-01 -.143E+00 0.523E+00
   0.139E+01 0.533E+01 -.341E+04   -.285E+00 -.381E+01 0.341E+04   -.904E+00 -.114E+01 0.270E+01   -.586E-01 -.145E+00 0.523E+00
   -.155E-03 -.281E-04 -.343E+04   0.257E-03 0.378E-05 0.343E+04   -.196E-17 -.464E-19 0.226E+01   -.131E-01 -.674E-02 0.513E+00
   -.147E-04 -.153E-04 -.258E+04   0.111E-03 0.224E-04 0.259E+04   0.103E-17 0.254E-17 -.311E+01   0.344E-02 0.207E-02 0.629E+00
   0.170E-03 -.853E-04 -.221E+04   0.163E-04 0.766E-05 0.223E+04   0.325E-17 -.164E-17 -.267E+02   0.325E-02 0.198E-02 0.134E-01
 -----------------------------------------------------------------------------------------------
   -.869E-04 -.104E-03 0.222E+02   0.133E-12 0.616E-14 -.909E-12   0.224E-15 -.221E-15 -.301E+02   0.283E-01 0.134E-01 0.796E+01
 
 
 POSITION                                       TOTAL-FORCE (eV/Angst)
 -----------------------------------------------------------------------------------
      0.00000      0.00000      5.37156        -0.000000     -0.000000      0.004240
      2.56560      0.00000      5.37156         0.003083      0.027321      0.057719
      5.13119      0.00000      5.37156        -0.003083      0.027321      0.057719
      1.28280      2.22187      5.37156         0.025202     -0.010991      0.057719
      3.84839      2.22187      5.37156        -0.000000     -0.000000      0.051299
      6.41399      2.22187      5.37156        -0.025202     -0.010991      0.057719
      2.56560      4.44374      5.37156         0.022119     -0.016331      0.057719
      5.13119      4.44374      5.37156        -0.022119     -0.016331      0.057719
      7.69679      4.44374      5.37156        -0.000000     -0.000000      0.025569
      1.28280      0.74062      7.46636         0.009904      0.005718     -0.056079
      3.84839      0.74062      7.46636         0.000000     -0.025085     -0.042222
      6.41399      0.74062      7.46636        -0.009904      0.005718     -0.056079
      2.56560      2.96249      7.46636        -0.021724      0.012542     -0.042222
      5.13119      2.96249      7.46636         0.021724      0.012542     -0.042222
      7.69679      2.96249      7.46636         0.000000     -0.008542     -0.030292
      3.84839      5.18437      7.46636         0.000000     -0.011436     -0.056079
      6.41399      5.18437      7.46636        -0.007398      0.004271     -0.030292
      8.97958      5.18437      7.46636         0.007398      0.004271     -0.030292
      7.69679      1.48472      9.55134         0.000000     -0.015634     -0.017897
      2.55991      1.47796      9.54139         0.006393      0.003691     -0.197763
      5.13688      1.47796      9.54139        -0.006393      0.003691     -0.197763
      8.97851      3.70374      9.55759         0.025504     -0.014725     -0.033687
      3.84839      3.70969      9.54139         0.000000     -0.007382     -0.197763
      6.41506      3.70374      9.55759        -0.025504     -0.014725     -0.033687
     10.25938      5.92325      9.55134         0.013540      0.007817     -0.017897
      5.13420      5.92325      9.55134        -0.013540      0.007817     -0.017897
      7.69679      5.92375      9.55759        -0.000000      0.029450     -0.033687
      0.00000      0.00000     11.61948        -0.000000     -0.000000      0.015658
      6.40389      6.65412     11.64269        -0.123926     -0.235728     -0.087383
      8.98968      6.65412     11.64269         0.123926     -0.235728     -0.087383
      8.96459      2.21887     11.64269        -0.266110      0.010541     -0.087383
      6.42899      2.21887     11.64269         0.266110      0.010541     -0.087383
     10.25748      4.45823     11.64269        -0.142184      0.225187     -0.087383
      5.13610      4.45823     11.64269         0.142184      0.225187     -0.087383
      7.69679      4.44374     11.62337        -0.000000     -0.000000      0.038582
      3.84839      2.22187     11.63466        -0.000000     -0.000000      1.192579
      3.84839      2.22187     13.42134        -0.000000     -0.000000     -0.016121
 -----------------------------------------------------------------------------------
    total drift:                                0.028224      0.013291      0.071692


--------------------------------------------------------------------------------------------------------



  FREE ENERGIE OF THE ION-ELECTRON SYSTEM (eV)
  ---------------------------------------------------
  free  energy   TOTEN  =      -134.71226827 eV

  energy  without entropy=     -134.71226827  energy(sigma->0) =     -134.71226827
 


--------------------------------------------------------------------------------------------------------


    POTLOK:  cpu time    0.0293: real time    0.0293


--------------------------------------------------------------------------------------------------------


 stress matrix after NEB project (eV)
     -2.05132      0.00000     -0.00000
      0.00000     -2.05132     -0.00000
     -0.00000     -0.00000      3.36879
  FORCES: max atom, RMS     0.016121    0.002650
  FORCE total and by dimension    0.016121    0.016121
  Stress total and by dimension    4.445732    3.368788
     LOOP+:  cpu time   67.8114: real time   67.8269
 -----------------------------------------------------------------------------
|                                                                             |
|           W    W    AA    RRRRR   N    N  II  N    N   GGGG   !!!           |
|           W    W   A  A   R    R  NN   N  II  NN   N  G    G  !!!           |
|           W    W  A    A  R    R  N N  N  II  N N  N  G       !!!           |
|           W WW W  AAAAAA  RRRRR   N  N N  II  N  N N  G  GGG   !            |
|           WW  WW  A    A  R   R   N   NN  II  N   NN  G    G                |
|           W    W  A    A  R    R  N    N  II  N    N   GGGG   !!!           |
|                                                                             |
|     Tetrahedron method does not include variations of the Fermi             |
|     occupations, so forces and stress will be inaccurate. We suggest        |
|     using a different smearing scheme ISMEAR = 1 or 2 for metals in         |
|     relaxations.                                                            |
|                                                                             |
 -----------------------------------------------------------------------------

    4ORBIT:  cpu time    0.0000: real time    0.0000



 total charge

# of ion       s       p       d       tot
------------------------------------------
    1        0.449   0.282   9.191   9.922
    2        0.449   0.284   9.187   9.921
    3        0.449   0.284   9.187   9.921
    4        0.449   0.284   9.187   9.921
    5        0.449   0.287   9.184   9.920
    6        0.449   0.284   9.187   9.921
    7        0.449   0.284   9.187   9.921
    8        0.449   0.284   9.187   9.921
    9        0.446   0.284   9.185   9.915
   10        0.443   0.371   9.180   9.993
   11        0.441   0.370   9.181   9.992
   12        0.443   0.371   9.180   9.993
   13        0.441   0.370   9.181   9.992
   14        0.441   0.370   9.181   9.992
   15        0.440   0.367   9.184   9.991
   16        0.443   0.371   9.180   9.993
   17        0.440   0.367   9.184   9.991
   18        0.440   0.367   9.184   9.991
   19        0.441   0.373   9.180   9.994
   20        0.454   0.384   9.175  10.013
   21        0.454   0.384   9.175  10.013
   22        0.436   0.369   9.185   9.990
   23        0.454   0.384   9.175  10.013
   24        0.436   0.369   9.185   9.990
   25        0.441   0.373   9.180   9.994
   26        0.441   0.373   9.180   9.994
   27        0.436   0.369   9.185   9.990
   28        0.457   0.286   9.196   9.939
   29        0.441   0.294   9.194   9.929
   30        0.441   0.294   9.194   9.929
   31        0.441   0.294   9.194   9.929
   32        0.441   0.294   9.194   9.929
   33        0.441   0.294   9.194   9.929
   34        0.441   0.294   9.194   9.929
   35        0.449   0.290   9.192   9.931
   36        0.560   0.650   7.438   8.648
   37        1.604   3.205   0.000   4.809
--------------------------------------------------
tot         17.722  15.458 328.924 362.104
 
 BZINTS: Fermi energy:    0.008918;  400.000000 electrons
         Band energy:-0.115536E+04;  BLOECHL correction:   -0.044086

 total amount of memory used by VASP MPI-rank0   104483. kBytes
=======================================================================

   base      :      30000. kBytes
   nonlr-proj:      17597. kBytes
   fftplans  :       2916. kBytes
   grid      :      12390. kBytes
   one-center:        575. kBytes
   wavefun   :      41005. kBytes
 
  
  
 General timing and accounting informations for this job:
 ========================================================
  
                  Total CPU time used (sec):       73.736
                            User time (sec):       70.888
                          System time (sec):        2.848
                         Elapsed time (sec):       74.114
  
                   Maximum memory used (kb):      344572.
                   Average memory used (kb):          N/A
  
                          Minor page faults:        84805
                          Major page faults:            0
                 Voluntary context switches:         4579
