PROCAR new format
# of k-points:   10         # of bands:  252         # of ions:   37

 k-point     1 :    0.00000000 0.00000000 0.00000000     weight = 0.01562500

band     1 # energy  -17.61317876 # occ.  2.00000000
 
ion      s      p      d    tot
    1  0.000  0.000  0.000  0.000
    2  0.000  0.000  0.000  0.000
    3  0.000  0.000  0.000  0.000
    4  0.000  0.000  0.000  0.000
    5  0.000  0.000  0.000  0.000
    6  0.000  0.000  0.000  0.000
    7  0.000  0.000  0.000  0.000
    8  0.000  0.000  0.000  0.000
    9  0.000  0.000  0.000  0.000
   10  0.000  0.000  0.000  0.000
   11  0.000  0.000  0.000  0.000
   12  0.000  0.000  0.000  0.000
   13  0.000  0.000  0.000  0.000
   14  0.000  0.000  0.000  0.000
   15  0.000  0.000  0.000  0.000
   16  0.000  0.000  0.000  0.000
   17  0.000  0.000  0.000  0.000
   18  0.000  0.000  0.000  0.000
   19  0.000  0.000  0.000  0.000
   20  0.000  0.000  0.000  0.000
   21  0.000  0.000  0.000  0.000
   22  0.000  0.000  0.000  0.000
   23  0.000  0.000  0.000  0.000
   24  0.000  0.000  0.000  0.000
   25  0.000  0.000  0.000  0.000
   26  0.000  0.000  0.000  0.000
   27  0.000  0.000  0.000  0.000
   28  0.000  0.000  0.000  0.000
   29  0.000  0.000  0.000  0.000
   30  0.000  0.000  0.000  0.000
   31  0.000  0.000  0.000  0.000
   32  0.000  0.000  0.000  0.000
   33  0.000  0.000  0.000  0.000
   34  0.000  0.000  0.000  0.000
   35  0.000  0.000  0.000  0.000
   36  0.026  0.042  0.072  0.139
   37  0.767  0.012  0.000  0.779
tot    0.793  0.054  0.072  0.919
 
band     2 # energy   -8.79834428 # occ.  2.00000000
 
ion      s      p      d    tot
    1  0.007  0.001  0.000  0.008
    2  0.007  0.001  0.000  0.007
    3  0.007  0.001  0.000  0.007
    4  0.007  0.001  0.000  0.007
    5  0.007  0.001  0.000  0.007
    6  0.007  0.001  0.000  0.007
    7  0.007  0.001  0.000  0.007
    8  0.007  0.001  0.000  0.007
    9  0.007  0.001  0.000  0.008
   10  0.025  0.000  0.000  0.025
   11  0.025  0.000  0.000  0.025
   12  0.025  0.000  0.000  0.025
   13  0.025  0.000  0.000  0.025
   14  0.025  0.000  0.000  0.025
   15  0.025  0.000  0.000  0.025
   16  0.025  0.000  0.000  0.025
   17  0.025  0.000  0.000  0.025
   18  0.025  0.000  0.000  0.025
   19  0.025  0.000  0.000  0.025
   20  0.024  0.000  0.000  0.024
   21  0.024  0.000  0.000  0.024
   22  0.025  0.000  0.000  0.025
   23  0.024  0.000  0.000  0.024
   24  0.025  0.000  0.000  0.025
   25  0.025  0.000  0.000  0.025
   26  0.025  0.000  0.000  0.025
   27  0.025  0.000  0.000  0.025
   28  0.007  0.001  0.000  0.008
   29  0.006  0.001  0.000  0.007
   30  0.006  0.001  0.000  0.007
   31  0.006  0.001  0.000  0.007
   32  0.006  0.001  0.000  0.007
   33  0.006  0.001  0.000  0.007
   34  0.006  0.001  0.000  0.007
   35  0.007  0.001  0.000  0.008
   36  0.007  0.002  0.000  0.008
   37  0.000  0.000  0.000  0.001
tot    0.565  0.017  0.001  0.584
 
band     3 # energy   -7.49095276 # occ.  2.00000000
 
ion      s      p      d    tot
    1  0.018  0.001  0.001  0.019
    2  0.018  0.001  0.001  0.019
    3  0.018  0.001  0.001  0.019
    4  0.018  0.001  0.001  0.019
    5  0.018  0.001  0.001  0.019
    6  0.018  0.001  0.001  0.019
    7  0.018  0.001  0.001  0.019
    8  0.018  0.001  0.001  0.019
    9  0.018  0.001  0.001  0.019
   10  0.010  0.002  0.001  0.013
   11  0.010  0.002  0.001  0.013
   12  0.010  0.002  0.001  0.013
   13  0.010  0.002  0.001  0.013
   14  0.010  0.002  0.001  0.013
   15  0.009  0.002  0.001  0.012
   16  0.010  0.002  0.001  0.013
   17  0.009  0.002  0.001  0.012
   18  0.009  0.002  0.001  0.012
   19  0.011  0.002  0.001  0.014
   20  0.009  0.002  0.001  0.012
   21  0.009  0.002  0.001  0.012
   22  0.011  0.002  0.001  0.014
   23  0.009  0.002  0.001  0.012
   24  0.011  0.002  0.001  0.014
   25  0.011  0.002  0.001  0.014
   26  0.011  0.002  0.001  0.014
   27  0.011  0.002  0.001  0.014
   28  0.020  0.001  0.001  0.021
   29  0.018  0.001  0.001  0.019
   30  0.018  0.001  0.001  0.019
   31  0.018  0.001  0.001  0.019
   32  0.018  0.001  0.001  0.019
   33  0.018  0.001  0.001  0.019
   34  0.018  0.001  0.001  0.019
   35  0.020  0.001  0.000  0.021
   36  0.017  0.001  0.003  0.021
   37  0.001  0.000  0.000  0.001
tot    0.510  0.056  0.021  0.587
 
band     4 # energy   -5.94284437 # occ.  2.00000000
 
ion      s      p      d    tot
    1  0.013  0.000  0.004  0.017
    2  0.012  0.000  0.004  0.016
    3  0.012  0.000  0.004  0.016
    4  0.012  0.000  0.004  0.016
    5  0.004  0.000  0.005  0.009
    6  0.012  0.000  0.004  0.016
    7  0.012  0.000  0.004  0.016
    8  0.012  0.000  0.004  0.016
    9  0.022  0.000  0.003  0.025
   10  0.002  0.003  0.002  0.008
   11  0.011  0.005  0.001  0.017
   12  0.002  0.003  0.002  0.008
   13  0.011  0.005  0.001  0.017
   14  0.011  0.005  0.001  0.017
   15  0.000  0.002  0.004  0.006
   16  0.002  0.003  0.002  0.008
   17  0.000  0.002  0.004  0.006
   18  0.000  0.002  0.004  0.006
   19  0.001  0.002  0.006  0.009
   20  0.023  0.005  0.004  0.032
   21  0.023  0.005  0.004  0.032
   22  0.000  0.004  0.004  0.008
   23  0.023  0.005  0.004  0.032
   24  0.000  0.004  0.004  0.008
   25  0.001  0.002  0.006  0.009
   26  0.001  0.002  0.006  0.009
   27  0.000  0.004  0.004  0.008
   28  0.019  0.000  0.004  0.023
   29  0.015  0.000  0.007  0.022
   30  0.015  0.000  0.007  0.022
   31  0.015  0.000  0.007  0.022
   32  0.015  0.000  0.007  0.022
   33  0.015  0.000  0.007  0.022
   34  0.015  0.000  0.007  0.022
   35  0.025  0.000  0.004  0.029
   36  0.001  0.001  0.075  0.077
   37  0.001  0.016  0.000  0.017
tot    0.353  0.082  0.224  0.660
 
band     5 # energy   -5.83959713 # occ.  2.00000000
 
ion      s      p      d    tot
    1  0.000  0.003  0.005  0.008
    2  0.009  0.002  0.002  0.013
    3  0.002  0.001  0.002  0.005
    4  0.009  0.002  0.002  0.013
    5  0.000  0.002  0.003  0.005
    6  0.002  0.001  0.002  0.005
    7  0.002  0.001  0.002  0.005
    8  0.002  0.001  0.002  0.005
    9  0.000  0.000  0.003  0.003
   10  0.057  0.004  0.004  0.065
   11  0.005  0.010  0.003  0.018
   12  0.014  0.003  0.011  0.028
   13  0.005  0.010  0.003  0.018
   14  0.019  0.000  0.006  0.025
   15  0.003  0.003  0.008  0.014
   16  0.014  0.003  0.011  0.028
   17  0.003  0.003  0.008  0.014
   18  0.010  0.003  0.003  0.016
   19  0.009  0.010  0.004  0.023
   20  0.062  0.004  0.005  0.071
   21  0.016  0.002  0.014  0.032
   22  0.001  0.006  0.007  0.013
   23  0.016  0.002  0.014  0.032
   24  0.003  0.002  0.004  0.009
   25  0.035  0.001  0.007  0.043
   26  0.009  0.010  0.004  0.023
   27  0.001  0.006  0.007  0.013
   28  0.000  0.003  0.004  0.007
   29  0.011  0.003  0.003  0.017
   30  0.006  0.002  0.003  0.010
   31  0.011  0.003  0.003  0.017
   32  0.001  0.001  0.003  0.005
   33  0.006  0.002  0.003  0.010
   34  0.001  0.001  0.003  0.005
   35  0.000  0.000  0.003  0.003
   36  0.000  0.003  0.027  0.030
   37  0.000  0.001  0.000  0.001
tot    0.340  0.113  0.197  0.650
 
band     6 # energy   -5.83935041 # occ.  2.00000000
 
ion      s      p      d    tot
    1  0.000  0.003  0.005  0.008
    2  0.000  0.001  0.002  0.003
    3  0.006  0.002  0.002  0.010
    4  0.000  0.001  0.002  0.002
    5  0.000  0.002  0.003  0.005
    6  0.007  0.002  0.002  0.011
    7  0.006  0.002  0.002  0.010
    8  0.007  0.002  0.002  0.011
    9  0.000  0.000  0.003  0.003
   10  0.000  0.003  0.013  0.016
   11  0.014  0.003  0.005  0.023
   12  0.043  0.004  0.006  0.053
   13  0.014  0.003  0.005  0.023
   14  0.000  0.013  0.002  0.015
   15  0.008  0.003  0.004  0.015
   16  0.043  0.004  0.006  0.053
   17  0.008  0.003  0.004  0.015
   18  0.000  0.004  0.010  0.013
   19  0.026  0.004  0.006  0.036
   20  0.000  0.001  0.018  0.019
   21  0.047  0.003  0.008  0.058
   22  0.002  0.003  0.005  0.010
   23  0.047  0.003  0.008  0.058
   24  0.000  0.007  0.008  0.015
   25  0.000  0.013  0.003  0.016
   26  0.026  0.004  0.006  0.036
   27  0.002  0.003  0.005  0.010
   28  0.000  0.003  0.004  0.007
   29  0.001  0.001  0.003  0.004
   30  0.006  0.002  0.003  0.011
   31  0.001  0.001  0.003  0.004
   32  0.011  0.003  0.003  0.016
   33  0.006  0.002  0.003  0.011
   34  0.011  0.003  0.003  0.016
   35  0.000  0.000  0.003  0.003
   36  0.000  0.003  0.027  0.030
   37  0.000  0.001  0.000  0.001
tot    0.340  0.113  0.197  0.651
 
band     7 # energy   -5.81503710 # occ.  2.00000000
 
ion      s      p      d    tot
    1  0.000  0.000  0.002  0.002
    2  0.009  0.002  0.002  0.014
    3  0.003  0.001  0.002  0.006
    4  0.009  0.002  0.002  0.014
    5  0.000  0.001  0.004  0.006
    6  0.002  0.001  0.002  0.005
    7  0.003  0.001  0.002  0.006
    8  0.002  0.001  0.002  0.005
    9  0.000  0.003  0.005  0.008
   10  0.000  0.010  0.004  0.014
   11  0.030  0.004  0.005  0.039
   12  0.000  0.003  0.004  0.008
   13  0.030  0.003  0.006  0.039
   14  0.000  0.000  0.015  0.015
   15  0.036  0.004  0.006  0.046
   16  0.000  0.003  0.005  0.008
   17  0.036  0.004  0.006  0.046
   18  0.000  0.009  0.007  0.016
   19  0.022  0.004  0.005  0.031
   20  0.000  0.014  0.001  0.015
   21  0.005  0.004  0.005  0.013
   22  0.046  0.004  0.006  0.057
   23  0.005  0.004  0.005  0.013
   24  0.000  0.007  0.011  0.018
   25  0.000  0.001  0.016  0.017
   26  0.022  0.004  0.005  0.031
   27  0.047  0.004  0.006  0.057
   28  0.000  0.001  0.004  0.005
   29  0.012  0.003  0.003  0.017
   30  0.004  0.002  0.003  0.010
   31  0.012  0.003  0.003  0.017
   32  0.002  0.001  0.003  0.006
   33  0.004  0.002  0.003  0.009
   34  0.002  0.001  0.003  0.005
   35  0.000  0.004  0.006  0.010
   36  0.000  0.002  0.012  0.013
   37  0.000  0.000  0.000  0.000
tot    0.344  0.116  0.182  0.642
 
band     8 # energy   -5.81479882 # occ.  2.00000000
 
ion      s      p      d    tot
    1  0.000  0.000  0.002  0.002
    2  0.000  0.001  0.002  0.003
    3  0.007  0.002  0.002  0.011
    4  0.000  0.001  0.002  0.003
    5  0.000  0.001  0.004  0.006
    6  0.007  0.002  0.002  0.011
    7  0.007  0.002  0.002  0.011
    8  0.007  0.002  0.002  0.011
    9  0.000  0.003  0.005  0.008
   10  0.000  0.001  0.005  0.006
   11  0.010  0.001  0.012  0.023
   12  0.000  0.008  0.004  0.012
   13  0.010  0.001  0.012  0.023
   14  0.039  0.005  0.002  0.046
   15  0.012  0.007  0.007  0.026
   16  0.000  0.008  0.004  0.012
   17  0.012  0.007  0.007  0.026
   18  0.049  0.002  0.006  0.056
   19  0.007  0.002  0.012  0.022
   20  0.006  0.000  0.006  0.013
   21  0.002  0.010  0.002  0.014
   22  0.016  0.006  0.009  0.031
   23  0.002  0.011  0.002  0.014
   24  0.062  0.003  0.005  0.070
   25  0.029  0.005  0.002  0.036
   26  0.008  0.002  0.012  0.022
   27  0.016  0.006  0.009  0.031
   28  0.000  0.001  0.004  0.005
   29  0.000  0.001  0.003  0.004
   30  0.008  0.002  0.003  0.012
   31  0.000  0.001  0.003  0.004
   32  0.010  0.003  0.003  0.016
   33  0.008  0.002  0.003  0.012
   34  0.010  0.003  0.003  0.016
   35  0.000  0.004  0.006  0.010
   36  0.000  0.002  0.012  0.013
   37  0.000  0.000  0.000  0.000
tot    0.343  0.116  0.182  0.642
 
band     9 # energy   -5.80523705 # occ.  2.00000000
 
ion      s      p      d    tot
    1  0.022  0.003  0.001  0.025
    2  0.000  0.002  0.004  0.006
    3  0.000  0.002  0.004  0.006
    4  0.000  0.002  0.004  0.006
    5  0.000  0.000  0.001  0.001
    6  0.000  0.002  0.004  0.006
    7  0.000  0.002  0.004  0.006
    8  0.000  0.002  0.004  0.006
    9  0.009  0.002  0.001  0.012
   10  0.026  0.004  0.007  0.038
   11  0.003  0.001  0.011  0.015
   12  0.026  0.004  0.007  0.038
   13  0.003  0.001  0.011  0.015
   14  0.003  0.001  0.011  0.015
   15  0.017  0.009  0.002  0.028
   16  0.026  0.004  0.007  0.038
   17  0.017  0.009  0.002  0.028
   18  0.016  0.009  0.002  0.027
   19  0.018  0.009  0.002  0.030
   20  0.000  0.002  0.010  0.012
   21  0.000  0.002  0.011  0.013
   22  0.028  0.003  0.008  0.040
   23  0.000  0.002  0.011  0.013
   24  0.029  0.003  0.008  0.041
   25  0.019  0.009  0.002  0.030
   26  0.018  0.009  0.002  0.030
   27  0.028  0.003  0.008  0.040
   28  0.021  0.002  0.000  0.024
   29  0.000  0.002  0.004  0.006
   30  0.000  0.002  0.004  0.006
   31  0.000  0.002  0.004  0.006
   32  0.000  0.002  0.004  0.006
   33  0.000  0.002  0.004  0.006
   34  0.000  0.002  0.004  0.006
   35  0.013  0.003  0.002  0.017
   36  0.000  0.000  0.000  0.000
   37  0.000  0.000  0.000  0.000
tot    0.347  0.116  0.176  0.639
 
band    10 # energy   -5.74234388 # occ.  2.00000000
 
ion      s      p      d    tot
    1  0.000  0.001  0.002  0.003
    2  0.004  0.002  0.005  0.011
    3  0.004  0.002  0.005  0.011
    4  0.004  0.002  0.005  0.011
    5  0.039  0.003  0.000  0.042
    6  0.004  0.002  0.005  0.011
    7  0.004  0.002  0.005  0.011
    8  0.004  0.002  0.005  0.011
    9  0.000  0.001  0.004  0.006
   10  0.007  0.005  0.006  0.018
   11  0.017  0.007  0.005  0.029
   12  0.007  0.005  0.006  0.018
   13  0.017  0.007  0.005  0.029
   14  0.017  0.007  0.005  0.029
   15  0.022  0.001  0.010  0.033
   16  0.007  0.005  0.006  0.018
   17  0.022  0.001  0.010  0.033
   18  0.022  0.001  0.010  0.033
   19  0.014  0.002  0.008  0.024
   20  0.016  0.006  0.004  0.026
   21  0.016  0.006  0.004  0.026
   22  0.005  0.006  0.005  0.016
   23  0.016  0.006  0.004  0.026
   24  0.005  0.006  0.005  0.016
   25  0.014  0.002  0.008  0.024
   26  0.014  0.002  0.008  0.024
   27  0.005  0.006  0.005  0.016
   28  0.000  0.001  0.004  0.005
   29  0.004  0.001  0.004  0.008
   30  0.004  0.001  0.004  0.008
   31  0.004  0.001  0.004  0.008
   32  0.004  0.001  0.004  0.008
   33  0.004  0.001  0.004  0.008
   34  0.004  0.001  0.004  0.008
   35  0.000  0.000  0.002  0.003
   36  0.030  0.003  0.000  0.033
   37  0.001  0.005  0.000  0.006
tot    0.357  0.109  0.186  0.652
 
band    11 # energy   -5.20995864 # occ.  2.00000000
 
ion      s      p      d    tot
    1  0.010  0.000  0.007  0.017
    2  0.005  0.001  0.009  0.015
    3  0.005  0.001  0.009  0.015
    4  0.005  0.001  0.009  0.015
    5  0.001  0.002  0.009  0.012
    6  0.005  0.001  0.009  0.015
    7  0.005  0.001  0.009  0.015
    8  0.005  0.001  0.009  0.015
    9  0.020  0.000  0.005  0.025
   10  0.004  0.000  0.018  0.023
   11  0.018  0.001  0.012  0.031
   12  0.004  0.000  0.018  0.023
   13  0.018  0.001  0.012  0.031
   14  0.018  0.001  0.012  0.031
   15  0.000  0.001  0.015  0.016
   16  0.004  0.000  0.018  0.023
   17  0.000  0.001  0.015  0.016
   18  0.000  0.001  0.015  0.016
   19  0.001  0.000  0.006  0.007
   20  0.005  0.003  0.025  0.033
   21  0.005  0.003  0.025  0.033
   22  0.001  0.000  0.008  0.010
   23  0.005  0.003  0.025  0.033
   24  0.001  0.000  0.008  0.010
   25  0.001  0.000  0.006  0.007
   26  0.001  0.000  0.006  0.007
   27  0.001  0.000  0.008  0.010
   28  0.001  0.000  0.001  0.002
   29  0.001  0.000  0.003  0.004
   30  0.001  0.000  0.003  0.004
   31  0.001  0.000  0.003  0.004
   32  0.001  0.000  0.003  0.004
   33  0.001  0.000  0.003  0.004
   34  0.001  0.000  0.003  0.004
   35  0.001  0.000  0.001  0.002
   36  0.005  0.000  0.164  0.170
   37  0.009  0.094  0.000  0.102
tot    0.173  0.121  0.510  0.803
 
band    12 # energy   -5.09729554 # occ.  2.00000000
 
ion      s      p      d    tot
    1  0.000  0.003  0.010  0.012
    2  0.018  0.003  0.005  0.027
    3  0.002  0.002  0.004  0.008
    4  0.018  0.003  0.005  0.027
    5  0.000  0.001  0.009  0.010
    6  0.009  0.003  0.005  0.016
    7  0.002  0.002  0.004  0.008
    8  0.009  0.003  0.005  0.016
    9  0.000  0.005  0.008  0.014
   10  0.000  0.005  0.015  0.020
   11  0.006  0.002  0.009  0.017
   12  0.004  0.001  0.009  0.014
   13  0.006  0.002  0.009  0.017
   14  0.000  0.001  0.015  0.017
   15  0.020  0.003  0.009  0.031
   16  0.004  0.001  0.009  0.014
   17  0.019  0.003  0.009  0.031
   18  0.000  0.001  0.021  0.022
   19  0.008  0.004  0.010  0.021
   20  0.000  0.003  0.021  0.024
   21  0.000  0.001  0.012  0.013
   22  0.009  0.003  0.009  0.021
   23  0.000  0.001  0.012  0.013
   24  0.000  0.001  0.029  0.030
   25  0.000  0.000  0.012  0.012
   26  0.008  0.004  0.010  0.021
   27  0.009  0.003  0.009  0.021
   28  0.000  0.003  0.007  0.010
   29  0.022  0.003  0.007  0.033
   30  0.001  0.002  0.008  0.011
   31  0.022  0.003  0.007  0.033
   32  0.015  0.002  0.008  0.024
   33  0.001  0.002  0.008  0.011
   34  0.015  0.002  0.008  0.024
   35  0.000  0.006  0.008  0.014
   36  0.000  0.000  0.051  0.051
   37  0.000  0.001  0.000  0.001
tot    0.224  0.091  0.396  0.711
 
band    13 # energy   -5.09723401 # occ.  2.00000000
 
ion      s      p      d    tot
    1  0.000  0.003  0.010  0.012
    2  0.001  0.002  0.005  0.007
    3  0.018  0.003  0.005  0.026
    4  0.001  0.002  0.005  0.007
    5  0.000  0.001  0.009  0.010
    6  0.010  0.003  0.005  0.018
    7  0.018  0.003  0.005  0.026
    8  0.010  0.003  0.005  0.018
    9  0.000  0.005  0.008  0.014
   10  0.005  0.000  0.006  0.012
   11  0.002  0.002  0.013  0.017
   12  0.001  0.004  0.013  0.018
   13  0.002  0.002  0.013  0.017
   14  0.008  0.002  0.007  0.017
   15  0.006  0.002  0.017  0.025
   16  0.001  0.004  0.013  0.018
   17  0.007  0.002  0.017  0.025
   18  0.026  0.004  0.004  0.035
   19  0.003  0.001  0.011  0.015
   20  0.000  0.000  0.010  0.010
   21  0.000  0.002  0.018  0.020
   22  0.003  0.002  0.022  0.027
   23  0.000  0.002  0.018  0.020
   24  0.011  0.004  0.003  0.018
   25  0.010  0.005  0.009  0.025
   26  0.003  0.001  0.011  0.015
   27  0.003  0.002  0.022  0.027
   28  0.000  0.003  0.007  0.010
   29  0.003  0.002  0.008  0.013
   30  0.024  0.003  0.007  0.034
   31  0.003  0.002  0.008  0.013
   32  0.010  0.003  0.008  0.021
   33  0.024  0.003  0.007  0.034
   34  0.010  0.003  0.008  0.021
   35  0.000  0.006  0.008  0.014
   36  0.000  0.000  0.051  0.051
   37  0.000  0.001  0.000  0.001
tot    0.224  0.091  0.396  0.711
 
band    14 # energy   -5.05860080 # occ.  2.00000000
 
ion      s      p      d    tot
    1  0.000  0.004  0.009  0.013
    2  0.022  0.004  0.006  0.031
    3  0.002  0.002  0.005  0.010
    4  0.022  0.004  0.006  0.031
    5  0.000  0.006  0.010  0.016
    6  0.009  0.003  0.006  0.018
    7  0.003  0.002  0.005  0.010
    8  0.010  0.003  0.006  0.018
    9  0.000  0.000  0.013  0.013
   10  0.022  0.005  0.008  0.035
   11  0.005  0.003  0.020  0.028
   12  0.005  0.001  0.018  0.025
   13  0.004  0.003  0.020  0.028
   14  0.018  0.003  0.005  0.026
   15  0.000  0.003  0.014  0.017
   16  0.006  0.001  0.018  0.025
   17  0.000  0.003  0.014  0.017
   18  0.000  0.000  0.009  0.010
   19  0.001  0.002  0.018  0.021
   20  0.019  0.006  0.004  0.028
   21  0.005  0.002  0.021  0.028
   22  0.001  0.001  0.011  0.013
   23  0.005  0.002  0.021  0.028
   24  0.004  0.002  0.010  0.016
   25  0.004  0.001  0.005  0.010
   26  0.001  0.002  0.018  0.021
   27  0.001  0.001  0.011  0.013
   28  0.000  0.003  0.008  0.011
   29  0.015  0.004  0.006  0.025
   30  0.001  0.001  0.004  0.007
   31  0.015  0.004  0.006  0.024
   32  0.007  0.002  0.007  0.016
   33  0.001  0.001  0.004  0.007
   34  0.007  0.002  0.007  0.016
   35  0.000  0.000  0.008  0.008
   36  0.000  0.005  0.047  0.053
   37  0.000  0.005  0.000  0.005
tot    0.213  0.097  0.408  0.718
 
band    15 # energy   -5.05852460 # occ.  2.00000000
 
ion      s      p      d    tot
    1  0.000  0.004  0.009  0.013
    2  0.001  0.002  0.005  0.008
    3  0.020  0.004  0.006  0.030
    4  0.001  0.002  0.005  0.008
    5  0.000  0.006  0.010  0.016
    6  0.013  0.003  0.005  0.022
    7  0.020  0.004  0.006  0.029
    8  0.013  0.003  0.005  0.021
    9  0.000  0.000  0.013  0.013
   10  0.000  0.000  0.021  0.021
   11  0.013  0.003  0.010  0.026
   12  0.017  0.004  0.011  0.032
   13  0.014  0.003  0.010  0.026
   14  0.000  0.003  0.025  0.028
   15  0.000  0.001  0.011  0.012
   16  0.016  0.004  0.011  0.031
   17  0.000  0.001  0.010  0.012
   18  0.000  0.004  0.016  0.019
   19  0.003  0.001  0.009  0.014
   20  0.000  0.000  0.027  0.027
   21  0.014  0.005  0.009  0.028
   22  0.003  0.002  0.010  0.015
   23  0.014  0.005  0.010  0.028
   24  0.000  0.001  0.011  0.012
   25  0.000  0.002  0.023  0.025
   26  0.003  0.001  0.009  0.013
   27  0.003  0.002  0.010  0.015
   28  0.000  0.003  0.008  0.011
   29  0.001  0.001  0.005  0.007
   30  0.014  0.004  0.007  0.025
   31  0.001  0.001  0.005  0.007
   32  0.009  0.002  0.005  0.016
   33  0.014  0.004  0.007  0.024
   34  0.008  0.002  0.005  0.016
   35  0.000  0.000  0.008  0.008
   36  0.000  0.005  0.047  0.053
   37  0.000  0.005  0.000  0.005
tot    0.213  0.097  0.408  0.718
 
band    16 # energy   -5.03983061 # occ.  2.00000000
 
ion      s      p      d    tot
    1  0.033  0.003  0.000  0.037
    2  0.000  0.003  0.010  0.013
    3  0.000  0.003  0.010  0.013
    4  0.000  0.003  0.010  0.013
    5  0.000  0.000  0.000  0.000
    6  0.000  0.003  0.010  0.013
    7  0.000  0.003  0.010  0.013
    8  0.000  0.003  0.010  0.013
    9  0.031  0.004  0.001  0.035
   10  0.009  0.004  0.010  0.023
   11  0.001  0.000  0.015  0.016
   12  0.009  0.004  0.010  0.023
   13  0.001  0.000  0.015  0.016
   14  0.001  0.000  0.015  0.016
   15  0.007  0.004  0.017  0.028
   16  0.009  0.004  0.010  0.023
   17  0.007  0.004  0.017  0.028
   18  0.007  0.004  0.017  0.028
   19  0.004  0.003  0.019  0.027
   20  0.000  0.000  0.014  0.014
   21  0.000  0.000  0.014  0.014
   22  0.011  0.004  0.010  0.025
   23  0.000  0.000  0.014  0.014
   24  0.011  0.004  0.010  0.025
   25  0.004  0.003  0.019  0.027
   26  0.004  0.003  0.019  0.027
   27  0.011  0.004  0.010  0.025
   28  0.036  0.003  0.000  0.039
   29  0.000  0.003  0.010  0.013
   30  0.000  0.003  0.010  0.013
   31  0.000  0.003  0.010  0.013
   32  0.000  0.003  0.010  0.013
   33  0.000  0.003  0.010  0.013
   34  0.000  0.003  0.010  0.013
   35  0.029  0.004  0.001  0.034
   36  0.000  0.000  0.000  0.000
   37  0.000  0.000  0.000  0.000
tot    0.230  0.094  0.380  0.704
 
band    17 # energy   -4.94790361 # occ.  2.00000000
 
ion      s      p      d    tot
    1  0.005  0.002  0.003  0.010
    2  0.001  0.002  0.009  0.012
    3  0.001  0.002  0.009  0.012
    4  0.001  0.002  0.009  0.012
    5  0.038  0.002  0.001  0.041
    6  0.001  0.002  0.009  0.012
    7  0.001  0.002  0.009  0.012
    8  0.001  0.002  0.009  0.012
    9  0.001  0.001  0.004  0.006
   10  0.004  0.001  0.020  0.025
   11  0.001  0.002  0.017  0.021
   12  0.004  0.001  0.020  0.025
   13  0.001  0.002  0.017  0.021
   14  0.001  0.002  0.017  0.021
   15  0.007  0.001  0.015  0.024
   16  0.004  0.001  0.020  0.025
   17  0.007  0.001  0.015  0.024
   18  0.007  0.001  0.015  0.024
   19  0.014  0.001  0.021  0.035
   20  0.002  0.003  0.017  0.023
   21  0.002  0.003  0.017  0.023
   22  0.004  0.001  0.020  0.025
   23  0.002  0.003  0.017  0.023
   24  0.004  0.001  0.020  0.025
   25  0.014  0.001  0.021  0.035
   26  0.014  0.001  0.021  0.035
   27  0.004  0.001  0.020  0.025
   28  0.000  0.002  0.009  0.012
   29  0.003  0.001  0.009  0.013
   30  0.003  0.001  0.009  0.013
   31  0.003  0.001  0.009  0.013
   32  0.003  0.001  0.009  0.013
   33  0.003  0.001  0.009  0.013
   34  0.003  0.001  0.009  0.013
   35  0.000  0.001  0.006  0.007
   36  0.047  0.001  0.004  0.052
   37  0.003  0.023  0.000  0.026
tot    0.217  0.080  0.466  0.762
 
band    18 # energy   -4.68558202 # occ.  2.00000000
 
ion      s      p      d    tot
    1  0.007  0.000  0.001  0.008
    2  0.000  0.001  0.004  0.004
    3  0.000  0.001  0.004  0.004
    4  0.000  0.001  0.004  0.004
    5  0.007  0.001  0.001  0.009
    6  0.000  0.001  0.004  0.004
    7  0.000  0.001  0.004  0.004
    8  0.000  0.001  0.004  0.004
    9  0.001  0.000  0.001  0.002
   10  0.000  0.000  0.013  0.013
   11  0.001  0.002  0.013  0.016
   12  0.000  0.000  0.013  0.013
   13  0.001  0.002  0.013  0.016
   14  0.001  0.002  0.013  0.016
   15  0.000  0.000  0.004  0.004
   16  0.000  0.000  0.013  0.013
   17  0.000  0.000  0.004  0.004
   18  0.000  0.000  0.004  0.004
   19  0.000  0.000  0.014  0.014
   20  0.009  0.000  0.011  0.020
   21  0.009  0.000  0.011  0.020
   22  0.000  0.002  0.022  0.024
   23  0.009  0.000  0.011  0.020
   24  0.000  0.002  0.022  0.024
   25  0.000  0.000  0.014  0.014
   26  0.000  0.000  0.014  0.014
   27  0.000  0.002  0.022  0.024
   28  0.006  0.000  0.001  0.008
   29  0.001  0.003  0.013  0.016
   30  0.001  0.003  0.013  0.016
   31  0.001  0.003  0.013  0.016
   32  0.001  0.003  0.013  0.016
   33  0.001  0.003  0.013  0.016
   34  0.001  0.003  0.013  0.016
   35  0.023  0.000  0.004  0.028
   36  0.000  0.010  0.210  0.221
   37  0.011  0.164  0.000  0.176
tot    0.093  0.208  0.550  0.851
 
band    19 # energy   -4.50368470 # occ.  2.00000000
 
ion      s      p      d    tot
    1  0.000  0.000  0.014  0.014
    2  0.009  0.001  0.004  0.013
    3  0.004  0.001  0.004  0.008
    4  0.009  0.001  0.004  0.013
    5  0.000  0.000  0.007  0.007
    6  0.002  0.001  0.004  0.006
    7  0.003  0.001  0.004  0.007
    8  0.001  0.001  0.004  0.006
    9  0.000  0.002  0.002  0.004
   10  0.000  0.000  0.025  0.025
   11  0.000  0.002  0.009  0.011
   12  0.000  0.000  0.008  0.009
   13  0.000  0.002  0.008  0.010
   14  0.000  0.000  0.002  0.002
   15  0.000  0.003  0.007  0.010
   16  0.000  0.000  0.007  0.007
   17  0.000  0.003  0.008  0.010
   18  0.000  0.000  0.018  0.018
   19  0.001  0.002  0.005  0.008
   20  0.000  0.000  0.036  0.036
   21  0.000  0.001  0.024  0.025
   22  0.004  0.000  0.011  0.016
   23  0.000  0.001  0.023  0.024
   24  0.000  0.000  0.013  0.013
   25  0.000  0.002  0.014  0.015
   26  0.001  0.002  0.006  0.008
   27  0.005  0.000  0.011  0.016
   28  0.000  0.002  0.002  0.004
   29  0.000  0.000  0.012  0.012
   30  0.008  0.001  0.017  0.026
   31  0.000  0.000  0.011  0.012
   32  0.012  0.001  0.008  0.021
   33  0.009  0.001  0.017  0.026
   34  0.012  0.001  0.009  0.022
   35  0.000  0.000  0.018  0.018
   36  0.000  0.005  0.207  0.211
   37  0.000  0.100  0.000  0.100
tot    0.078  0.135  0.581  0.794
 
band    20 # energy   -4.50366729 # occ.  2.00000000
 
ion      s      p      d    tot
    1  0.000  0.001  0.014  0.014
    2  0.000  0.000  0.004  0.004
    3  0.005  0.001  0.004  0.010
    4  0.000  0.000  0.004  0.004
    5  0.000  0.000  0.007  0.007
    6  0.007  0.001  0.004  0.012
    7  0.006  0.001  0.004  0.011
    8  0.008  0.001  0.004  0.012
    9  0.000  0.002  0.002  0.004
   10  0.000  0.000  0.002  0.002
   11  0.000  0.001  0.004  0.004
   12  0.000  0.000  0.019  0.019
   13  0.000  0.001  0.004  0.005
   14  0.000  0.003  0.011  0.013
   15  0.000  0.001  0.015  0.016
   16  0.000  0.000  0.020  0.020
   17  0.000  0.001  0.014  0.015
   18  0.000  0.004  0.004  0.007
   19  0.000  0.002  0.011  0.013
   20  0.000  0.001  0.019  0.020
   21  0.000  0.000  0.032  0.032
   22  0.002  0.000  0.012  0.014
   23  0.000  0.000  0.033  0.033
   24  0.006  0.000  0.011  0.017
   25  0.001  0.002  0.003  0.006
   26  0.000  0.002  0.011  0.013
   27  0.001  0.000  0.013  0.014
   28  0.000  0.002  0.002  0.004
   29  0.014  0.001  0.013  0.027
   30  0.006  0.001  0.008  0.014
   31  0.013  0.001  0.013  0.028
   32  0.002  0.000  0.016  0.019
   33  0.005  0.001  0.008  0.013
   34  0.001  0.000  0.016  0.018
   35  0.000  0.000  0.018  0.018
   36  0.000  0.005  0.207  0.211
   37  0.000  0.100  0.000  0.100
tot    0.078  0.135  0.581  0.794
 
band    21 # energy   -4.41751547 # occ.  2.00000000
 
ion      s      p      d    tot
    1  0.000  0.000  0.014  0.014
    2  0.005  0.001  0.004  0.010
    3  0.005  0.001  0.004  0.009
    4  0.005  0.001  0.004  0.010
    5  0.000  0.001  0.003  0.004
    6  0.000  0.000  0.004  0.004
    7  0.005  0.001  0.004  0.009
    8  0.000  0.000  0.004  0.004
    9  0.000  0.001  0.004  0.005
   10  0.000  0.000  0.030  0.030
   11  0.000  0.002  0.008  0.010
   12  0.000  0.000  0.012  0.012
   13  0.000  0.002  0.008  0.010
   14  0.000  0.000  0.003  0.003
   15  0.000  0.002  0.008  0.010
   16  0.000  0.000  0.012  0.012
   17  0.000  0.002  0.008  0.010
   18  0.000  0.000  0.015  0.015
   19  0.004  0.001  0.013  0.018
   20  0.000  0.000  0.020  0.020
   21  0.000  0.001  0.027  0.027
   22  0.000  0.002  0.009  0.011
   23  0.000  0.001  0.027  0.027
   24  0.000  0.000  0.003  0.004
   25  0.000  0.001  0.026  0.026
   26  0.004  0.001  0.013  0.018
   27  0.000  0.002  0.009  0.011
   28  0.000  0.000  0.028  0.028
   29  0.013  0.001  0.016  0.031
   30  0.009  0.001  0.021  0.031
   31  0.013  0.001  0.016  0.031
   32  0.001  0.000  0.019  0.019
   33  0.008  0.001  0.021  0.030
   34  0.001  0.000  0.019  0.019
   35  0.000  0.003  0.002  0.005
   36  0.000  0.005  0.187  0.192