PROCAR new format
# of k-points:   10         # of bands:  252         # of ions:   37

 k-point     1 :    0.00000000 0.00000000 0.00000000     weight = 0.01562500

band     1 # energy   -8.09415790 # occ.  2.00000000
 
ion      s      p      d    tot
    1  0.000  0.000  0.000  0.000
    2  0.000  0.000  0.000  0.000
    3  0.000  0.000  0.000  0.000
    4  0.000  0.000  0.000  0.000
    5  0.000  0.000  0.000  0.000
    6  0.000  0.000  0.000  0.000
    7  0.000  0.000  0.000  0.000
    8  0.000  0.000  0.000  0.000
    9  0.000  0.000  0.000  0.000
   10  0.000  0.000  0.000  0.000
   11  0.000  0.000  0.000  0.000
   12  0.000  0.000  0.000  0.000
   13  0.000  0.000  0.000  0.000
   14  0.000  0.000  0.000  0.000
   15  0.000  0.000  0.000  0.000
   16  0.000  0.000  0.000  0.000
   17  0.000  0.000  0.000  0.000
   18  0.000  0.000  0.000  0.000
   19  0.001  0.000  0.000  0.001
   20  0.005  0.001  0.005  0.010
   21  0.005  0.001  0.005  0.010
   22  0.001  0.000  0.000  0.001
   23  0.005  0.001  0.005  0.010
   24  0.001  0.000  0.000  0.001
   25  0.001  0.000  0.000  0.001
   26  0.001  0.000  0.000  0.001
   27  0.001  0.000  0.000  0.001
   28  0.000  0.000  0.000  0.000
   29  0.003  0.000  0.002  0.005
   30  0.003  0.000  0.002  0.005
   31  0.003  0.000  0.002  0.005
   32  0.003  0.000  0.002  0.005
   33  0.003  0.000  0.002  0.005
   34  0.003  0.000  0.002  0.005
   35  0.000  0.000  0.000  0.000
   36  0.159  0.048  0.139  0.346
   37  0.391  0.013  0.000  0.404
tot    0.586  0.068  0.164  0.817
 
band     2 # energy   -6.87942749 # occ.  2.00000000
 
ion      s      p      d    tot
    1  0.006  0.001  0.000  0.007
    2  0.006  0.001  0.000  0.007
    3  0.006  0.001  0.000  0.007
    4  0.006  0.001  0.000  0.007
    5  0.006  0.001  0.000  0.007
    6  0.006  0.001  0.000  0.007
    7  0.006  0.001  0.000  0.007
    8  0.006  0.001  0.000  0.007
    9  0.006  0.001  0.000  0.007
   10  0.023  0.000  0.000  0.024
   11  0.025  0.000  0.000  0.025
   12  0.023  0.000  0.000  0.024
   13  0.025  0.000  0.000  0.025
   14  0.025  0.000  0.000  0.025
   15  0.023  0.000  0.000  0.024
   16  0.023  0.000  0.000  0.024
   17  0.023  0.000  0.000  0.024
   18  0.023  0.000  0.000  0.024
   19  0.021  0.000  0.000  0.021
   20  0.022  0.000  0.000  0.023
   21  0.022  0.000  0.000  0.023
   22  0.021  0.000  0.000  0.022
   23  0.022  0.000  0.000  0.023
   24  0.021  0.000  0.000  0.022
   25  0.021  0.000  0.000  0.021
   26  0.021  0.000  0.000  0.021
   27  0.021  0.000  0.000  0.022
   28  0.005  0.000  0.000  0.005
   29  0.004  0.001  0.000  0.005
   30  0.004  0.001  0.000  0.005
   31  0.004  0.001  0.000  0.005
   32  0.004  0.001  0.000  0.005
   33  0.004  0.001  0.000  0.005
   34  0.004  0.001  0.000  0.005
   35  0.005  0.000  0.000  0.005
   36  0.000  0.009  0.008  0.017
   37  0.020  0.000  0.000  0.021
tot    0.516  0.022  0.017  0.555
 
band     3 # energy   -6.03795847 # occ.  2.00000000
 
ion      s      p      d    tot
    1  0.008  0.000  0.000  0.008
    2  0.007  0.000  0.000  0.008
    3  0.007  0.000  0.000  0.008
    4  0.007  0.000  0.000  0.008
    5  0.007  0.000  0.000  0.007
    6  0.007  0.000  0.000  0.008
    7  0.007  0.000  0.000  0.008
    8  0.007  0.000  0.000  0.008
    9  0.007  0.000  0.000  0.008
   10  0.011  0.001  0.015  0.027
   11  0.010  0.001  0.017  0.028
   12  0.011  0.001  0.015  0.027
   13  0.010  0.001  0.017  0.028
   14  0.010  0.001  0.017  0.028
   15  0.009  0.001  0.013  0.024
   16  0.011  0.001  0.015  0.027
   17  0.009  0.001  0.013  0.024
   18  0.009  0.001  0.013  0.024
   19  0.011  0.001  0.017  0.029
   20  0.013  0.001  0.025  0.039
   21  0.013  0.001  0.025  0.039
   22  0.013  0.001  0.017  0.030
   23  0.013  0.001  0.025  0.039
   24  0.013  0.001  0.017  0.030
   25  0.011  0.001  0.017  0.029
   26  0.011  0.001  0.017  0.029
   27  0.013  0.001  0.017  0.030
   28  0.006  0.000  0.000  0.007
   29  0.005  0.000  0.000  0.006
   30  0.005  0.000  0.000  0.006
   31  0.005  0.000  0.000  0.006
   32  0.005  0.000  0.000  0.006
   33  0.005  0.000  0.000  0.006
   34  0.005  0.000  0.000  0.006
   35  0.006  0.000  0.000  0.006
   36  0.003  0.004  0.004  0.011
   37  0.008  0.000  0.000  0.008
tot    0.322  0.027  0.323  0.671
 
band     4 # energy   -5.80497471 # occ.  2.00000000
 
ion      s      p      d    tot
    1  0.008  0.000  0.016  0.024
    2  0.008  0.000  0.011  0.019
    3  0.008  0.000  0.011  0.019
    4  0.008  0.000  0.011  0.019
    5  0.007  0.000  0.008  0.015
    6  0.008  0.000  0.011  0.019
    7  0.008  0.000  0.011  0.019
    8  0.008  0.000  0.011  0.019
    9  0.010  0.000  0.009  0.019
   10  0.000  0.000  0.020  0.020
   11  0.000  0.000  0.010  0.011
   12  0.000  0.000  0.020  0.020
   13  0.000  0.000  0.010  0.011
   14  0.000  0.000  0.010  0.011
   15  0.000  0.000  0.006  0.007
   16  0.000  0.000  0.020  0.020
   17  0.000  0.000  0.006  0.007
   18  0.000  0.000  0.006  0.007
   19  0.001  0.000  0.011  0.012
   20  0.000  0.000  0.052  0.052
   21  0.000  0.000  0.052  0.052
   22  0.000  0.000  0.008  0.009
   23  0.000  0.000  0.052  0.052
   24  0.000  0.000  0.008  0.009
   25  0.001  0.000  0.011  0.012
   26  0.001  0.000  0.011  0.012
   27  0.000  0.000  0.008  0.009
   28  0.007  0.000  0.011  0.017
   29  0.012  0.000  0.019  0.031
   30  0.012  0.000  0.019  0.031
   31  0.012  0.000  0.019  0.031
   32  0.012  0.000  0.019  0.031
   33  0.012  0.000  0.019  0.031
   34  0.012  0.000  0.019  0.031
   35  0.011  0.000  0.011  0.022
   36  0.015  0.001  0.030  0.046
   37  0.006  0.000  0.000  0.006
tot    0.189  0.009  0.584  0.782
 
band     5 # energy   -5.68108416 # occ.  2.00000000
 
ion      s      p      d    tot
    1  0.000  0.000  0.007  0.008
    2  0.003  0.000  0.009  0.012
    3  0.003  0.000  0.009  0.012
    4  0.003  0.000  0.009  0.012
    5  0.008  0.000  0.006  0.014
    6  0.003  0.000  0.009  0.012
    7  0.003  0.000  0.009  0.012
    8  0.003  0.000  0.009  0.012
    9  0.004  0.000  0.003  0.007
   10  0.003  0.000  0.008  0.012
   11  0.001  0.001  0.027  0.028
   12  0.003  0.000  0.008  0.012
   13  0.001  0.001  0.027  0.028
   14  0.001  0.001  0.027  0.028
   15  0.001  0.000  0.015  0.016
   16  0.003  0.001  0.008  0.012
   17  0.001  0.000  0.015  0.017
   18  0.001  0.000  0.015  0.017
   19  0.002  0.001  0.029  0.032
   20  0.007  0.000  0.107  0.114
   21  0.007  0.000  0.107  0.114
   22  0.010  0.000  0.013  0.023
   23  0.007  0.000  0.107  0.114
   24  0.010  0.000  0.013  0.023
   25  0.002  0.001  0.029  0.032
   26  0.002  0.001  0.029  0.032
   27  0.010  0.000  0.014  0.024
   28  0.000  0.000  0.000  0.000
   29  0.000  0.000  0.004  0.004
   30  0.000  0.000  0.004  0.004
   31  0.000  0.000  0.004  0.004
   32  0.000  0.000  0.004  0.004
   33  0.000  0.000  0.004  0.004
   34  0.000  0.000  0.004  0.004
   35  0.003  0.001  0.002  0.006
   36  0.000  0.005  0.003  0.009
   37  0.003  0.000  0.000  0.004
tot    0.107  0.016  0.697  0.820
 
band     6 # energy   -5.67779085 # occ.  2.00000000
 
ion      s      p      d    tot
    1  0.000  0.000  0.007  0.007
    2  0.000  0.000  0.002  0.002
    3  0.000  0.000  0.002  0.002
    4  0.001  0.000  0.002  0.003
    5  0.000  0.000  0.005  0.005
    6  0.000  0.000  0.002  0.002
    7  0.001  0.000  0.002  0.003
    8  0.000  0.000  0.002  0.003
    9  0.000  0.000  0.001  0.001
   10  0.002  0.001  0.017  0.020
   11  0.000  0.001  0.025  0.025
   12  0.006  0.001  0.014  0.022
   13  0.001  0.000  0.024  0.025
   14  0.000  0.000  0.024  0.025
   15  0.001  0.000  0.009  0.010
   16  0.001  0.001  0.017  0.019
   17  0.003  0.000  0.009  0.013
   18  0.001  0.000  0.009  0.010
   19  0.003  0.001  0.022  0.026
   20  0.009  0.000  0.125  0.135
   21  0.027  0.000  0.009  0.037
   22  0.000  0.000  0.031  0.032
   23  0.005  0.000  0.154  0.159
   24  0.000  0.001  0.044  0.045
   25  0.006  0.001  0.026  0.033
   26  0.019  0.000  0.042  0.061
   27  0.000  0.001  0.047  0.048
   28  0.000  0.000  0.004  0.004
   29  0.000  0.000  0.007  0.008
   30  0.001  0.000  0.004  0.005
   31  0.000  0.000  0.005  0.005
   32  0.001  0.000  0.004  0.005
   33  0.000  0.000  0.006  0.006
   34  0.000  0.000  0.007  0.008
   35  0.000  0.000  0.001  0.001
   36  0.000  0.002  0.007  0.009
   37  0.000  0.000  0.000  0.000
tot    0.091  0.014  0.719  0.823
 
band     7 # energy   -5.67777168 # occ.  2.00000000
 
ion      s      p      d    tot
    1  0.000  0.000  0.007  0.007
    2  0.001  0.000  0.002  0.003
    3  0.001  0.000  0.002  0.003
    4  0.000  0.000  0.002  0.002
    5  0.000  0.000  0.005  0.005
    6  0.001  0.000  0.002  0.003
    7  0.000  0.000  0.002  0.002
    8  0.001  0.000  0.002  0.003
    9  0.000  0.000  0.001  0.001
   10  0.004  0.001  0.016  0.021
   11  0.001  0.000  0.024  0.025
   12  0.000  0.001  0.018  0.018
   13  0.000  0.001  0.025  0.025
   14  0.001  0.000  0.024  0.025
   15  0.002  0.000  0.009  0.012
   16  0.005  0.001  0.015  0.021
   17  0.000  0.000  0.009  0.009
   18  0.002  0.000  0.009  0.011
   19  0.016  0.001  0.039  0.055
   20  0.018  0.000  0.067  0.086
   21  0.000  0.000  0.183  0.183
   22  0.000  0.001  0.050  0.051
   23  0.022  0.000  0.039  0.061
   24  0.000  0.001  0.037  0.038
   25  0.013  0.001  0.034  0.047
   26  0.000  0.001  0.018  0.019
   27  0.000  0.001  0.034  0.035
   28  0.000  0.000  0.004  0.004
   29  0.000  0.000  0.004  0.005
   30  0.000  0.000  0.007  0.007
   31  0.001  0.000  0.006  0.007
   32  0.000  0.000  0.007  0.007
   33  0.001  0.001  0.005  0.006
   34  0.001  0.000  0.004  0.004
   35  0.000  0.000  0.001  0.001
   36  0.000  0.002  0.007  0.009
   37  0.000  0.000  0.000  0.000
tot    0.091  0.014  0.718  0.823
 
band     8 # energy   -5.65732248 # occ.  2.00000000
 
ion      s      p      d    tot
    1  0.015  0.001  0.000  0.016
    2  0.004  0.000  0.013  0.017
    3  0.004  0.000  0.013  0.017
    4  0.004  0.000  0.013  0.017
    5  0.004  0.000  0.023  0.027
    6  0.004  0.000  0.013  0.017
    7  0.004  0.000  0.013  0.017
    8  0.004  0.000  0.013  0.017
    9  0.000  0.001  0.016  0.017
   10  0.002  0.000  0.055  0.057
   11  0.000  0.000  0.045  0.046
   12  0.002  0.000  0.055  0.057
   13  0.000  0.000  0.046  0.046
   14  0.000  0.000  0.045  0.046
   15  0.012  0.001  0.011  0.024
   16  0.002  0.000  0.055  0.057
   17  0.013  0.001  0.010  0.024
   18  0.012  0.001  0.011  0.024
   19  0.002  0.000  0.008  0.010
   20  0.003  0.000  0.031  0.034
   21  0.003  0.000  0.031  0.034
   22  0.002  0.000  0.004  0.007
   23  0.003  0.000  0.031  0.034
   24  0.003  0.000  0.004  0.007
   25  0.001  0.000  0.008  0.010
   26  0.002  0.000  0.008  0.010
   27  0.003  0.000  0.004  0.007
   28  0.001  0.000  0.002  0.003
   29  0.000  0.000  0.014  0.015
   30  0.000  0.000  0.014  0.015
   31  0.000  0.000  0.014  0.015
   32  0.000  0.000  0.014  0.015
   33  0.000  0.000  0.014  0.015
   34  0.000  0.000  0.014  0.015
   35  0.000  0.000  0.000  0.001
   36  0.014  0.007  0.006  0.027
   37  0.007  0.000  0.000  0.007
tot    0.131  0.016  0.674  0.821
 
band     9 # energy   -5.65458052 # occ.  2.00000000
 
ion      s      p      d    tot
    1  0.000  0.000  0.004  0.004
    2  0.001  0.000  0.003  0.005
    3  0.001  0.001  0.007  0.009
    4  0.000  0.000  0.005  0.005
    5  0.000  0.000  0.009  0.009
    6  0.001  0.001  0.007  0.009
    7  0.000  0.000  0.003  0.004
    8  0.001  0.000  0.002  0.003
    9  0.000  0.000  0.001  0.001
   10  0.005  0.001  0.045  0.050
   11  0.028  0.001  0.027  0.055
   12  0.000  0.000  0.091  0.091
   13  0.001  0.001  0.094  0.095
   14  0.021  0.001  0.045  0.066
   15  0.006  0.000  0.032  0.038
   16  0.006  0.001  0.028  0.035
   17  0.000  0.002  0.005  0.007
   18  0.005  0.001  0.025  0.030
   19  0.000  0.000  0.014  0.014
   20  0.007  0.001  0.040  0.048
   21  0.000  0.001  0.032  0.033
   22  0.000  0.000  0.024  0.024
   23  0.010  0.001  0.044  0.054
   24  0.006  0.001  0.014  0.021
   25  0.000  0.000  0.016  0.016
   26  0.000  0.000  0.022  0.022
   27  0.009  0.001  0.010  0.020
   28  0.000  0.000  0.001  0.001
   29  0.001  0.000  0.004  0.004
   30  0.000  0.000  0.002  0.003
   31  0.001  0.000  0.005  0.006
   32  0.000  0.000  0.003  0.003
   33  0.002  0.000  0.005  0.007
   34  0.001  0.000  0.004  0.006
   35  0.000  0.000  0.006  0.006
   36  0.000  0.001  0.005  0.005
   37  0.000  0.000  0.000  0.000
tot    0.114  0.016  0.682  0.811
 
band    10 # energy   -5.65457306 # occ.  2.00000000
 
ion      s      p      d    tot
    1  0.000  0.000  0.004  0.004
    2  0.001  0.000  0.006  0.007
    3  0.000  0.000  0.002  0.003
    4  0.001  0.001  0.004  0.006
    5  0.000  0.000  0.009  0.009
    6  0.000  0.000  0.002  0.002
    7  0.001  0.001  0.006  0.008
    8  0.001  0.000  0.007  0.008
    9  0.000  0.000  0.001  0.001
   10  0.003  0.001  0.064  0.067
   11  0.005  0.001  0.084  0.089
   12  0.007  0.001  0.019  0.027
   13  0.032  0.001  0.016  0.049
   14  0.012  0.001  0.066  0.079
   15  0.001  0.001  0.009  0.012
   16  0.001  0.000  0.081  0.082
   17  0.007  0.000  0.036  0.043
   18  0.003  0.001  0.016  0.020
   19  0.000  0.000  0.020  0.021
   20  0.004  0.001  0.037  0.042
   21  0.011  0.001  0.045  0.057
   22  0.010  0.001  0.008  0.020
   23  0.002  0.001  0.034  0.036
   24  0.004  0.000  0.018  0.022
   25  0.000  0.000  0.018  0.019
   26  0.000  0.000  0.012  0.013
   27  0.001  0.000  0.022  0.023
   28  0.000  0.000  0.001  0.001
   29  0.001  0.000  0.004  0.005
   30  0.002  0.000  0.005  0.007
   31  0.000  0.000  0.003  0.003
   32  0.001  0.000  0.005  0.007
   33  0.000  0.000  0.003  0.003
   34  0.001  0.000  0.003  0.004
   35  0.000  0.000  0.006  0.006
   36  0.000  0.001  0.005  0.005
   37  0.000  0.000  0.000  0.000
tot    0.114  0.016  0.682  0.811
 
band    11 # energy   -5.62987130 # occ.  2.00000000
 
ion      s      p      d    tot
    1  0.000  0.000  0.003  0.003
    2  0.000  0.000  0.007  0.008
    3  0.000  0.000  0.007  0.008
    4  0.000  0.000  0.007  0.008
    5  0.006  0.001  0.001  0.008
    6  0.000  0.000  0.007  0.008
    7  0.000  0.000  0.007  0.008
    8  0.000  0.000  0.007  0.008
    9  0.000  0.000  0.007  0.007
   10  0.010  0.001  0.003  0.014
   11  0.012  0.001  0.049  0.062
   12  0.010  0.001  0.003  0.014
   13  0.012  0.001  0.049  0.062
   14  0.012  0.001  0.049  0.062
   15  0.001  0.000  0.047  0.048
   16  0.010  0.001  0.003  0.014
   17  0.001  0.000  0.047  0.048
   18  0.001  0.000  0.047  0.048
   19  0.012  0.001  0.023  0.036
   20  0.004  0.001  0.026  0.031
   21  0.004  0.001  0.026  0.031
   22  0.000  0.000  0.040  0.040
   23  0.004  0.001  0.026  0.031
   24  0.000  0.000  0.040  0.040
   25  0.012  0.001  0.023  0.036
   26  0.012  0.001  0.023  0.036
   27  0.000  0.000  0.040  0.040
   28  0.002  0.001  0.004  0.007
   29  0.000  0.000  0.004  0.004
   30  0.000  0.000  0.004  0.004
   31  0.000  0.000  0.004  0.004
   32  0.000  0.000  0.004  0.004
   33  0.000  0.000  0.004  0.004
   34  0.000  0.000  0.004  0.004
   35  0.002  0.000  0.001  0.003
   36  0.000  0.000  0.000  0.001
   37  0.000  0.000  0.000  0.000
tot    0.132  0.018  0.646  0.796
 
band    12 # energy   -5.60488494 # occ.  2.00000000
 
ion      s      p      d    tot
    1  0.002  0.000  0.019  0.021
    2  0.004  0.000  0.013  0.017
    3  0.004  0.000  0.013  0.017
    4  0.004  0.000  0.013  0.017
    5  0.001  0.000  0.004  0.005
    6  0.004  0.000  0.013  0.017
    7  0.004  0.000  0.013  0.017
    8  0.004  0.000  0.013  0.017
    9  0.012  0.000  0.010  0.022
   10  0.003  0.000  0.019  0.021
   11  0.002  0.000  0.011  0.013
   12  0.003  0.000  0.019  0.021
   13  0.002  0.000  0.011  0.013
   14  0.002  0.000  0.011  0.013
   15  0.000  0.000  0.014  0.014
   16  0.003  0.000  0.019  0.021
   17  0.000  0.000  0.014  0.015
   18  0.000  0.000  0.014  0.014
   19  0.001  0.001  0.009  0.011
   20  0.003  0.000  0.022  0.026
   21  0.003  0.000  0.022  0.026
   22  0.002  0.000  0.044  0.047
   23  0.003  0.000  0.022  0.026
   24  0.002  0.000  0.044  0.047
   25  0.001  0.001  0.009  0.011
   26  0.001  0.001  0.009  0.011
   27  0.002  0.000  0.044  0.047
   28  0.018  0.001  0.007  0.025
   29  0.008  0.000  0.021  0.028
   30  0.008  0.000  0.021  0.028
   31  0.008  0.000  0.021  0.028
   32  0.008  0.000  0.021  0.028
   33  0.008  0.000  0.021  0.029
   34  0.008  0.000  0.021  0.028
   35  0.007  0.000  0.039  0.046
   36  0.000  0.000  0.005  0.006
   37  0.001  0.000  0.000  0.001
tot    0.145  0.008  0.643  0.796
 
band    13 # energy   -5.59766411 # occ.  2.00000000
 
ion      s      p      d    tot
    1  0.000  0.001  0.009  0.010
    2  0.001  0.001  0.009  0.010
    3  0.000  0.000  0.006  0.007
    4  0.004  0.001  0.005  0.010
    5  0.000  0.000  0.008  0.009
    6  0.001  0.000  0.005  0.007
    7  0.005  0.001  0.006  0.012
    8  0.002  0.001  0.008  0.012
    9  0.000  0.000  0.011  0.011
   10  0.013  0.000  0.027  0.040
   11  0.000  0.000  0.028  0.029
   12  0.001  0.001  0.044  0.045
   13  0.000  0.000  0.015  0.016
   14  0.000  0.000  0.024  0.025
   15  0.013  0.000  0.018  0.031
   16  0.018  0.000  0.019  0.038
   17  0.000  0.000  0.078  0.079
   18  0.009  0.000  0.037  0.046
   19  0.006  0.000  0.017  0.023
   20  0.001  0.000  0.028  0.029
   21  0.000  0.000  0.017  0.017
   22  0.000  0.000  0.043  0.044
   23  0.001  0.000  0.033  0.034
   24  0.009  0.000  0.025  0.034
   25  0.004  0.000  0.031  0.035
   26  0.000  0.000  0.061  0.061
   27  0.014  0.000  0.016  0.030
   28  0.000  0.000  0.011  0.011
   29  0.004  0.001  0.007  0.012
   30  0.004  0.001  0.005  0.009
   31  0.000  0.000  0.004  0.004
   32  0.003  0.000  0.004  0.007
   33  0.000  0.000  0.005  0.006
   34  0.002  0.001  0.007  0.010
   35  0.000  0.000  0.005  0.005
   36  0.000  0.000  0.003  0.003
   37  0.000  0.000  0.000  0.000
tot    0.117  0.014  0.679  0.810
 
band    14 # energy   -5.59765398 # occ.  2.00000000
 
ion      s      p      d    tot
    1  0.000  0.001  0.009  0.010
    2  0.004  0.001  0.005  0.009
    3  0.004  0.001  0.007  0.012
    4  0.000  0.000  0.008  0.009
    5  0.000  0.000  0.008  0.009
    6  0.003  0.001  0.008  0.012
    7  0.000  0.000  0.007  0.007
    8  0.002  0.000  0.005  0.008
    9  0.000  0.000  0.011  0.011
   10  0.008  0.000  0.033  0.042
   11  0.000  0.000  0.017  0.017
   12  0.021  0.000  0.016  0.037
   13  0.000  0.000  0.030  0.030
   14  0.000  0.000  0.021  0.022
   15  0.002  0.000  0.071  0.073
   16  0.003  0.000  0.041  0.044
   17  0.015  0.000  0.010  0.025
   18  0.006  0.000  0.052  0.058
   19  0.001  0.000  0.055  0.056
   20  0.000  0.000  0.024  0.025
   21  0.001  0.000  0.035  0.036
   22  0.015  0.000  0.013  0.028
   23  0.000  0.000  0.019  0.019
   24  0.006  0.000  0.031  0.038
   25  0.003  0.000  0.041  0.044
   26  0.007  0.000  0.011  0.019
   27  0.002  0.000  0.040  0.042
   28  0.000  0.000  0.011  0.011
   29  0.001  0.000  0.004  0.004
   30  0.000  0.000  0.006  0.007
   31  0.004  0.001  0.007  0.012
   32  0.002  0.000  0.007  0.009
   33  0.004  0.001  0.005  0.010
   34  0.002  0.000  0.003  0.006
   35  0.000  0.000  0.005  0.005
   36  0.000  0.000  0.003  0.003
   37  0.000  0.000  0.000  0.000
tot    0.117  0.014  0.679  0.810
 
band    15 # energy   -5.58871385 # occ.  2.00000000
 
ion      s      p      d    tot
    1  0.000  0.000  0.008  0.008
    2  0.001  0.000  0.007  0.008
    3  0.001  0.000  0.005  0.006
    4  0.000  0.000  0.008  0.008
    5  0.000  0.000  0.002  0.002
    6  0.001  0.000  0.005  0.006
    7  0.000  0.000  0.008  0.008
    8  0.001  0.000  0.006  0.008
    9  0.000  0.000  0.015  0.015
   10  0.001  0.000  0.036  0.037
   11  0.001  0.000  0.026  0.027
   12  0.000  0.000  0.008  0.008
   13  0.000  0.000  0.054  0.055
   14  0.001  0.000  0.025  0.026
   15  0.005  0.000  0.037  0.042
   16  0.001  0.000  0.034  0.035
   17  0.000  0.000  0.081  0.081
   18  0.005  0.000  0.035  0.041
   19  0.003  0.000  0.029  0.033
   20  0.000  0.000  0.038  0.039
   21  0.000  0.000  0.012  0.013
   22  0.000  0.000  0.046  0.046
   23  0.000  0.000  0.037  0.038
   24  0.005  0.000  0.037  0.042
   25  0.004  0.000  0.026  0.030
   26  0.000  0.000  0.086  0.086
   27  0.004  0.000  0.038  0.042
   28  0.000  0.000  0.008  0.008
   29  0.000  0.000  0.008  0.009
   30  0.000  0.000  0.005  0.005
   31  0.001  0.000  0.005  0.006
   32  0.000  0.000  0.005  0.005
   33  0.001  0.000  0.004  0.006
   34  0.000  0.000  0.008  0.009
   35  0.000  0.000  0.012  0.012
   36  0.000  0.000  0.001  0.001
   37  0.000  0.000  0.000  0.000
tot    0.039  0.006  0.808  0.853
 
band    16 # energy   -5.58868278 # occ.  2.00000000
 
ion      s      p      d    tot
    1  0.000  0.000  0.008  0.008
    2  0.000  0.000  0.006  0.007
    3  0.000  0.000  0.008  0.009
    4  0.002  0.000  0.005  0.006
    5  0.000  0.000  0.002  0.002
    6  0.000  0.000  0.008  0.009
    7  0.002  0.000  0.005  0.006
    8  0.000  0.000  0.006  0.007
    9  0.000  0.000  0.015  0.015
   10  0.000  0.000  0.017  0.017
   11  0.000  0.000  0.044  0.045
   12  0.002  0.000  0.044  0.045
   13  0.002  0.000  0.015  0.017
   14  0.000  0.000  0.045  0.046
   15  0.002  0.000  0.065  0.067
   16  0.000  0.000  0.018  0.018
   17  0.006  0.000  0.022  0.029
   18  0.001  0.000  0.067  0.068
   19  0.001  0.000  0.066  0.067
   20  0.000  0.000  0.020  0.021
   21  0.000  0.000  0.047  0.047
   22  0.006  0.000  0.034  0.040
   23  0.000  0.000  0.021  0.022
   24  0.001  0.000  0.044  0.045
   25  0.001  0.000  0.068  0.069
   26  0.005  0.000  0.008  0.013
   27  0.002  0.000  0.043  0.045
   28  0.000  0.000  0.008  0.008
   29  0.001  0.000  0.003  0.005
   30  0.001  0.000  0.007  0.008
   31  0.000  0.000  0.007  0.007
   32  0.001  0.000  0.007  0.008
   33  0.000  0.000  0.007  0.007
   34  0.001  0.000  0.003  0.005
   35  0.000  0.000  0.012  0.012
   36  0.000  0.000  0.001  0.001
   37  0.000  0.000  0.000  0.000
tot    0.039  0.006  0.808  0.853
 
band    17 # energy   -5.58725307 # occ.  2.00000000
 
ion      s      p      d    tot
    1  0.004  0.000  0.007  0.011
    2  0.000  0.000  0.008  0.009
    3  0.000  0.000  0.008  0.009
    4  0.000  0.000  0.008  0.009
    5  0.001  0.000  0.001  0.003
    6  0.000  0.000  0.008  0.009
    7  0.000  0.000  0.008  0.009
    8  0.000  0.000  0.008  0.009
    9  0.000  0.000  0.005  0.005
   10  0.000  0.000  0.056  0.056
   11  0.004  0.000  0.004  0.008
   12  0.000  0.000  0.056  0.056
   13  0.004  0.000  0.004  0.008
   14  0.004  0.000  0.004  0.008
   15  0.003  0.000  0.050  0.053
   16  0.000  0.000  0.056  0.056
   17  0.003  0.000  0.050  0.053
   18  0.003  0.000  0.050  0.053
   19  0.002  0.000  0.054  0.057
   20  0.001  0.001  0.013  0.014
   21  0.001  0.001  0.013  0.014
   22  0.000  0.000  0.039  0.039
   23  0.001  0.001  0.013  0.014
   24  0.000  0.000  0.038  0.039
   25  0.002  0.000  0.054  0.057
   26  0.002  0.000  0.054  0.056
   27  0.000  0.000  0.038  0.039
   28  0.001  0.000  0.016  0.017
   29  0.000  0.000  0.011  0.012
   30  0.000  0.000  0.011  0.012
   31  0.000  0.000  0.011  0.012
   32  0.000  0.000  0.011  0.012
   33  0.000  0.000  0.011  0.012
   34  0.000  0.000  0.011  0.012
   35  0.001  0.000  0.000  0.001
   36  0.003  0.003  0.000  0.007
   37  0.003  0.000  0.000  0.003
tot    0.049  0.010  0.792  0.850
 
band    18 # energy   -5.47632495 # occ.  2.00000000
 
ion      s      p      d    tot
    1  0.000  0.000  0.001  0.001
    2  0.000  0.000  0.007  0.008
    3  0.000  0.000  0.007  0.008
    4  0.001  0.001  0.006  0.008
    5  0.000  0.001  0.016  0.017
    6  0.001  0.001  0.005  0.007
    7  0.000  0.000  0.006  0.007
    8  0.001  0.000  0.006  0.007
    9  0.000  0.000  0.009  0.009
   10  0.001  0.001  0.022  0.023
   11  0.000  0.000  0.079  0.079
   12  0.000  0.001  0.020  0.021
   13  0.002  0.000  0.059  0.062
   14  0.003  0.000  0.052  0.055
   15  0.000  0.000  0.008  0.008
   16  0.000  0.000  0.015  0.016
   17  0.002  0.000  0.017  0.020
   18  0.002  0.000  0.021  0.024
   19  0.000  0.000  0.001  0.001
   20  0.002  0.000  0.083  0.085
   21  0.002  0.000  0.093  0.094
   22  0.000  0.001  0.025  0.026
   23  0.000  0.000  0.118  0.119
   24  0.000  0.001  0.022  0.024
   25  0.001  0.001  0.022  0.023
   26  0.001  0.001  0.016  0.017
   27  0.000  0.000  0.033  0.033
   28  0.000  0.000  0.004  0.004
   29  0.000  0.000  0.006  0.007
   30  0.000  0.000  0.007  0.007
   31  0.001  0.000  0.007  0.008
   32  0.001  0.001  0.007  0.009
   33  0.001  0.000  0.009  0.010
   34  0.001  0.001  0.009  0.010
   35  0.000  0.000  0.000  0.000
   36  0.000  0.003  0.008  0.012
   37  0.000  0.000  0.000  0.000
tot    0.025  0.017  0.828  0.869
 
band    19 # energy   -5.47631172 # occ.  2.00000000
 
ion      s      p      d    tot
    1  0.000  0.000  0.001  0.001
    2  0.001  0.000  0.005  0.007
    3  0.001  0.000  0.005  0.007
    4  0.000  0.000  0.007  0.007
    5  0.000  0.001  0.016  0.017
    6  0.000  0.000  0.007  0.007
    7  0.001  0.001  0.006  0.008
    8  0.001  0.001  0.007  0.008
    9  0.000  0.000  0.009  0.009
   10  0.000  0.000  0.016  0.017
   11  0.003  0.000  0.048  0.051
   12  0.000  0.001  0.018  0.019
   13  0.001  0.000  0.068  0.069
   14  0.000  0.000  0.075  0.076
   15  0.003  0.001  0.023  0.027
   16  0.001  0.001  0.023  0.025
   17  0.001  0.000  0.013  0.015
   18  0.000  0.000  0.010  0.010
   19  0.001  0.001  0.025  0.027
   20  0.000  0.000  0.113  0.114
   21  0.001  0.000  0.103  0.105
   22  0.000  0.001  0.028  0.029
   23  0.003  0.000  0.078  0.080
   24  0.000  0.000  0.031  0.031
   25  0.000  0.000  0.004  0.005
   26  0.000  0.000  0.010  0.011
   27  0.000  0.001  0.021  0.022
   28  0.000  0.000  0.004  0.004
   29  0.001  0.001  0.008  0.010
   30  0.001  0.001  0.008  0.010
   31  0.000  0.000  0.008  0.009
   32  0.000  0.000  0.008  0.008
   33  0.001  0.000  0.006  0.007
   34  0.000  0.000  0.006  0.007
   35  0.000  0.000  0.000  0.000
   36  0.000  0.003  0.008  0.012
   37  0.000  0.000  0.000  0.000
tot    0.025  0.017  0.828  0.869
 
band    20 # energy   -5.45173298 # occ.  2.00000000
 
ion      s      p      d    tot
    1  0.001  0.000  0.000  0.001
    2  0.000  0.000  0.004  0.005
    3  0.000  0.000  0.004  0.005
    4  0.000  0.000  0.004  0.005
    5  0.001  0.001  0.015  0.016
    6  0.000  0.000  0.004  0.005
    7  0.000  0.000  0.004  0.005
    8  0.000  0.000  0.004  0.005
    9  0.002  0.001  0.008  0.010
   10  0.000  0.000  0.014  0.014
   11  0.000  0.001  0.079  0.079
   12  0.000  0.000  0.014  0.014
   13  0.000  0.001  0.079  0.080
   14  0.000  0.001  0.079  0.079
   15  0.000  0.001  0.038  0.039
   16  0.000  0.000  0.014  0.014
   17  0.000  0.001  0.038  0.039
   18  0.000  0.001  0.038  0.039
   19  0.000  0.000  0.017  0.017
   20  0.001  0.001  0.068  0.070
   21  0.001  0.001  0.068  0.070
   22  0.002  0.000  0.021  0.024
   23  0.001  0.001  0.068  0.070
   24  0.002  0.000  0.021  0.024
   25  0.000  0.000  0.016  0.017
   26  0.000  0.000  0.017  0.017
   27  0.002  0.000  0.021  0.024
   28  0.003  0.001  0.002  0.005
   29  0.000  0.000  0.011  0.012
   30  0.000  0.000  0.011  0.012
   31  0.000  0.000  0.011  0.012
   32  0.000  0.000  0.011  0.012
   33  0.000  0.000  0.011  0.012
   34  0.000  0.000  0.011  0.012
   35  0.004  0.000  0.002  0.007
   36  0.000  0.003  0.001  0.004
   37  0.002  0.000  0.000  0.002
tot    0.024  0.015  0.830  0.870
 
band    21 # energy   -5.42826508 # occ.  2.00000000
 
ion      s      p      d    tot
    1  0.000  0.000  0.002  0.002
    2  0.000  0.001  0.015  0.016
    3  0.000  0.001  0.015  0.016
    4  0.000  0.001  0.015  0.016
    5  0.005  0.001  0.001  0.007
    6  0.000  0.001  0.015  0.016
    7  0.000  0.001  0.015  0.016
    8  0.000  0.001  0.015  0.016
    9  0.003  0.000  0.002  0.006
   10  0.003  0.000  0.038  0.041
   11  0.000  0.000  0.027  0.027
   12  0.003  0.000  0.038  0.041
   13  0.000  0.000  0.027  0.027
   14  0.000  0.000  0.027  0.027
   15  0.005  0.000  0.019  0.024
   16  0.003  0.000  0.038  0.041
   17  0.005  0.000  0.019  0.024
   18  0.005  0.000  0.019  0.024
   19  0.001  0.000  0.051  0.052
   20  0.000  0.000  0.011  0.012
   21  0.000  0.000  0.011  0.012
   22  0.001  0.001  0.041  0.043
   23  0.000  0.000  0.011  0.012
   24  0.001  0.001  0.041  0.043
   25  0.001  0.000  0.051  0.052
   26  0.001  0.000  0.051  0.052
   27  0.001  0.001  0.041  0.043
   28  0.002  0.000  0.024  0.027
   29  0.001  0.000  0.015  0.016
   30  0.001  0.000  0.015  0.016
   31  0.001  0.000  0.015  0.016
   32  0.001  0.000  0.015  0.016
   33  0.001  0.000  0.015  0.016
   34  0.001  0.000  0.015  0.016
   35  0.006  0.001  0.000  0.007
   36  0.004  0.001  0.000  0.005