 vasp.6.2.0 18Jan21 (build Jun 12 2021 23:27:24) complex                        
  
 executed on             LinuxIFC date 2022.05.28  01:23:13
 running on   28 total cores
 distrk:  each k-point on   28 cores,    1 groups
 distr:  one band on NCORE=   1 cores,   28 groups


--------------------------------------------------------------------------------------------------------


 INCAR:
   ISMEAR = -5
   SIGMA = 0.1
   ISPIN = 1
   EDIFF = 1.d-5
   EDIFFG = -0.01
   NSW = 0
   NELM = 150
   ENCUT = 500
   ISIF = 2
   IBRION = 2
   LREAL = Auto
   ALGO = Fast
   ICHARG = 11
   LORBIT = 10
   LCHARG = .F.
   LWAVE = .F.

 POTCAR:    PAW_PBE Ag 02Apr2005                  
 POTCAR:    PAW_PBE Ti 08Apr2002                  
 POTCAR:    PAW_PBE H 15Jun2001                   
 POTCAR:    PAW_PBE O 08Apr2002                   
 -----------------------------------------------------------------------------
|                                                                             |
|           W    W    AA    RRRRR   N    N  II  N    N   GGGG   !!!           |
|           W    W   A  A   R    R  NN   N  II  NN   N  G    G  !!!           |
|           W    W  A    A  R    R  N N  N  II  N N  N  G       !!!           |
|           W WW W  AAAAAA  RRRRR   N  N N  II  N  N N  G  GGG   !            |
|           WW  WW  A    A  R   R   N   NN  II  N   NN  G    G                |
|           W    W  A    A  R    R  N    N  II  N    N   GGGG   !!!           |
|                                                                             |
|     For optimal performance we recommend to set                             |
|       NCORE = 2 up to number-of-cores-per-socket                            |
|     NCORE specifies how many cores store one orbital (NPAR=cpu/NCORE).      |
|     This setting can greatly improve the performance of VASP for DFT.       |
|     The default, NCORE=1 might be grossly inefficient on modern             |
|     multi-core architectures or massively parallel machines. Do your        |
|     own testing! More info at https://www.vasp.at/wiki/index.php/NCORE      |
|     Unfortunately you need to use the default for GW and RPA                |
|     calculations (for HF NCORE is supported but not extensively tested      |
|     yet).                                                                   |
|                                                                             |
 -----------------------------------------------------------------------------

 POTCAR:    PAW_PBE Ag 02Apr2005                  
   VRHFIN =Ag : s1 d10                                                                              
   LEXCH  = PE                                                                                      
   EATOM  =  1037.2675 eV,   76.2370 Ry                                                             
                                                                                                    
   TITEL  = PAW_PBE Ag 02Apr2005                                                                    
   LULTRA =        F    use ultrasoft PP ?                                                          
   IUNSCR =        1    unscreen: 0-lin 1-nonlin 2-no                                               
   RPACOR =    2.000    partial core radius                                                         
   POMASS =  107.868; ZVAL   =   11.000    mass and valenz                                          
   RCORE  =    2.500    outmost cutoff radius                                                       
   RWIGS  =    2.840; RWIGS  =    1.503    wigner-seitz radius (au A)                               
   ENMAX  =  249.844; ENMIN  =  187.383 eV                                                          
   ICORE  =        3    local potential                                                             
   LCOR   =        T    correct aug charges                                                         
   LPAW   =        T    paw PP                                                                      
   EAUG   =  412.496                                                                                
   DEXC   =    0.000                                                                                
   RMAX   =    2.560    core radius for proj-oper                                                   
   RAUG   =    1.300    factor for augmentation sphere                                              
   RDEP   =    2.576    radius for radial grids                                                     
   RDEPT  =    2.072    core radius for aug-charge                                                  
                                                                                                    
   Atomic configuration                                                                             
   12 entries                                                                                       
     n  l   j            E        occ.                                                              
     1  0  0.50    -25324.9161   2.0000                                                             
     2  0  0.50     -3728.5341   2.0000                                                             
     2  1  1.50     -3344.0404   6.0000                                                             
     3  0  0.50      -683.5581   2.0000                                                             
     3  1  1.50      -557.3225   6.0000                                                             
     3  2  2.50      -358.3853  10.0000                                                             
     4  0  0.50       -95.0341   2.0000                                                             
     4  1  1.50       -58.5511   6.0000                                                             
     4  2  2.50        -7.4440  10.0000                                                             
     5  0  0.50        -4.4045   1.0000                                                             
     5  1  0.50        -1.3606   0.0000                                                             
     4  3  2.50        -1.3606   0.0000                                                             
   Description                                                                                      
     l       E           TYP  RCUT    TYP  RCUT                                                     
     2     -7.4439781     23  2.400                                                                 
     2     -8.8045607     23  2.400                                                                 
     0     -4.4044681     23  2.400                                                                 
     0      1.9520038     23  2.400                                                                 
     1     -1.3605826     23  2.500                                                                 
     1     27.2116520     23  2.500                                                                 
     3     -4.0817478     23  2.400                                                                 
  local pseudopotential read in
  partial core-charges read in
  partial kinetic energy density read in
  atomic valenz-charges read in
  non local Contribution for L=           2  read in
    real space projection operators read in
  non local Contribution for L=           2  read in
    real space projection operators read in
  non local Contribution for L=           0  read in
    real space projection operators read in
  non local Contribution for L=           0  read in
    real space projection operators read in
  non local Contribution for L=           1  read in
    real space projection operators read in
  non local Contribution for L=           1  read in
    real space projection operators read in
    PAW grid and wavefunctions read in
 
   number of l-projection  operators is LMAX  =           6
   number of lm-projection operators is LMMAX =          18
 
 POTCAR:    PAW_PBE Ti 08Apr2002                  
   VRHFIN =Ti: d3 s1                                                                                
   LEXCH  = PE                                                                                      
   EATOM  =    94.7928 eV,    6.9671 Ry                                                             
                                                                                                    
   TITEL  = PAW_PBE Ti 08Apr2002                                                                    
   LULTRA =        F    use ultrasoft PP ?                                                          
   IUNSCR =        1    unscreen: 0-lin 1-nonlin 2-no                                               
   RPACOR =    2.200    partial core radius                                                         
   POMASS =   47.880; ZVAL   =    4.000    mass and valenz                                          
   RCORE  =    2.800    outmost cutoff radius                                                       
   RWIGS  =    2.500; RWIGS  =    1.323    wigner-seitz radius (au A)                               
   ENMAX  =  178.330; ENMIN  =  133.747 eV                                                          
   RCLOC  =    2.215    cutoff for local pot                                                        
   LCOR   =        T    correct aug charges                                                         
   LPAW   =        T    paw PP                                                                      
   EAUG   =  328.883                                                                                
   DEXC   =    0.000                                                                                
   RMAX   =    2.868    core radius for proj-oper                                                   
   RAUG   =    1.300    factor for augmentation sphere                                              
   RDEP   =    2.885    radius for radial grids                                                     
   RDEPT  =    2.320    core radius for aug-charge                                                  
                                                                                                    
   Atomic configuration                                                                             
    9 entries                                                                                       
     n  l   j            E        occ.                                                              
     1  0  0.50     -4865.3608   2.0000                                                             
     2  0  0.50      -533.1367   2.0000                                                             
     2  1  1.50      -440.5031   6.0000                                                             
     3  0  0.50       -59.3186   2.0000                                                             
     3  1  1.50       -35.7012   6.0000                                                             
     3  2  2.50        -1.9157   3.0000                                                             
     4  0  0.50        -3.7291   1.0000                                                             
     4  1  1.50        -4.0817   0.0000                                                             
     4  3  2.50        -1.3606   0.0000                                                             
   Description                                                                                      
     l       E           TYP  RCUT    TYP  RCUT                                                     
     2     -1.9156924     23  2.800                                                                 
     2     -0.4062961     23  2.800                                                                 
     0     -3.7290832     23  2.800                                                                 
     0     20.4087390     23  2.800                                                                 
     1     -5.4423304     23  2.800                                                                 
  local pseudopotential read in
  partial core-charges read in
  partial kinetic energy density read in
  atomic valenz-charges read in
  non local Contribution for L=           2  read in
    real space projection operators read in
  non local Contribution for L=           2  read in
    real space projection operators read in
  non local Contribution for L=           0  read in
    real space projection operators read in
  non local Contribution for L=           0  read in
    real space projection operators read in
  non local Contribution for L=           1  read in
    real space projection operators read in
    PAW grid and wavefunctions read in
 
   number of l-projection  operators is LMAX  =           5
   number of lm-projection operators is LMMAX =          15
 
 POTCAR:    PAW_PBE H 15Jun2001                   
   VRHFIN =H: ultrasoft test                                                                        
   LEXCH  = PE                                                                                      
   EATOM  =    12.4884 eV,    0.9179 Ry                                                             
                                                                                                    
   TITEL  = PAW_PBE H 15Jun2001                                                                     
   LULTRA =        F    use ultrasoft PP ?                                                          
   IUNSCR =        0    unscreen: 0-lin 1-nonlin 2-no                                               
   RPACOR =    0.000    partial core radius                                                         
   POMASS =    1.000; ZVAL   =    1.000    mass and valenz                                          
   RCORE  =    1.100    outmost cutoff radius                                                       
   RWIGS  =    0.700; RWIGS  =    0.370    wigner-seitz radius (au A)                               
   ENMAX  =  250.000; ENMIN  =  200.000 eV                                                          
   RCLOC  =    0.701    cutoff for local pot                                                        
   LCOR   =        T    correct aug charges                                                         
   LPAW   =        T    paw PP                                                                      
   EAUG   =  400.000                                                                                
   RMAX   =    1.123    core radius for proj-oper                                                   
   RAUG   =    1.200    factor for augmentation sphere                                              
   RDEP   =    1.112    radius for radial grids                                                     
   RDEPT  =    0.926    core radius for aug-charge                                                  
                                                                                                    
   Atomic configuration                                                                             
    2 entries                                                                                       
     n  l   j            E        occ.                                                              
     1  0  0.50        -6.4927   1.0000                                                             
     2  1  0.50        -3.4015   0.0000                                                             
   Description                                                                                      
     l       E           TYP  RCUT    TYP  RCUT                                                     
     0     -6.4927494     23  1.100                                                                 
     0      6.8029130     23  1.100                                                                 
     1     -4.0817478     23  1.100                                                                 
  local pseudopotential read in
  atomic valenz-charges read in
  non local Contribution for L=           0  read in
    real space projection operators read in
  non local Contribution for L=           0  read in
    real space projection operators read in
  non local Contribution for L=           1  read in
    real space projection operators read in
    PAW grid and wavefunctions read in
 
   number of l-projection  operators is LMAX  =           3
   number of lm-projection operators is LMMAX =           5
 
 POTCAR:    PAW_PBE O 08Apr2002                   
   VRHFIN =O: s2p4                                                                                  
   LEXCH  = PE                                                                                      
   EATOM  =   432.3788 eV,   31.7789 Ry                                                             
                                                                                                    
   TITEL  = PAW_PBE O 08Apr2002                                                                     
   LULTRA =        F    use ultrasoft PP ?                                                          
   IUNSCR =        1    unscreen: 0-lin 1-nonlin 2-no                                               
   RPACOR =    1.200    partial core radius                                                         
   POMASS =   16.000; ZVAL   =    6.000    mass and valenz                                          
   RCORE  =    1.520    outmost cutoff radius                                                       
   RWIGS  =    1.550; RWIGS  =    0.820    wigner-seitz radius (au A)                               
   ENMAX  =  400.000; ENMIN  =  300.000 eV                                                          
   ICORE  =        2    local potential                                                             
   LCOR   =        T    correct aug charges                                                         
   LPAW   =        T    paw PP                                                                      
   EAUG   =  605.392                                                                                
   DEXC   =    0.000                                                                                
   RMAX   =    1.553    core radius for proj-oper                                                   
   RAUG   =    1.300    factor for augmentation sphere                                              
   RDEP   =    1.550    radius for radial grids                                                     
   RDEPT  =    1.329    core radius for aug-charge                                                  
                                                                                                    
   Atomic configuration                                                                             
    4 entries                                                                                       
     n  l   j            E        occ.                                                              
     1  0  0.50      -514.6923   2.0000                                                             
     2  0  0.50       -23.9615   2.0000                                                             
     2  1  0.50        -9.0305   4.0000                                                             
     3  2  1.50        -9.5241   0.0000                                                             
   Description                                                                                      
     l       E           TYP  RCUT    TYP  RCUT                                                     
     0    -23.9615318     23  1.200                                                                 
     0     -9.5240782     23  1.200                                                                 
     1     -9.0304911     23  1.520                                                                 
     1      8.1634956     23  1.520                                                                 
     2     -9.5240782      7  1.500                                                                 
  local pseudopotential read in
  partial core-charges read in
  partial kinetic energy density read in
  kinetic energy density of atom read in
  atomic valenz-charges read in
  non local Contribution for L=           0  read in
    real space projection operators read in
  non local Contribution for L=           0  read in
    real space projection operators read in
  non local Contribution for L=           1  read in
    real space projection operators read in
  non local Contribution for L=           1  read in
    real space projection operators read in
    PAW grid and wavefunctions read in
 
   number of l-projection  operators is LMAX  =           4
   number of lm-projection operators is LMMAX =           8
 
 Optimization of the real space projectors (new method)

 maximal supplied QI-value         = 15.12
 optimisation between [QCUT,QGAM] = [ 11.34, 22.83] = [ 36.00,145.93] Ry 
 Optimized for a Real-space Cutoff    1.43 Angstroem

   l    n(q)    QCUT    max X(q) W(low)/X(q) W(high)/X(q)  e(spline) 
   2      9    11.338    53.897    0.16E-03    0.20E-03    0.28E-06
   2      9    11.338    52.416    0.16E-03    0.20E-03    0.29E-06
   0     10    11.338   122.045    0.31E-04    0.76E-04    0.15E-06
   0     10    11.338    73.629    0.30E-04    0.72E-04    0.15E-06
   1      9    11.338    15.255    0.20E-03    0.19E-04    0.17E-06
   1      9    11.338     9.562    0.16E-03    0.15E-04    0.14E-06
 Optimization of the real space projectors (new method)

 maximal supplied QI-value         = 13.42
 optimisation between [QCUT,QGAM] = [ 11.40, 22.81] = [ 36.42,145.68] Ry 
 Optimized for a Real-space Cutoff    1.56 Angstroem

   l    n(q)    QCUT    max X(q) W(low)/X(q) W(high)/X(q)  e(spline) 
   2     10    11.404    49.363    0.27E-03    0.67E-03    0.76E-06
   2     10    11.404    47.669    0.26E-03    0.65E-03    0.73E-06
   0     11    11.404    26.374    0.17E-03    0.20E-03    0.34E-06
   0     11    11.404    11.549    0.14E-03    0.16E-03    0.29E-06
   1     10    11.404     9.492    0.33E-04    0.56E-04    0.16E-06
 Optimization of the real space projectors (new method)

 maximal supplied QI-value         = 34.20
 optimisation between [QCUT,QGAM] = [ 11.29, 22.57] = [ 35.68,142.71] Ry 
 Optimized for a Real-space Cutoff    1.16 Angstroem

   l    n(q)    QCUT    max X(q) W(low)/X(q) W(high)/X(q)  e(spline) 
   0      8    11.287    19.460    0.40E-03    0.73E-03    0.16E-06
   0      8    11.287    12.209    0.38E-03    0.70E-03    0.15E-06
   1      7    11.287     4.655    0.22E-03    0.25E-04    0.22E-06
 Optimization of the real space projectors (new method)

 maximal supplied QI-value         = 24.76
 optimisation between [QCUT,QGAM] = [ 11.39, 22.77] = [ 36.31,145.25] Ry 
 Optimized for a Real-space Cutoff    1.00 Angstroem

   l    n(q)    QCUT    max X(q) W(low)/X(q) W(high)/X(q)  e(spline) 
   0      7    11.387    20.381    0.39E-03    0.13E-02    0.15E-06
   0      7    11.387    15.268    0.42E-03    0.14E-02    0.17E-06
   1      6    11.387     5.964    0.41E-03    0.11E-02    0.17E-06
   1      6    11.387     5.382    0.39E-03    0.87E-03    0.15E-06
  PAW_PBE Ag 02Apr2005                  :
 energy of atom  1       EATOM=-1037.2675
 kinetic energy error for atom=    0.0052 (will be added to EATOM!!)
  PAW_PBE Ti 08Apr2002                  :
 energy of atom  2       EATOM=  -94.7928
 kinetic energy error for atom=    0.0002 (will be added to EATOM!!)
  PAW_PBE H 15Jun2001                   :
 energy of atom  3       EATOM=  -12.4884
 kinetic energy error for atom=    0.0020 (will be added to EATOM!!)
  PAW_PBE O 08Apr2002                   :
 energy of atom  4       EATOM= -432.3788
 kinetic energy error for atom=    0.0224 (will be added to EATOM!!)
 
 
 POSCAR: Ag-Ti-H2O
  positions in direct lattice
  velocities in cartesian coordinates
 exchange correlation table for  LEXCH =        8
   RHO(1)=    0.500       N(1)  =     2000
   RHO(2)=  100.500       N(2)  =     4000

 VTST: version 3.2, (02/03/18)

 CHAIN: initializing optimizer
 
 OPT: Using VASP Conjugate-Gradient optimizer
 CHAIN: Read ICHAIN            0
 
 POSCAR: Ag-Ti-H2O
  positions in direct lattice
  velocities in cartesian coordinates
 


--------------------------------------------------------------------------------------------------------


 ion  position               nearest neighbor table
   1  0.000  0.000  0.212-   2 2.93   8 2.93   7 2.93   6 2.93   4 2.93  12 2.93  16 2.93  10 2.93
                             3 2.93
   2  0.333  0.000  0.212-   1 2.93   8 2.93   9 2.93   3 2.93   4 2.93   5 2.93  10 2.93  17 2.93
                            11 2.93
   3  0.667  0.000  0.212-   9 2.93   2 2.93   5 2.93  11 2.93   7 2.93  18 2.93   1 2.93   6 2.93
                            12 2.93
   4  0.000  0.333  0.212-   5 2.93   6 2.93   2 2.93   1 2.93   7 2.93  13 2.93  15 2.93   9 2.93
                            10 2.93
   5  0.333  0.333  0.212-   4 2.93   3 2.93   7 2.93   2 2.93   8 2.93  14 2.93  13 2.93  11 2.93
                             6 2.93
   6  0.667  0.333  0.212-   4 2.93   9 2.93   1 2.93  15 2.93   8 2.93  12 2.93   3 2.93   5 2.93
                            14 2.93
   7  0.000  0.667  0.212-   8 2.93   1 2.93   5 2.93   3 2.93   4 2.93  16 2.93  18 2.93  13 2.93
                             9 2.93
   8  0.333  0.667  0.212-   7 2.93   1 2.93   2 2.93   9 2.93   5 2.93  16 2.93   6 2.93  17 2.93
                            14 2.93
   9  0.667  0.667  0.212-   3 2.93   2 2.93   8 2.93   6 2.93  17 2.93   4 2.93  15 2.93   7 2.93
                            18 2.93
  10  0.111  0.111  0.308-  20 2.91  19 2.92  26 2.92  12 2.93  16 2.93  15 2.93  17 2.93  13 2.93
                            11 2.93   2 2.93   1 2.93   4 2.93
  11  0.444  0.111  0.308-  21 2.91  20 2.91  27 2.92  14 2.93  17 2.93  18 2.93   3 2.93  12 2.93
                            13 2.93  10 2.93   5 2.93   2 2.93
  12  0.778  0.111  0.308-  21 2.91  25 2.92  19 2.92  10 2.93  16 2.93  18 2.93  15 2.93  11 2.93
                             1 2.93  14 2.93   6 2.93   3 2.93
  13  0.111  0.444  0.308-  20 2.91  23 2.91  22 2.92  15 2.93  14 2.93  18 2.93  10 2.93  11 2.93
                            16 2.93   4 2.93   5 2.93   7 2.93
  14  0.444  0.444  0.308-  23 2.91  21 2.91  24 2.92  13 2.93  11 2.93  16 2.93   5 2.93  12 2.93
                            17 2.93   8 2.93  15 2.93   6 2.93
  15  0.778  0.444  0.308-  19 2.92  24 2.92  22 2.92  13 2.93  10 2.93  12 2.93  17 2.93  18 2.93
                             4 2.93   6 2.93   9 2.93  14 2.93
  16  0.111  0.778  0.308-  23 2.91  26 2.92  25 2.92  18 2.93  12 2.93  10 2.93  14 2.93  17 2.93
                            13 2.93   7 2.93   8 2.93   1 2.93
  17  0.444  0.778  0.308-  26 2.92  27 2.92  24 2.92  11 2.93  10 2.93   9 2.93  18 2.93  15 2.93
                            16 2.93   2 2.93  14 2.93   8 2.93
  18  0.778  0.778  0.308-  25 2.92  22 2.92  27 2.92  16 2.93  12 2.93  13 2.93  11 2.93  17 2.93
                            15 2.93   7 2.93   3 2.93   9 2.93
  19  0.889  0.222  0.403-  10 2.92  12 2.92  15 2.92  28 2.92  26 2.93  25 2.93  24 2.93  22 2.93
                            20 2.94  21 2.94  32 2.96  31 2.96
  20  0.223  0.223  0.402-  36 2.82  13 2.91  11 2.91  10 2.91  21 2.92  23 2.92  27 2.93  22 2.93
                            19 2.94  26 2.94  31 2.94  29 2.94
  21  0.555  0.223  0.402-  36 2.82  11 2.91  14 2.91  12 2.91  20 2.92  23 2.92  27 2.93  24 2.93
                            25 2.94  19 2.94  30 2.94  32 2.94
  22  0.889  0.556  0.403-  18 2.92  15 2.92  13 2.92  24 2.93  27 2.93  25 2.93  19 2.93  35 2.93
                            23 2.93  20 2.93  33 2.94  31 2.94
  23  0.223  0.555  0.402-  36 2.82  14 2.91  13 2.91  16 2.91  21 2.92  20 2.92  22 2.93  24 2.93
                            26 2.94  25 2.94  34 2.94  33 2.94
  24  0.556  0.556  0.403-  15 2.92  17 2.92  14 2.92  27 2.93  22 2.93  19 2.93  26 2.93  35 2.93
                            23 2.93  21 2.93  32 2.94  34 2.94
  25  0.889  0.889  0.403-  16 2.92  12 2.92  18 2.92  28 2.92  26 2.93  19 2.93  22 2.93  27 2.93
                            23 2.94  21 2.94  33 2.96  30 2.96
  26  0.222  0.889  0.403-  16 2.92  10 2.92  17 2.92  28 2.92  25 2.93  19 2.93  27 2.93  24 2.93
                            23 2.94  20 2.94  34 2.96  29 2.96
  27  0.556  0.889  0.403-  17 2.92  18 2.92  11 2.92  24 2.93  22 2.93  26 2.93  25 2.93  35 2.93
                            20 2.93  21 2.93  29 2.94  30 2.94
  28  0.000  0.000  0.498-  26 2.92  25 2.92  19 2.92  29 2.95  34 2.95  33 2.95  32 2.95  31 2.95
                            30 2.95
  29  0.334  0.004  0.499-  30 2.89  31 2.90  36 2.90  20 2.94  27 2.94  35 2.95  28 2.95  26 2.96
                            34 3.00
  30  0.662  0.004  0.499-  29 2.89  32 2.90  36 2.90  21 2.94  27 2.94  35 2.95  28 2.95  25 2.96
                            33 3.00
  31  0.004  0.334  0.499-  33 2.89  29 2.90  36 2.90  20 2.94  22 2.94  35 2.95  28 2.95  19 2.96
                            32 3.00
  32  0.662  0.334  0.499-  34 2.89  30 2.90  36 2.90  21 2.94  24 2.94  35 2.95  28 2.95  19 2.96
                            31 3.00
  33  0.004  0.662  0.499-  31 2.89  34 2.90  36 2.90  23 2.94  22 2.94  35 2.95  28 2.95  25 2.96
                            30 3.00
  34  0.334  0.662  0.499-  32 2.89  33 2.90  36 2.90  23 2.94  24 2.94  35 2.95  28 2.95  26 2.96
                            29 3.00
  35  0.667  0.667  0.499-  24 2.93  27 2.93  22 2.93  30 2.95  32 2.95  29 2.95  34 2.95  31 2.95
                            33 2.95
  36  0.333  0.333  0.493-  39 2.17  21 2.82  20 2.82  23 2.82  31 2.90  33 2.90  30 2.90  29 2.90
                            34 2.90  32 2.90
  37  0.278  0.264  0.590-  39 0.98
  38  0.458  0.263  0.590-  39 0.98
  39  0.334  0.332  0.580-  37 0.98  38 0.98  36 2.17
 
  LATTYP: Found a hexagonal cell.
 ALAT       =     8.7913665772
 C/A-ratio  =     2.8382349142
  
  Lattice vectors:
  
 A1 = (  -4.3956832886,  -7.6135467898,   0.0000000000)
 A2 = (   8.7913665771,   0.0000000000,   0.0000000000)
 A3 = (   0.0000000000,   0.0000000000,  24.9519635625)


Analysis of symmetry for initial positions (statically):
=====================================================================
 Subroutine PRICEL returns:
 Original cell was already a primitive cell.
 

 Routine SETGRP: Setting up the symmetry group for a 
 hexagonal supercell.


 Subroutine GETGRP returns: Found  1 space group operations
 (whereof  1 operations were pure point group operations)
 out of a pool of 24 trial point group operations.


The static configuration has the point symmetry C_1 .


Analysis of symmetry for dynamics (positions and initial velocities):
=====================================================================
 Subroutine PRICEL returns:
 Original cell was already a primitive cell.
 

 Routine SETGRP: Setting up the symmetry group for a 
 hexagonal supercell.


 Subroutine GETGRP returns: Found  1 space group operations
 (whereof  1 operations were pure point group operations)
 out of a pool of 24 trial point group operations.


The dynamic configuration has the point symmetry C_1 .


Analysis of constrained symmetry for selective dynamics:
=====================================================================
 Subroutine PRICEL returns:
 Original cell was already a primitive cell.
 

 Routine SETGRP: Setting up the symmetry group for a 
 hexagonal supercell.


 Subroutine GETGRP returns: Found  1 space group operations
 (whereof  1 operations were pure point group operations)
 out of a pool of 24 trial point group operations.


The constrained configuration has the point symmetry C_1 .


 Subroutine INISYM returns: Found  1 space group operations
 (whereof  1 operations are pure point group operations),
 and found     1 'primitive' translations


----------------------------------------------------------------------------------------

                                     Primitive cell                                     

  volume of cell :    1670.1218

  direct lattice vectors                    reciprocal lattice vectors
     8.791366577  0.000000000  0.000000000     0.113747958 -0.065672414  0.000000000
     4.395683289  7.613546790  0.000000000     0.000000000  0.131344829  0.000000000
     0.000000000  0.000000000 24.951963562     0.000000000  0.000000000  0.040077006

  length of vectors
     8.791366577  8.791366577 24.951963562     0.131344829  0.131344829  0.040077006

  position of ions in fractional coordinates (direct lattice)
     0.000000000  0.000000000  0.211694287
     0.333333313  0.000000000  0.211694287
     0.666666627  0.000000000  0.211694287
     0.000000000  0.333333343  0.211694287
     0.333333313  0.333333343  0.211694287
     0.666666687  0.333333343  0.211694287
     0.000000000  0.666666687  0.211694287
     0.333333313  0.666666687  0.211694287
     0.666666627  0.666666687  0.211694287
     0.111111104  0.111111112  0.307586829
     0.444444448  0.111111112  0.307586829
     0.777777791  0.111111112  0.307586829
     0.111111097  0.444444448  0.307586829
     0.444444418  0.444444448  0.307586829
     0.777777791  0.444444448  0.307586829
     0.111111104  0.777777791  0.307586829
     0.444444448  0.777777791  0.307586829
     0.777777791  0.777777791  0.307586829
     0.888965348  0.222069319  0.402831844
     0.222608922  0.222608937  0.402411399
     0.554782097  0.222608937  0.402411399
     0.888549089  0.555725486  0.403072495
     0.222608937  0.554782157  0.402411399
     0.555725486  0.555725486  0.403072495
     0.888965348  0.888965348  0.402831844
     0.222069289  0.888965348  0.402831844
     0.555725426  0.888549089  0.403072495
     0.000000000  0.000000000  0.498322854
     0.333630460  0.003871759  0.499326313
     0.662497721  0.003871759  0.499326313
     0.003871759  0.333630490  0.499326313
     0.662497781  0.333630490  0.499326313
     0.003871759  0.662497781  0.499326313
     0.333630460  0.662497781  0.499326313
     0.666666627  0.666666687  0.499130296
     0.333333313  0.333333343  0.493039200
     0.278033888  0.263785259  0.590328853
     0.458221841  0.263127199  0.590336696
     0.333915795  0.332261442  0.579957806

  ion indices of the primitive-cell ions
   primitive index   ion index
                 1           1
                 2           2
                 3           3
                 4           4
                 5           5
                 6           6
                 7           7
                 8           8
                 9           9
                10          10
                11          11
                12          12
                13          13
                14          14
                15          15
                16          16
                17          17
                18          18
                19          19
                20          20
                21          21
                22          22
                23          23
                24          24
                25          25
                26          26
                27          27
                28          28
                29          29
                30          30
                31          31
                32          32
                33          33
                34          34
                35          35
                36          36
                37          37
                38          38
                39          39

----------------------------------------------------------------------------------------

 
 
 KPOINTS: Automatic mesh                          

Automatic generation of k-mesh.
 Grid dimensions read from file:
 generate k-points for:    8    8    1

 Generating k-lattice:

  Cartesian coordinates                     Fractional coordinates (reciprocal lattice)
     0.014218495 -0.008209052  0.000000000     0.125000000  0.000000000  0.000000000
     0.000000000  0.016418104  0.000000000     0.000000000  0.125000000  0.000000000
     0.000000000  0.000000000  0.040077006     0.000000000  0.000000000  1.000000000

  Length of vectors
     0.016418104  0.016418104  0.040077006

  Shift w.r.t. Gamma in fractional coordinates (k-lattice)
     0.000000000  0.000000000  0.000000000

 TETIRR: Found    192 inequivalent tetrahedra from      384
 
 Subroutine IBZKPT returns following result:
 ===========================================
 
 Found     34 irreducible k-points:
 
 Following reciprocal coordinates:
            Coordinates               Weight
  0.000000  0.000000  0.000000      1.000000
  0.125000  0.000000  0.000000      2.000000
  0.125000  0.125000  0.000000      2.000000
  0.000000  0.125000  0.000000      2.000000
  0.250000  0.000000  0.000000      2.000000
  0.250000  0.250000  0.000000      2.000000
  0.000000  0.250000  0.000000      2.000000
  0.375000  0.000000  0.000000      2.000000
  0.375000  0.375000  0.000000      2.000000
  0.000000  0.375000  0.000000      2.000000
  0.500000  0.000000  0.000000      1.000000
  0.500000  0.500000  0.000000      1.000000
  0.000000  0.500000  0.000000      1.000000
  0.250000  0.125000  0.000000      2.000000
  0.125000  0.250000  0.000000      2.000000
 -0.125000  0.125000  0.000000      2.000000
  0.375000  0.125000  0.000000      2.000000
  0.250000  0.375000  0.000000      2.000000
 -0.125000  0.250000  0.000000      2.000000
  0.250000 -0.125000  0.000000      2.000000
 -0.125000 -0.375000  0.000000      2.000000
 -0.375000 -0.250000  0.000000      2.000000
  0.500000  0.125000  0.000000      2.000000
  0.375000  0.500000  0.000000      2.000000
 -0.125000  0.375000  0.000000      2.000000
  0.375000 -0.125000  0.000000      2.000000
 -0.125000  0.500000  0.000000      2.000000
  0.500000 -0.375000  0.000000      2.000000
  0.500000  0.250000  0.000000      2.000000
  0.250000  0.500000  0.000000      2.000000
 -0.250000  0.250000  0.000000      2.000000
 -0.375000  0.250000  0.000000      2.000000
  0.375000 -0.375000  0.000000      2.000000
 -0.250000  0.375000  0.000000      2.000000
 
 Following cartesian coordinates:
            Coordinates               Weight
  0.000000  0.000000  0.000000      1.000000
  0.014218 -0.008209  0.000000      2.000000
  0.014218  0.008209  0.000000      2.000000
  0.000000  0.016418  0.000000      2.000000
  0.028437 -0.016418  0.000000      2.000000
  0.028437  0.016418  0.000000      2.000000
  0.000000  0.032836  0.000000      2.000000
  0.042655 -0.024627  0.000000      2.000000
  0.042655  0.024627  0.000000      2.000000
  0.000000  0.049254  0.000000      2.000000
  0.056874 -0.032836  0.000000      1.000000
  0.056874  0.032836  0.000000      1.000000
  0.000000  0.065672  0.000000      1.000000
  0.028437 -0.000000  0.000000      2.000000
  0.014218  0.024627  0.000000      2.000000
 -0.014218  0.024627  0.000000      2.000000
  0.042655 -0.008209  0.000000      2.000000
  0.028437  0.032836  0.000000      2.000000
 -0.014218  0.041045  0.000000      2.000000
  0.028437 -0.032836  0.000000      2.000000
 -0.014218 -0.041045  0.000000      2.000000
 -0.042655 -0.008209  0.000000      2.000000
  0.056874 -0.016418  0.000000      2.000000
  0.042655  0.041045  0.000000      2.000000
 -0.014218  0.057463  0.000000      2.000000
  0.042655 -0.041045  0.000000      2.000000
 -0.014218  0.073881  0.000000      2.000000
  0.056874 -0.082091  0.000000      2.000000
  0.056874 -0.000000  0.000000      2.000000
  0.028437  0.049254  0.000000      2.000000
 -0.028437  0.049254  0.000000      2.000000
 -0.042655  0.057463  0.000000      2.000000
  0.042655 -0.073881  0.000000      2.000000
 -0.028437  0.065672  0.000000      2.000000
 


--------------------------------------------------------------------------------------------------------




 Dimension of arrays:
   k-points           NKPTS =     34   k-points in BZ     NKDIM =     34   number of bands    NBANDS=    252
   number of dos      NEDOS =    301   number of ions     NIONS =     39
   non local maximal  LDIM  =      6   non local SUM 2l+1 LMDIM =     18
   total plane-waves  NPLWV = 322560
   max r-space proj   IRMAX =   3146   max aug-charges    IRDMAX=  13537
   dimension x,y,z NGX =    48 NGY =   48 NGZ =  140
   dimension x,y,z NGXF=    96 NGYF=   96 NGZF=  280
   support grid    NGXF=    96 NGYF=   96 NGZF=  280
   ions per type =              35   1   2   1
   NGX,Y,Z   is equivalent  to a cutoff of   9.08,  9.08,  9.33 a.u.
   NGXF,Y,Z  is equivalent  to a cutoff of  18.15, 18.15, 18.66 a.u.

 SYSTEM =  unknown system                          
 POSCAR =  Ag-Ti-H2O                               

 Startparameter for this run:
   NWRITE =      2    write-flag & timer
   PREC   = normal    normal or accurate (medium, high low for compatibility)
   ISTART =      0    job   : 0-new  1-cont  2-samecut
   ICHARG =     11    charge: 1-file 2-atom 10-const
   ISPIN  =      1    spin polarized calculation?
   LNONCOLLINEAR =      F non collinear calculations
   LSORBIT =      F    spin-orbit coupling
   INIWAV =      1    electr: 0-lowe 1-rand  2-diag
   LASPH  =      F    aspherical Exc in radial PAW
   METAGGA=      F    non-selfconsistent MetaGGA calc.

 Electronic Relaxation 1
   ENCUT  =  500.0 eV  36.75 Ry    6.06 a.u.  16.03 16.03 45.49*2*pi/ulx,y,z
   ENINI  =  500.0     initial cutoff
   ENAUG  =  605.4 eV  augmentation charge cutoff
   NELM   =    150;   NELMIN=  2; NELMDL= -5     # of ELM steps 
   EDIFF  = 0.1E-04   stopping-criterion for ELM
   LREAL  =      T    real-space projection
   NLSPLINE    = F    spline interpolate recip. space projectors
   LCOMPAT=      F    compatible to vasp.4.4
   GGA_COMPAT  = T    GGA compatible to vasp.4.4-vasp.4.6
   LMAXPAW     = -100 max onsite density
   LMAXMIX     =    2 max onsite mixed and CHGCAR
   VOSKOWN=      0    Vosko Wilk Nusair interpolation
   ROPT   =   -0.00050  -0.00050  -0.00050  -0.00050
 Ionic relaxation
   EDIFFG = -.1E-01   stopping-criterion for IOM
   NSW    =      0    number of steps for IOM
   NBLOCK =      1;   KBLOCK =      1    inner block; outer block 
   IBRION =     -1    ionic relax: 0-MD 1-quasi-New 2-CG
   NFREE  =      1    steps in history (QN), initial steepest desc. (CG)
   ISIF   =      2    stress and relaxation
   IWAVPR =     10    prediction:  0-non 1-charg 2-wave 3-comb
   ISYM   =      2    0-nonsym 1-usesym 2-fastsym
   LCORR  =      T    Harris-Foulkes like correction to forces

   POTIM  = 0.5000    time-step for ionic-motion
   TEIN   =    0.0    initial temperature
   TEBEG  =    0.0;   TEEND  =   0.0 temperature during run
   SMASS  =  -3.00    Nose mass-parameter (am)
   estimated Nose-frequenzy (Omega)   =  0.10E-29 period in steps = 0.13E+47 mass=  -0.177E-26a.u.
   SCALEE = 1.0000    scale energy and forces
   NPACO  =    256;   APACO  = 16.0  distance and # of slots for P.C.
   PSTRESS=    0.0 pullay stress

  Mass of Ions in am
   POMASS = 107.87 47.88  1.00 16.00
  Ionic Valenz
   ZVAL   =  11.00  4.00  1.00  6.00
  Atomic Wigner-Seitz radii
   RWIGS  =  -1.00 -1.00 -1.00 -1.00
  virtual crystal weights 
   VCA    =   1.00  1.00  1.00  1.00
   NELECT =     397.0000    total number of electrons
   NUPDOWN=      -1.0000    fix difference up-down

 DOS related values:
   EMIN   =  10.00;   EMAX   =-10.00  energy-range for DOS
   EFERMI =   0.00
   ISMEAR =    -5;   SIGMA  =   0.10  broadening in eV -4-tet -1-fermi 0-gaus

 Electronic relaxation 2 (details)
   IALGO  =     68    algorithm
   LDIAG  =      T    sub-space diagonalisation (order eigenvalues)
   LSUBROT=      F    optimize rotation matrix (better conditioning)
   TURBO    =      0    0=normal 1=particle mesh
   IRESTART =      0    0=no restart 2=restart with 2 vectors
   NREBOOT  =      0    no. of reboots
   NMIN     =      0    reboot dimension
   EREF     =   0.00    reference energy to select bands
   IMIX   =      4    mixing-type and parameters
     AMIX     =   0.40;   BMIX     =  1.00
     AMIX_MAG =   1.60;   BMIX_MAG =  1.00
     AMIN     =   0.10
     WC   =   100.;   INIMIX=   1;  MIXPRE=   1;  MAXMIX= -45

 Intra band minimization:
   WEIMIN = 0.0000     energy-eigenvalue tresh-hold
   EBREAK =  0.99E-08  absolut break condition
   DEPER  =   0.30     relativ break condition  

   TIME   =   0.40     timestep for ELM

  volume/ion in A,a.u.               =      42.82       288.99
  Fermi-wavevector in a.u.,A,eV,Ry     =   1.014119  1.916407 13.992742  1.028438
  Thomas-Fermi vector in A             =   2.147328
 
 Write flags
   LWAVE        =      F    write WAVECAR
   LDOWNSAMPLE  =      F    k-point downsampling of WAVECAR
   LCHARG       =      F    write CHGCAR
   LVTOT        =      F    write LOCPOT, total local potential
   LVHAR        =      F    write LOCPOT, Hartree potential only
   LELF         =      F    write electronic localiz. function (ELF)
   LORBIT       =     10    0 simple, 1 ext, 2 COOP (PROOUT), +10 PAW based schemes


 Dipole corrections
   LMONO  =      F    monopole corrections only (constant potential shift)
   LDIPOL =      F    correct potential (dipole corrections)
   IDIPOL =      0    1-x, 2-y, 3-z, 4-all directions 
   EPSILON=  1.0000000 bulk dielectric constant

 Exchange correlation treatment:
   GGA     =    --    GGA type
   LEXCH   =     8    internal setting for exchange type
   VOSKOWN=      0    Vosko Wilk Nusair interpolation
   LHFCALC =     F    Hartree Fock is set to
   LHFONE  =     F    Hartree Fock one center treatment
   AEXX    =    0.0000 exact exchange contribution

 Linear response parameters
   LEPSILON=     F    determine dielectric tensor
   LRPA    =     F    only Hartree local field effects (RPA)
   LNABLA  =     F    use nabla operator in PAW spheres
   LVEL    =     F    velocity operator in full k-point grid
   LINTERFAST=   F  fast interpolation
   KINTER  =     0    interpolate to denser k-point grid
   CSHIFT  =0.1000    complex shift for real part using Kramers Kronig
   OMEGAMAX=  -1.0    maximum frequency
   DEG_THRESHOLD= 0.2000000E-02 threshold for treating states as degnerate
   RTIME   =   -0.100 relaxation time in fs
  (WPLASMAI=    0.000 imaginary part of plasma frequency in eV, 0.658/RTIME)
   DFIELD  = 0.0000000 0.0000000 0.0000000 field for delta impulse in time
 
 Orbital magnetization related:
   ORBITALMAG=     F  switch on orbital magnetization
   LCHIMAG   =     F  perturbation theory with respect to B field
   DQ        =  0.001000  dq finite difference perturbation B field
   LLRAUG    =     F  two centre corrections for induced B field



--------------------------------------------------------------------------------------------------------


 Static calculation
 charge density and potential remain constant during run
 non-spin polarized calculation
 RMM-DIIS sequential band-by-band and
  variant of blocked Davidson during initial phase
 perform sub-space diagonalisation
    before iterative eigenvector-optimisation
 no mixing
 using additional bands           53
 real space projection scheme for non local part
 use partial core corrections
 calculate Harris-corrections to forces 
   (improved forces if not selfconsistent)
 use gradient corrections 
 WARNING: stress and forces are not correct
  (second derivative of E(xc) not defined)
 use of overlap-Matrix (Vanderbilt PP)
 Fermi weights with tetrahedron method with Bloechl corrections


--------------------------------------------------------------------------------------------------------


  energy-cutoff  :      500.00
  volume of cell :     1670.12
      direct lattice vectors                 reciprocal lattice vectors
     8.791366577  0.000000000  0.000000000     0.113747958 -0.065672414  0.000000000
     4.395683289  7.613546790  0.000000000     0.000000000  0.131344829  0.000000000
     0.000000000  0.000000000 24.951963562     0.000000000  0.000000000  0.040077006

  length of vectors
     8.791366577  8.791366577 24.951963562     0.131344829  0.131344829  0.040077006


 
 k-points in units of 2pi/SCALE and weight: Automatic mesh                          
   0.00000000  0.00000000  0.00000000       0.016
   0.01421849 -0.00820905  0.00000000       0.031
   0.01421849  0.00820905  0.00000000       0.031
   0.00000000  0.01641810  0.00000000       0.031
   0.02843699 -0.01641810  0.00000000       0.031
   0.02843699  0.01641810  0.00000000       0.031
   0.00000000  0.03283621  0.00000000       0.031
   0.04265548 -0.02462716  0.00000000       0.031
   0.04265548  0.02462716  0.00000000       0.031
   0.00000000  0.04925431  0.00000000       0.031
   0.05687398 -0.03283621  0.00000000       0.016
   0.05687398  0.03283621  0.00000000       0.016
   0.00000000  0.06567241  0.00000000       0.016
   0.02843699 -0.00000000  0.00000000       0.031
   0.01421849  0.02462716  0.00000000       0.031
  -0.01421849  0.02462716  0.00000000       0.031
   0.04265548 -0.00820905  0.00000000       0.031
   0.02843699  0.03283621  0.00000000       0.031
  -0.01421849  0.04104526  0.00000000       0.031
   0.02843699 -0.03283621  0.00000000       0.031
  -0.01421849 -0.04104526  0.00000000       0.031
  -0.04265548 -0.00820905  0.00000000       0.031
   0.05687398 -0.01641810  0.00000000       0.031
   0.04265548  0.04104526  0.00000000       0.031
  -0.01421849  0.05746336  0.00000000       0.031
   0.04265548 -0.04104526  0.00000000       0.031
  -0.01421849  0.07388147  0.00000000       0.031
   0.05687398 -0.08209052  0.00000000       0.031
   0.05687398 -0.00000000  0.00000000       0.031
   0.02843699  0.04925431  0.00000000       0.031
  -0.02843699  0.04925431  0.00000000       0.031
  -0.04265548  0.05746336  0.00000000       0.031
   0.04265548 -0.07388147  0.00000000       0.031
  -0.02843699  0.06567241  0.00000000       0.031
 
 k-points in reciprocal lattice and weights: Automatic mesh                          
   0.00000000  0.00000000  0.00000000       0.016
   0.12500000  0.00000000  0.00000000       0.031
   0.12500000  0.12500000  0.00000000       0.031
   0.00000000  0.12500000  0.00000000       0.031
   0.25000000  0.00000000  0.00000000       0.031
   0.25000000  0.25000000  0.00000000       0.031
   0.00000000  0.25000000  0.00000000       0.031
   0.37500000  0.00000000  0.00000000       0.031
   0.37500000  0.37500000  0.00000000       0.031
   0.00000000  0.37500000  0.00000000       0.031
   0.50000000  0.00000000  0.00000000       0.016
   0.50000000  0.50000000  0.00000000       0.016
   0.00000000  0.50000000  0.00000000       0.016
   0.25000000  0.12500000  0.00000000       0.031
   0.12500000  0.25000000  0.00000000       0.031
  -0.12500000  0.12500000  0.00000000       0.031
   0.37500000  0.12500000  0.00000000       0.031
   0.25000000  0.37500000  0.00000000       0.031
  -0.12500000  0.25000000  0.00000000       0.031
   0.25000000 -0.12500000  0.00000000       0.031
  -0.12500000 -0.37500000  0.00000000       0.031
  -0.37500000 -0.25000000  0.00000000       0.031
   0.50000000  0.12500000  0.00000000       0.031
   0.37500000  0.50000000  0.00000000       0.031
  -0.12500000  0.37500000  0.00000000       0.031
   0.37500000 -0.12500000  0.00000000       0.031
  -0.12500000  0.50000000  0.00000000       0.031
   0.50000000 -0.37500000  0.00000000       0.031
   0.50000000  0.25000000  0.00000000       0.031
   0.25000000  0.50000000  0.00000000       0.031
  -0.25000000  0.25000000  0.00000000       0.031
  -0.37500000  0.25000000  0.00000000       0.031
   0.37500000 -0.37500000  0.00000000       0.031
  -0.25000000  0.37500000  0.00000000       0.031
 
 position of ions in fractional coordinates (direct lattice) 
   0.00000000  0.00000000  0.21169429
   0.33333331  0.00000000  0.21169429
   0.66666663  0.00000000  0.21169429
   0.00000000  0.33333334  0.21169429
   0.33333331  0.33333334  0.21169429
   0.66666669  0.33333334  0.21169429
   0.00000000  0.66666669  0.21169429
   0.33333331  0.66666669  0.21169429
   0.66666663  0.66666669  0.21169429
   0.11111110  0.11111111  0.30758683
   0.44444445  0.11111111  0.30758683
   0.77777779  0.11111111  0.30758683
   0.11111110  0.44444445  0.30758683
   0.44444442  0.44444445  0.30758683
   0.77777779  0.44444445  0.30758683
   0.11111110  0.77777779  0.30758683
   0.44444445  0.77777779  0.30758683
   0.77777779  0.77777779  0.30758683
   0.88896535  0.22206932  0.40283184
   0.22260892  0.22260894  0.40241140
   0.55478210  0.22260894  0.40241140
   0.88854909  0.55572549  0.40307249
   0.22260894  0.55478216  0.40241140
   0.55572549  0.55572549  0.40307249
   0.88896535  0.88896535  0.40283184
   0.22206929  0.88896535  0.40283184
   0.55572543  0.88854909  0.40307249
   0.00000000  0.00000000  0.49832285
   0.33363046  0.00387176  0.49932631
   0.66249772  0.00387176  0.49932631
   0.00387176  0.33363049  0.49932631
   0.66249778  0.33363049  0.49932631
   0.00387176  0.66249778  0.49932631
   0.33363046  0.66249778  0.49932631
   0.66666663  0.66666669  0.49913030
   0.33333331  0.33333334  0.49303920
   0.27803389  0.26378526  0.59032885
   0.45822184  0.26312720  0.59033670
   0.33391579  0.33226144  0.57995781
 
 position of ions in cartesian coordinates  (Angst):
   0.00000000  0.00000000  5.28218814
   2.93045535  0.00000000  5.28218814
   5.86091070  0.00000000  5.28218814
   1.46522781  2.53784900  5.28218814
   4.39568315  2.53784900  5.28218814
   7.32613904  2.53784900  5.28218814
   2.93045562  5.07569801  5.28218814
   5.86091096  5.07569801  5.28218814
   8.79136632  5.07569801  5.28218814
   1.46522770  0.84594965  7.67489535
   4.39568332  0.84594965  7.67489535
   7.32613893  0.84594965  7.67489535
   2.93045542  3.38379860  7.67489535
   5.86091083  3.38379860  7.67489535
   8.79136671  3.38379860  7.67489535
   4.39568328  5.92164760  7.67489535
   7.32613890  5.92164760  7.67489535
  10.25659451  5.92164760  7.67489535
   8.79136665  1.69073515 10.05144549
   2.93555502  1.69484356 10.04095455
   5.85581116  1.69484356 10.04095455
  10.25435399  4.23104199 10.05745020
   4.39568342  4.22385991 10.04095455
   7.32837969  4.23104199 10.05745020
  11.72283038  6.76817927 10.05144549
   5.85990265  6.76817927 10.05144549
   8.79136631  6.76501006 10.05745020
   0.00000000  0.00000000 12.43413371
   2.95008670  0.02947782 12.45917197
   5.84127935  0.02947782 12.45917197
   1.50057202  2.54011134 12.45917197
   7.29079482  2.54011134 12.45917197
   2.94616848  5.04395785 12.45917197
   5.84519810  5.04395785 12.45917197
   8.79136632  5.07569801 12.45428096
   4.39568315  2.53784900 12.30229615
   3.60381428  2.00834141 14.72986403
   5.18502000  2.00333124 14.73005973
   4.39609223  2.52968804 14.47108603
 


--------------------------------------------------------------------------------------------------------


 k-point   1 :   0.0000 0.0000 0.0000  plane waves:   42349
 k-point   2 :   0.1250 0.0000 0.0000  plane waves:   42346
 k-point   3 :   0.1250 0.1250 0.0000  plane waves:   42346
 k-point   4 :   0.0000 0.1250 0.0000  plane waves:   42346
 k-point   5 :   0.2500 0.0000 0.0000  plane waves:   42376
 k-point   6 :   0.2500 0.2500 0.0000  plane waves:   42376
 k-point   7 :   0.0000 0.2500 0.0000  plane waves:   42376
 k-point   8 :   0.3750 0.0000 0.0000  plane waves:   42380
 k-point   9 :   0.3750 0.3750 0.0000  plane waves:   42380
 k-point  10 :   0.0000 0.3750 0.0000  plane waves:   42380
 k-point  11 :   0.5000 0.0000 0.0000  plane waves:   42416
 k-point  12 :   0.5000 0.5000 0.0000  plane waves:   42416
 k-point  13 :   0.0000 0.5000 0.0000  plane waves:   42416
 k-point  14 :   0.2500 0.1250 0.0000  plane waves:   42390
 k-point  15 :   0.1250 0.2500 0.0000  plane waves:   42390
 k-point  16 :  -0.1250 0.1250 0.0000  plane waves:   42390
 k-point  17 :   0.3750 0.1250 0.0000  plane waves:   42414
 k-point  18 :   0.2500 0.3750 0.0000  plane waves:   42414
 k-point  19 :  -0.1250 0.2500 0.0000  plane waves:   42414
 k-point  20 :   0.2500-0.1250 0.0000  plane waves:   42414
 k-point  21 :  -0.1250-0.3750 0.0000  plane waves:   42414
 k-point  22 :  -0.3750-0.2500 0.0000  plane waves:   42414
 k-point  23 :   0.5000 0.1250 0.0000  plane waves:   42428
 k-point  24 :   0.3750 0.5000 0.0000  plane waves:   42428
 k-point  25 :  -0.1250 0.3750 0.0000  plane waves:   42428
 k-point  26 :   0.3750-0.1250 0.0000  plane waves:   42428
 k-point  27 :  -0.1250 0.5000 0.0000  plane waves:   42428
 k-point  28 :   0.5000-0.3750 0.0000  plane waves:   42428
 k-point  29 :   0.5000 0.2500 0.0000  plane waves:   42438
 k-point  30 :   0.2500 0.5000 0.0000  plane waves:   42438
 k-point  31 :  -0.2500 0.2500 0.0000  plane waves:   42438
 k-point  32 :  -0.3750 0.2500 0.0000  plane waves:   42416
 k-point  33 :   0.3750-0.3750 0.0000  plane waves:   42416
 k-point  34 :  -0.2500 0.3750 0.0000  plane waves:   42416

 maximum and minimum number of plane-waves per node :     42438    42346

 maximum number of plane-waves:     42438
 maximum index in each direction: 
   IXMAX=   16   IYMAX=   16   IZMAX=   45
   IXMIN=  -16   IYMIN=  -16   IZMIN=  -45


 serial   3D FFT for wavefunctions
 parallel 3D FFT for charge:
    minimum data exchange during FFTs selected (reduces bandwidth)


 total amount of memory used by VASP MPI-rank0   282635. kBytes
=======================================================================

   base      :      30000. kBytes
   nonlr-proj:      15383. kBytes
   fftplans  :       4808. kBytes
   grid      :      20723. kBytes
   one-center:        606. kBytes
   wavefun   :     211115. kBytes
 
     INWAV:  cpu time    0.0000: real time    0.0000
 initial charge density was supplied:
 number of electron     396.9999937 magnetization 
 keeping initial charge density in first step


--------------------------------------------------------------------------------------------------------


 Maximum index for non-local projection operator         2981
 Maximum index for augmentation-charges          701 (set IRDMAX)


--------------------------------------------------------------------------------------------------------


 First call to EWALD:  gamma=   0.149
 Maximum number of real-space cells 4x 4x 2
 Maximum number of reciprocal cells 2x 2x 5

    FEWALD:  cpu time    0.0013: real time    0.0014


--------------------------------------- Iteration      1(   1)  ---------------------------------------


    POTLOK:  cpu time    0.0470: real time    0.0474
    SETDIJ:  cpu time    0.0049: real time    0.0050
     EDDAV:  cpu time   26.5485: real time   26.5497
 BZINTS: Fermi energy:    8.889407;  397.000000 electrons
         Band energy: 0.103137E+04;  BLOECHL correction:   -0.018959
       DOS:  cpu time    0.0605: real time    0.0605
    --------------------------------------------
      LOOP:  cpu time   26.6609: real time   26.6626

 eigenvalue-minimisations  : 17136
 total energy-change (2. order) : 0.2407018E+04  (-0.1781878E+05)
 number of electron     396.9999937 magnetization 
 augmentation part      396.9999937 magnetization 

 Free energy of the ion-electron system (eV)
  ---------------------------------------------------
  alpha Z        PSCENC =       670.93394539
  Ewald energy   TEWEN  =    136295.11831297
  -Hartree energ DENC   =   -173627.33321175
  -exchange      EXHF   =         0.00000000
  -V(xc)+E(xc)   XCENC  =      -391.82414951
  PAW double counting   =     39049.34820957   -37476.89673532
  entropy T*S    EENTRO =         0.00000000
  eigenvalues    EBANDS =      1031.36879719
  atomic energy  EATOM  =     36856.30276469
  Solvation  Ediel_sol  =         0.00000000
  ---------------------------------------------------
  free energy    TOTEN  =      2407.01793323 eV

  energy without entropy =     2407.01793323  energy(sigma->0) =     2407.01793323


--------------------------------------------------------------------------------------------------------




--------------------------------------- Iteration      1(   2)  ---------------------------------------


     EDDAV:  cpu time   27.7606: real time   27.7606
 BZINTS: Fermi energy:    1.023482;  397.000000 electrons
         Band energy:-0.138716E+04;  BLOECHL correction:   -0.024304
       DOS:  cpu time    0.0559: real time    0.0559
    --------------------------------------------
      LOOP:  cpu time   27.8165: real time   27.8165

 eigenvalue-minimisations  : 18088
 total energy-change (2. order) :-0.2418530E+04  (-0.2281286E+04)
 number of electron     396.9999937 magnetization 
 augmentation part      396.9999937 magnetization 

 Free energy of the ion-electron system (eV)
  ---------------------------------------------------
  alpha Z        PSCENC =       670.93394539
  Ewald energy   TEWEN  =    136295.11831297
  -Hartree energ DENC   =   -173627.33321175
  -exchange      EXHF   =         0.00000000
  -V(xc)+E(xc)   XCENC  =      -391.82414951
  PAW double counting   =     39049.34820957   -37476.89673532
  entropy T*S    EENTRO =         0.00000000
  eigenvalues    EBANDS =     -1387.16156852
  atomic energy  EATOM  =     36856.30276469
  Solvation  Ediel_sol  =         0.00000000
  ---------------------------------------------------
  free energy    TOTEN  =       -11.51243248 eV

  energy without entropy =      -11.51243248  energy(sigma->0) =      -11.51243248


--------------------------------------------------------------------------------------------------------




--------------------------------------- Iteration      1(   3)  ---------------------------------------


     EDDAV:  cpu time   30.4849: real time   30.4848
 BZINTS: Fermi energy:    0.546425;  397.000000 electrons
         Band energy:-0.148480E+04;  BLOECHL correction:   -0.020303
       DOS:  cpu time    0.0597: real time    0.0597
    --------------------------------------------
      LOOP:  cpu time   30.5446: real time   30.5445

 eigenvalue-minimisations  : 20272
 total energy-change (2. order) :-0.9763839E+02  (-0.9587407E+02)
 number of electron     396.9999937 magnetization 
 augmentation part      396.9999937 magnetization 

 Free energy of the ion-electron system (eV)
  ---------------------------------------------------
  alpha Z        PSCENC =       670.93394539
  Ewald energy   TEWEN  =    136295.11831297
  -Hartree energ DENC   =   -173627.33321175
  -exchange      EXHF   =         0.00000000
  -V(xc)+E(xc)   XCENC  =      -391.82414951
  PAW double counting   =     39049.34820957   -37476.89673532
  entropy T*S    EENTRO =         0.00000000
  eigenvalues    EBANDS =     -1484.79996332
  atomic energy  EATOM  =     36856.30276469
  Solvation  Ediel_sol  =         0.00000000
  ---------------------------------------------------
  free energy    TOTEN  =      -109.15082728 eV

  energy without entropy =     -109.15082728  energy(sigma->0) =     -109.15082728


--------------------------------------------------------------------------------------------------------




--------------------------------------- Iteration      1(   4)  ---------------------------------------


     EDDAV:  cpu time   28.1620: real time   28.1621
 BZINTS: Fermi energy:    0.537698;  397.000000 electrons
         Band energy:-0.148614E+04;  BLOECHL correction:   -0.020085
       DOS:  cpu time    0.0572: real time    0.0572
    --------------------------------------------
      LOOP:  cpu time   28.2191: real time   28.2192

 eigenvalue-minimisations  : 18424
 total energy-change (2. order) :-0.1341461E+01  (-0.1340005E+01)
 number of electron     396.9999937 magnetization 
 augmentation part      396.9999937 magnetization 

 Free energy of the ion-electron system (eV)
  ---------------------------------------------------
  alpha Z        PSCENC =       670.93394539
  Ewald energy   TEWEN  =    136295.11831297
  -Hartree energ DENC   =   -173627.33321175
  -exchange      EXHF   =         0.00000000
  -V(xc)+E(xc)   XCENC  =      -391.82414951
  PAW double counting   =     39049.34820957   -37476.89673532
  entropy T*S    EENTRO =         0.00000000
  eigenvalues    EBANDS =     -1486.14142440
  atomic energy  EATOM  =     36856.30276469
  Solvation  Ediel_sol  =         0.00000000
  ---------------------------------------------------
  free energy    TOTEN  =      -110.49228836 eV

  energy without entropy =     -110.49228836  energy(sigma->0) =     -110.49228836


--------------------------------------------------------------------------------------------------------




--------------------------------------- Iteration      1(   5)  ---------------------------------------


     EDDAV:  cpu time   32.3096: real time   32.3095
 BZINTS: Fermi energy:    0.537537;  397.000000 electrons
         Band energy:-0.148617E+04;  BLOECHL correction:   -0.020075
       DOS:  cpu time    0.0548: real time    0.0548
    --------------------------------------------
      LOOP:  cpu time   32.3644: real time   32.3643

 eigenvalue-minimisations  : 21728
 total energy-change (2. order) :-0.3138232E-01  (-0.3138434E-01)
 number of electron     396.9999937 magnetization 
 augmentation part      396.9999937 magnetization 

 Free energy of the ion-electron system (eV)
  ---------------------------------------------------
  alpha Z        PSCENC =       670.93394539
  Ewald energy   TEWEN  =    136295.11831297
  -Hartree energ DENC   =   -173627.33321175
  -exchange      EXHF   =         0.00000000
  -V(xc)+E(xc)   XCENC  =      -391.82414951
  PAW double counting   =     39049.34820957   -37476.89673532
  entropy T*S    EENTRO =         0.00000000
  eigenvalues    EBANDS =     -1486.17280672
  atomic energy  EATOM  =     36856.30276469
  Solvation  Ediel_sol  =         0.00000000
  ---------------------------------------------------
  free energy    TOTEN  =      -110.52367068 eV

  energy without entropy =     -110.52367068  energy(sigma->0) =     -110.52367068


--------------------------------------------------------------------------------------------------------




--------------------------------------- Iteration      1(   6)  ---------------------------------------


    EDDIAG:  cpu time    5.2256: real time    5.2291
  RMM-DIIS:  cpu time   14.8551: real time   14.8550
    ORTHCH:  cpu time    0.9692: real time    0.9692
 BZINTS: Fermi energy:    0.537533;  397.000000 electrons
         Band energy:-0.148617E+04;  BLOECHL correction:   -0.020075
       DOS:  cpu time    0.0599: real time    0.0599
    --------------------------------------------
      LOOP:  cpu time   21.1098: real time   21.1131

 eigenvalue-minimisations  : 17212
 total energy-change (2. order) :-0.6066902E-03  (-0.6067842E-03)
 number of electron     396.9999937 magnetization 
 augmentation part      396.9999937 magnetization 

 Free energy of the ion-electron system (eV)
  ---------------------------------------------------
  alpha Z        PSCENC =       670.93394539
  Ewald energy   TEWEN  =    136295.11831297
  -Hartree energ DENC   =   -173627.33321175
  -exchange      EXHF   =         0.00000000
  -V(xc)+E(xc)   XCENC  =      -391.82414951
  PAW double counting   =     39049.34820957   -37476.89673532
  entropy T*S    EENTRO =         0.00000000
  eigenvalues    EBANDS =     -1486.17341341
  atomic energy  EATOM  =     36856.30276469
  Solvation  Ediel_sol  =         0.00000000
  ---------------------------------------------------
  free energy    TOTEN  =      -110.52427737 eV

  energy without entropy =     -110.52427737  energy(sigma->0) =     -110.52427737


--------------------------------------------------------------------------------------------------------




--------------------------------------- Iteration      1(   7)  ---------------------------------------


    EDDIAG:  cpu time    5.2242: real time    5.2243
  RMM-DIIS:  cpu time   21.3330: real time   21.3328
    ORTHCH:  cpu time    0.9705: real time    0.9705
 BZINTS: Fermi energy:    0.537532;  397.000000 electrons
         Band energy:-0.148617E+04;  BLOECHL correction:   -0.020075
       DOS:  cpu time    0.0587: real time    0.0587
    --------------------------------------------
      LOOP:  cpu time   27.5864: real time   27.5864

 eigenvalue-minimisations  : 24077
 total energy-change (2. order) :-0.2210743E-03  (-0.2201301E-03)
 number of electron     396.9999937 magnetization 
 augmentation part      396.9999937 magnetization 

 Free energy of the ion-electron system (eV)
  ---------------------------------------------------
  alpha Z        PSCENC =       670.93394539
  Ewald energy   TEWEN  =    136295.11831297
  -Hartree energ DENC   =   -173627.33321175
  -exchange      EXHF   =         0.00000000
  -V(xc)+E(xc)   XCENC  =      -391.82414951
  PAW double counting   =     39049.34820957   -37476.89673532
  entropy T*S    EENTRO =         0.00000000
  eigenvalues    EBANDS =     -1486.17363449
  atomic energy  EATOM  =     36856.30276469
  Solvation  Ediel_sol  =         0.00000000
  ---------------------------------------------------
  free energy    TOTEN  =      -110.52449845 eV

  energy without entropy =     -110.52449845  energy(sigma->0) =     -110.52449845


--------------------------------------------------------------------------------------------------------




--------------------------------------- Iteration      1(   8)  ---------------------------------------


    EDDIAG:  cpu time    5.2266: real time    5.2268
  RMM-DIIS:  cpu time   14.2887: real time   14.2885
    ORTHCH:  cpu time    0.9698: real time    0.9698
 BZINTS: Fermi energy:    0.537532;  397.000000 electrons
         Band energy:-0.148617E+04;  BLOECHL correction:   -0.020075
       DOS:  cpu time    0.0561: real time    0.0561
    --------------------------------------------
      LOOP:  cpu time   20.5412: real time   20.5413

 eigenvalue-minimisations  : 14444
 total energy-change (2. order) :-0.1700781E-04  (-0.1723745E-04)
 number of electron     396.9999937 magnetization 
 augmentation part      396.9999937 magnetization 

 Free energy of the ion-electron system (eV)
  ---------------------------------------------------
  alpha Z        PSCENC =       670.93394539
  Ewald energy   TEWEN  =    136295.11831297
  -Hartree energ DENC   =   -173627.33321175
  -exchange      EXHF   =         0.00000000
  -V(xc)+E(xc)   XCENC  =      -391.82414951
  PAW double counting   =     39049.34820957   -37476.89673532
  entropy T*S    EENTRO =         0.00000000
  eigenvalues    EBANDS =     -1486.17365150
  atomic energy  EATOM  =     36856.30276469
  Solvation  Ediel_sol  =         0.00000000
  ---------------------------------------------------
  free energy    TOTEN  =      -110.52451545 eV

  energy without entropy =     -110.52451545  energy(sigma->0) =     -110.52451545


--------------------------------------------------------------------------------------------------------




--------------------------------------- Iteration      1(   9)  ---------------------------------------


    EDDIAG:  cpu time    5.2250: real time    5.2250
  RMM-DIIS:  cpu time   12.0850: real time   12.0849
    ORTHCH:  cpu time    0.9705: real time    0.9705
 BZINTS: Fermi energy:    0.537532;  397.000000 electrons
         Band energy:-0.148617E+04;  BLOECHL correction:   -0.020075
       DOS:  cpu time    0.0586: real time    0.0586
    --------------------------------------------
      LOOP:  cpu time   18.3389: real time   18.3389

 eigenvalue-minimisations  : 11471
 total energy-change (2. order) :-0.2185116E-05  (-0.2276326E-05)
 number of electron     396.9999937 magnetization 
 augmentation part      396.9999937 magnetization 

 Free energy of the ion-electron system (eV)
  ---------------------------------------------------
  alpha Z        PSCENC =       670.93394539
  Ewald energy   TEWEN  =    136295.11831297
  -Hartree energ DENC   =   -173627.33321175
  -exchange      EXHF   =         0.00000000
  -V(xc)+E(xc)   XCENC  =      -391.82414951
  PAW double counting   =     39049.34820957   -37476.89673532
  entropy T*S    EENTRO =         0.00000000
  eigenvalues    EBANDS =     -1486.17365368
  atomic energy  EATOM  =     36856.30276469
  Solvation  Ediel_sol  =         0.00000000
  ---------------------------------------------------
  free energy    TOTEN  =      -110.52451764 eV

  energy without entropy =     -110.52451764  energy(sigma->0) =     -110.52451764


--------------------------------------------------------------------------------------------------------




 average (electrostatic) potential at core
  the test charge radii are     1.1249  1.2598  0.5201  0.7215
  (the norm of the test charge is              1.0000)
       1 -78.3807       2 -78.3684       3 -78.3683       4 -78.3682       5 -78.3667
       6 -78.3679       7 -78.3733       8 -78.3731       9 -78.3779      10 -78.6101
      11 -78.5859      12 -78.6100      13 -78.5889      14 -78.5887      15 -78.5900
      16 -78.6144      17 -78.5950      18 -78.5951      19 -78.5966      20 -78.7596
      21 -78.7596      22 -78.5771      23 -78.7666      24 -78.5772      25 -78.5980
      26 -78.5980      27 -78.5802      28 -78.3916      29 -78.5234      30 -78.5236
      31 -78.5098      32 -78.5096      33 -78.4860      34 -78.4859      35 -78.3638
      36 -30.2915      37 -41.5782      38 -41.5778      39 -78.1625
 
 
 
 E-fermi :   0.5375     XC(G=0):  -5.3517     alpha+bet : -5.0019

 Fermi energy:         0.5375319017

 k-point     1 :       0.0000    0.0000    0.0000
  band No.  band energies     occupation 
      1     -22.6980      2.00000
      2     -10.4909      2.00000
      3      -7.2154      2.00000
      4      -6.6113      2.00000
      5      -5.7616      2.00000
      6      -5.5103      2.00000
      7      -5.4085      2.00000
      8      -5.3428      2.00000
      9      -5.3409      2.00000
     10      -5.3354      2.00000
     11      -5.3308      2.00000
     12      -5.3299      2.00000
     13      -5.3281      2.00000
     14      -5.3138      2.00000
     15      -5.2972      2.00000
     16      -5.2950      2.00000
     17      -5.2943      2.00000
     18      -5.2829      2.00000
     19      -5.2821      2.00000
     20      -5.2224      2.00000
     21      -5.1370      2.00000
     22      -5.1346      2.00000
     23      -5.1333      2.00000
     24      -5.1281      2.00000
     25      -5.1183      2.00000
     26      -5.1164      2.00000
     27      -4.9841      2.00000
     28      -4.9480      2.00000
     29      -4.9479      2.00000
     30      -4.9278      2.00000
     31      -4.9118      2.00000
     32      -4.9098      2.00000
     33      -4.9093      2.00000
     34      -4.9059      2.00000
     35      -4.8895      2.00000
     36      -4.8895      2.00000
     37      -4.8743      2.00000
     38      -4.8738      2.00000
     39      -4.8194      2.00000
     40      -4.7987      2.00000
     41      -4.7980      2.00000
     42      -4.7721      2.00000
     43      -4.7124      2.00000
     44      -4.7122      2.00000
     45      -4.5624      2.00000
     46      -4.5615      2.00000
     47      -4.5613      2.00000
     48      -4.5480      2.00000
     49      -4.5473      2.00000
     50      -4.5464      2.00000
     51      -4.5338      2.00000
     52      -4.5329      2.00000
     53      -4.5092      2.00000
     54      -4.5073      2.00000
     55      -4.3853      2.00000
     56      -4.3823      2.00000
     57      -4.3610      2.00000
     58      -4.3595      2.00000
     59      -4.2005      2.00000
     60      -4.1790      2.00000
     61      -4.1775      2.00000
     62      -4.1682      2.00000
     63      -4.1618      2.00000
     64      -4.1595      2.00000
     65      -4.1432      2.00000
     66      -4.1264      2.00000
     67      -4.1262      2.00000
     68      -4.0875      2.00000
     69      -4.0874      2.00000
     70      -4.0113      2.00000
     71      -4.0110      2.00000
     72      -4.0048      2.00000
     73      -4.0009      2.00000
     74      -4.0008      2.00000
     75      -3.9937      2.00000
     76      -3.9923      2.00000
     77      -3.9917      2.00000
     78      -3.9697      2.00000
     79      -3.9694      2.00000
     80      -3.9545      2.00000
     81      -3.9474      2.00000
     82      -3.9226      2.00000
     83      -3.9219      2.00000
     84      -3.8981      2.00000
     85      -3.8969      2.00000
     86      -3.8902      2.00000
     87      -3.8767      2.00000
     88      -3.8759      2.00000
     89      -3.8163      2.00000
     90      -3.8161      2.00000
     91      -3.7851      2.00000
     92      -3.7841      2.00000
     93      -3.7819      2.00000
     94      -3.7692      2.00000
     95      -3.7673      2.00000
     96      -3.7083      2.00000
     97      -3.6868      2.00000
     98      -3.6810      2.00000
     99      -3.6770      2.00000
    100      -3.6765      2.00000
    101      -3.6546      2.00000
    102      -3.6530      2.00000
    103      -3.4835      2.00000
    104      -3.4785      2.00000
    105      -3.4770      2.00000
    106      -3.4540      2.00000
    107      -3.4516      2.00000
    108      -3.4315      2.00000
    109      -3.4303      2.00000
    110      -3.4286      2.00000
    111      -3.3980      2.00000
    112      -3.3961      2.00000
    113      -3.3895      2.00000
    114      -3.3201      2.00000
    115      -3.3113      2.00000
    116      -3.2849      2.00000
    117      -3.2837      2.00000
    118      -3.2480      2.00000
    119      -3.2123      2.00000
    120      -3.2116      2.00000
    121      -3.1619      2.00000
    122      -3.1597      2.00000
    123      -3.1462      2.00000
    124      -3.1453      2.00000
    125      -3.1129      2.00000
    126      -3.1062      2.00000
    127      -3.1010      2.00000
    128      -3.0834      2.00000
    129      -3.0785      2.00000
    130      -3.0779      2.00000
    131      -3.0618      2.00000
[...]
  0.000   0.000   0.000   0.000   0.000   0.000   0.000   0.000   0.000   0.000   1.000   0.000   0.000   0.000   0.000   0.000
  0.000   0.000   0.000   0.000   0.000   0.000   0.000   0.000   0.000   0.000   0.000   0.000   0.000   0.000   0.000   0.000
  0.000   0.000   0.000   0.000   0.000   0.000   0.000   0.000   0.000   0.000   0.000   0.000   0.000   0.000   0.000   0.000
  0.000   0.000   0.000   0.000   0.000   0.000   0.000   0.000   0.000   0.000   0.000   0.000   0.000   0.000   0.000   0.000
  0.000   0.000   0.000   0.000   0.000   0.000   0.000   0.000   0.000   0.000   0.000   0.000   0.000   0.000   0.000   0.000
  0.000   0.000   0.000   0.000   0.000   0.000   0.000   0.000   0.000   0.000   0.000   0.000   0.000   0.000   0.000   0.000
  0.000   0.000   0.000   0.000   0.000   0.000   0.000   0.000   0.000   0.000   0.000   0.000   0.000   0.000   0.000   0.000
  0.000   0.000   0.000   0.000   0.000   0.000   0.000   0.000   0.000   0.000   0.000   0.000   0.000   0.000   0.000   0.000


------------------------ aborting loop because EDIFF is reached ----------------------------------------





 total charge

# of ion       s       p       d       tot
------------------------------------------
    1        0.422   0.201   9.178   9.801
    2        0.417   0.204   9.177   9.798
    3        0.417   0.204   9.177   9.798
    4        0.416   0.204   9.177   9.798
    5        0.417   0.203   9.177   9.797
    6        0.416   0.204   9.177   9.797
    7        0.416   0.204   9.178   9.798
    8        0.416   0.204   9.178   9.798
    9        0.417   0.203   9.177   9.797
   10        0.411   0.269   9.163   9.843
   11        0.407   0.267   9.168   9.842
   12        0.411   0.268   9.163   9.843
   13        0.406   0.268   9.168   9.842
   14        0.406   0.268   9.168   9.842
   15        0.404   0.269   9.165   9.838
   16        0.410   0.269   9.163   9.842
   17        0.403   0.269   9.165   9.837
   18        0.403   0.269   9.165   9.837
   19        0.407   0.265   9.165   9.837
   20        0.438   0.294   9.137   9.868
   21        0.438   0.294   9.137   9.868
   22        0.396   0.274   9.164   9.834
   23        0.436   0.295   9.136   9.867
   24        0.396   0.274   9.164   9.834
   25        0.405   0.265   9.166   9.836
   26        0.405   0.265   9.166   9.836
   27        0.398   0.273   9.163   9.834
   28        0.411   0.205   9.171   9.787
   29        0.446   0.222   9.149   9.817
   30        0.446   0.222   9.149   9.817
   31        0.447   0.220   9.150   9.817
   32        0.447   0.220   9.150   9.817
   33        0.442   0.214   9.156   9.812
   34        0.442   0.214   9.156   9.812
   35        0.407   0.206   9.173   9.786
   36        0.425   0.464   2.225   3.114
   37        0.595   0.116   0.000   0.711
   38        0.595   0.116   0.000   0.711
   39        1.567   3.622   0.000   5.189
--------------------------------------------------
tot         17.803  12.787 322.963 353.554
 
    CHARGE:  cpu time    1.2198: real time    1.2199
    FORLOC:  cpu time    0.0124: real time    0.0124
    FORNL :  cpu time    5.4305: real time    5.4307
    STRESS:  cpu time   16.3245: real time   16.3245
    FORCOR:  cpu time    0.0477: real time    0.0478
    FORHAR:  cpu time    0.0198: real time    0.0198
    OFIELD:  cpu time    0.0003: real time    0.0003

  FORCE on cell =-STRESS in cart. coord.  units (eV):
  Direction    XX          YY          ZZ          XY          YZ          ZX
  --------------------------------------------------------------------------------------
  Alpha Z   670.93395   670.93395   670.93395
  Ewald  158769.67125158700.28089************    -0.21996   -12.79237    -0.06207
  Hartree168694.15335168681.83818************    -0.04077     5.43871    -0.01435
  E(xc)   -2079.87975 -2080.05341 -2085.53315    -0.00064    -0.04695     0.00027
  Local  ************************338466.56207     0.20087    -0.30234     0.05675
  n-local  -344.01369  -344.42374  -346.36559    -0.00077    -0.11090     0.00067
  augment  3230.85611  3231.98103  3243.60934     0.00328     0.44950     0.00048
  Kinetic  4922.80754  4942.07581  4974.36709     0.06091     7.27117     0.01625
  Fock        0.00000     0.00000     0.00000     0.00000     0.00000     0.00000
  -------------------------------------------------------------------------------------
  Total      -7.96536    -7.97485     0.14359     0.00292    -0.09317    -0.00200
  in kB      -7.64131    -7.65042     0.13775     0.00280    -0.08938    -0.00192
  external pressure =       -5.05 kB  Pullay stress =        0.00 kB


 VOLUME and BASIS-vectors are now :
 -----------------------------------------------------------------------------
  energy-cutoff  :      500.00
  volume of cell :     1670.12
      direct lattice vectors                 reciprocal lattice vectors
     8.791366577  0.000000000  0.000000000     0.113747958 -0.065672414  0.000000000
     4.395683289  7.613546790  0.000000000     0.000000000  0.131344829  0.000000000
     0.000000000  0.000000000 24.951963562     0.000000000  0.000000000  0.040077006

  length of vectors
     8.791366577  8.791366577 24.951963562     0.131344829  0.131344829  0.040077006


 FORCES acting on ions
    electron-ion (+dipol)            ewald-force                    non-local-force                 convergence-correction
 -----------------------------------------------------------------------------------------------
   0.959E-03 0.786E-02 0.270E+04   -.781E-04 -.954E-02 -.270E+04   0.570E-04 -.701E-02 -.188E+01   -.940E-03 0.133E-01 0.132E-01
   -.282E+00 -.347E+00 0.270E+04   0.211E+00 0.199E+00 -.270E+04   0.190E-01 0.132E+00 -.159E+01   0.550E-01 0.161E-01 0.127E+00
   0.282E+00 -.357E+00 0.270E+04   -.211E+00 0.199E+00 -.270E+04   -.188E-01 0.132E+00 -.159E+01   -.551E-01 0.259E-01 0.130E+00
   -.465E+00 -.106E+00 0.270E+04   0.286E+00 0.945E-01 -.270E+04   0.136E+00 -.412E-01 -.161E+01   0.397E-01 0.500E-01 0.887E-01
   -.136E-01 -.102E-01 0.270E+04   0.905E-04 0.160E-01 -.270E+04   -.198E-02 -.534E-02 -.140E+01   0.156E-01 -.428E-02 0.146E+00
   0.474E+00 -.110E+00 0.270E+04   -.286E+00 0.945E-01 -.270E+04   -.137E+00 -.415E-01 -.161E+01   -.480E-01 0.540E-01 0.920E-01
   -.128E+00 0.440E+00 0.270E+04   0.749E-01 -.293E+00 -.270E+04   0.893E-01 -.831E-01 -.167E+01   -.380E-01 -.620E-01 0.113E+00
   0.120E+00 0.445E+00 0.270E+04   -.750E-01 -.294E+00 -.270E+04   -.895E-01 -.830E-01 -.167E+01   0.460E-01 -.674E-01 0.114E+00
   0.130E-01 0.463E-01 0.270E+04   0.692E-04 -.623E-02 -.270E+04   0.233E-02 -.123E-01 -.169E+01   -.156E-01 -.258E-01 0.163E+00
   -.148E+01 -.855E+00 0.902E+03   0.176E+01 0.102E+01 -.901E+03   -.310E+00 -.191E+00 -.690E+00   0.391E-01 0.267E-01 0.228E+00
   -.105E-01 -.178E+01 0.897E+03   -.808E-04 0.172E+01 -.897E+03   -.223E-02 0.752E-01 -.304E+00   0.130E-01 -.616E-01 0.128E+00
   0.149E+01 -.859E+00 0.902E+03   -.176E+01 0.102E+01 -.901E+03   0.310E+00 -.191E+00 -.690E+00   -.451E-01 0.307E-01 0.223E+00
   -.157E+01 0.818E+00 0.897E+03   0.148E+01 -.759E+00 -.897E+03   0.826E-01 -.488E-01 -.323E+00   -.287E-01 0.148E-01 0.131E+00
   0.156E+01 0.820E+00 0.897E+03   -.148E+01 -.759E+00 -.897E+03   -.867E-01 -.486E-01 -.323E+00   0.486E-01 0.118E-01 0.122E+00
   0.693E-02 -.177E+00 0.901E+03   -.101E-03 0.669E-01 -.901E+03   0.505E-04 0.387E-01 -.717E+00   -.687E-02 0.628E-01 0.174E+00
   -.929E-03 0.178E+01 0.901E+03   0.117E-03 -.213E+01 -.901E+03   0.242E-03 0.380E+00 -.742E+00   0.580E-03 -.348E-01 0.226E+00
   -.793E-01 0.124E+00 0.901E+03   -.232E-01 -.870E-01 -.901E+03   0.149E-01 -.994E-02 -.733E+00   0.765E-01 -.228E-01 0.174E+00
   0.809E-01 0.117E+00 0.901E+03   0.230E-01 -.870E-01 -.901E+03   -.152E-01 -.101E-01 -.733E+00   -.776E-01 -.154E-01 0.178E+00
   -.840E-02 -.550E+01 -.907E+03   0.367E-03 0.548E+01 0.906E+03   -.238E-02 0.399E-01 0.655E+00   0.106E-01 -.203E-01 0.327E+00
   -.306E+02 -.182E+02 -.939E+03   0.317E+02 0.189E+02 0.940E+03   -.105E+01 -.628E+00 -.825E+00   -.128E+00 -.113E+00 0.201E+00
   0.306E+02 -.182E+02 -.939E+03   -.317E+02 0.189E+02 0.940E+03   0.105E+01 -.628E+00 -.825E+00   0.123E+00 -.114E+00 0.197E+00
   -.134E+02 0.743E+01 -.911E+03   0.135E+02 -.752E+01 0.910E+03   0.126E+00 -.357E-01 0.436E+00   -.169E+00 0.113E+00 0.282E+00
   0.255E-02 0.351E+02 -.941E+03   0.206E-03 -.365E+02 0.941E+03   0.336E-03 0.124E+01 -.727E+00   -.307E-02 0.163E+00 0.206E+00
   0.134E+02 0.742E+01 -.911E+03   -.135E+02 -.752E+01 0.910E+03   -.131E+00 -.358E-01 0.437E+00   0.186E+00 0.116E+00 0.281E+00
   0.431E+01 0.328E+01 -.907E+03   -.431E+01 -.323E+01 0.906E+03   -.112E-01 -.627E-01 0.760E+00   0.170E-01 0.215E-01 0.324E+00
   -.432E+01 0.328E+01 -.907E+03   0.431E+01 -.323E+01 0.906E+03   0.732E-02 -.630E-01 0.761E+00   -.218E-02 0.250E-01 0.326E+00
   -.223E-02 -.146E+02 -.910E+03   -.806E-03 0.147E+02 0.909E+03   -.207E-02 0.126E+00 0.390E+00   0.535E-02 -.174E+00 0.283E+00
   -.564E-02 0.199E+01 -.265E+04   0.352E-02 -.207E+01 0.265E+04   -.132E-03 0.701E-01 0.156E+01   0.221E-02 0.121E-01 -.478E-01
   -.752E+01 -.195E+02 -.263E+04   0.832E+01 0.207E+02 0.263E+04   -.843E+00 -.122E+01 0.813E+00   -.816E-02 -.616E-01 0.990E-01
   0.752E+01 -.195E+02 -.263E+04   -.832E+01 0.207E+02 0.263E+04   0.843E+00 -.122E+01 0.810E+00   0.473E-02 -.585E-01 0.998E-01
   -.238E+02 0.306E+00 -.263E+04   0.254E+02 -.140E+00 0.263E+04   -.156E+01 -.158E+00 0.760E+00   -.661E-01 -.131E-01 0.872E-01
   0.238E+02 0.294E+00 -.263E+04   -.254E+02 -.133E+00 0.263E+04   0.156E+01 -.158E+00 0.763E+00   0.663E-01 -.839E-02 0.910E-01
   -.179E+02 0.220E+02 -.264E+04   0.184E+02 -.233E+02 0.264E+04   -.484E+00 0.124E+01 0.130E+01   -.748E-01 0.845E-01 0.827E-01
   0.179E+02 0.220E+02 -.264E+04   -.184E+02 -.233E+02 0.264E+04   0.484E+00 0.124E+01 0.130E+01   0.801E-01 0.857E-01 0.857E-01
   0.132E-01 0.121E+01 -.266E+04   -.300E-02 -.121E+01 0.266E+04   0.281E-02 -.227E-01 0.175E+01   -.131E-01 0.181E-01 -.479E-01
   0.445E-02 -.327E+01 -.871E+03   -.431E-02 0.330E+01 0.870E+03   0.240E-03 0.993E-03 0.123E+01   0.188E-03 -.173E-01 0.883E-01
   0.666E+02 0.404E+02 -.288E+03   -.733E+02 -.445E+02 0.290E+03   0.668E+01 0.412E+01 -.210E+01   0.285E-02 -.926E-03 -.983E-02
   -.663E+02 0.408E+02 -.288E+03   0.730E+02 -.449E+02 0.290E+03   -.666E+01 0.416E+01 -.210E+01   -.277E-02 -.801E-03 -.991E-02
   -.163E+00 -.544E+02 -.160E+04   0.294E+00 0.948E+02 0.159E+04   -.128E+00 -.404E+02 0.972E+01   0.847E-03 -.300E-01 -.431E-01
 -----------------------------------------------------------------------------------------------
   0.718E-01 0.324E+02 -.247E+01   -.286E-13 0.426E-13 -.387E-11   -.117E+00 -.324E+02 -.311E+01   0.505E-01 0.377E-01 0.547E+01
 
 
 POSITION                                       TOTAL-FORCE (eV/Angst)
 -----------------------------------------------------------------------------------
      0.00000      0.00000      5.28219        -0.000129      0.003928     -0.018609
      2.93046      0.00000      5.28219         0.003165     -0.000466      0.025237
      5.86091      0.00000      5.28219        -0.003444     -0.000561      0.025239
      1.46523      2.53785      5.28219        -0.003260     -0.003870      0.030817
      4.39568      2.53785      5.28219         0.000011     -0.004566      0.029509
      7.32614      2.53785      5.28219         0.003084     -0.003890      0.030857
      2.93046      5.07570      5.28219        -0.001668      0.000580      0.031206
      5.86091      5.07570      5.28219         0.001345      0.000606      0.031212
      8.79137      5.07570      5.28219        -0.000296      0.001280      0.002673
      1.46523      0.84595      7.67490         0.001925      0.000801     -0.053907
      4.39568      0.84595      7.67490         0.000076     -0.046636     -0.064155
      7.32614      0.84595      7.67490        -0.002161      0.000800     -0.053892
      2.93046      3.38380      7.67490        -0.035094      0.023892     -0.063523
      5.86091      3.38380      7.67490         0.035283      0.023924     -0.063501
      8.79137      3.38380      7.67490        -0.000121     -0.009244      0.001837
      4.39568      5.92165      7.67490        -0.000118     -0.004059     -0.058180
      7.32614      5.92165      7.67490        -0.011237      0.003303      0.006748
     10.25659      5.92165      7.67490         0.010981      0.003291      0.006709
      8.79137      1.69074     10.05145         0.000080     -0.005120     -0.012785
      2.93556      1.69484     10.04095        -0.012345     -0.002777     -0.038969
      5.85581      1.69484     10.04095         0.012079     -0.002778     -0.038962
     10.25435      4.23104     10.05745         0.025868     -0.019711      0.010354
      4.39568      4.22386     10.04095        -0.000102      0.014942     -0.011282
      7.32838      4.23104     10.05745        -0.025667     -0.019800      0.010519
     11.72283      6.76818     10.05145         0.008255      0.006655     -0.005780
      5.85990      6.76818     10.05145        -0.008062      0.006669     -0.005720
      8.79137      6.76501     10.05745         0.000114      0.031155      0.001402
      0.00000      0.00000     12.43413        -0.000166      0.001290      0.051166
      2.95009      0.02948     12.45917        -0.051706     -0.077803     -0.064827
      5.84128      0.02948     12.45917         0.051523     -0.077886     -0.064760
      1.50057      2.54011     12.45917        -0.079259     -0.005408     -0.059475
      7.29079      2.54011     12.45917         0.079398     -0.005668     -0.059844
      2.94617      5.04396     12.45917        -0.073787      0.081576     -0.089168
      5.84520      5.04396     12.45917         0.073469      0.081916     -0.089530
      8.79137      5.07570     12.45428        -0.000288     -0.002637      0.047910
      4.39568      2.53785     12.30230         0.000434      0.017405      0.575207
      3.60381      2.00834     14.72986        -0.002923     -0.006712      0.006404
      5.18502      2.00333     14.73006         0.001227     -0.005585      0.005418
      4.39609      2.52969     14.47109         0.003515      0.001161     -0.013552
 -----------------------------------------------------------------------------------
    total drift:                                0.004943      0.027726     -0.108849


--------------------------------------------------------------------------------------------------------



  FREE ENERGIE OF THE ION-ELECTRON SYSTEM (eV)
  ---------------------------------------------------
  free  energy   TOTEN  =      -110.52451764 eV

  energy  without entropy=     -110.52451764  energy(sigma->0) =     -110.52451764
 


--------------------------------------------------------------------------------------------------------


    POTLOK:  cpu time    0.0485: real time    0.0485


--------------------------------------------------------------------------------------------------------


 stress matrix after NEB project (eV)
     -7.96536      0.00292     -0.00200
      0.00292     -7.97485     -0.09317
     -0.00200     -0.09317      0.14359
  FORCES: max atom, RMS     0.014049    0.003013
  FORCE total and by dimension    0.018816    0.013552
  Stress total and by dimension   11.273121    7.974851
     LOOP+:  cpu time  256.4088: real time  256.4184
 -----------------------------------------------------------------------------
|                                                                             |
|           W    W    AA    RRRRR   N    N  II  N    N   GGGG   !!!           |
|           W    W   A  A   R    R  NN   N  II  NN   N  G    G  !!!           |
|           W    W  A    A  R    R  N N  N  II  N N  N  G       !!!           |
|           W WW W  AAAAAA  RRRRR   N  N N  II  N  N N  G  GGG   !            |
|           WW  WW  A    A  R   R   N   NN  II  N   NN  G    G                |
|           W    W  A    A  R    R  N    N  II  N    N   GGGG   !!!           |
|                                                                             |
|     Tetrahedron method does not include variations of the Fermi             |
|     occupations, so forces and stress will be inaccurate. We suggest        |
|     using a different smearing scheme ISMEAR = 1 or 2 for metals in         |
|     relaxations.                                                            |
|                                                                             |
 -----------------------------------------------------------------------------

    4ORBIT:  cpu time    0.0000: real time    0.0000



 total charge

# of ion       s       p       d       tot
------------------------------------------
    1        0.422   0.201   9.178   9.801
    2        0.417   0.204   9.177   9.798
    3        0.417   0.204   9.177   9.798
    4        0.416   0.204   9.177   9.798
    5        0.417   0.203   9.177   9.797
    6        0.416   0.204   9.177   9.797
    7        0.416   0.204   9.178   9.798
    8        0.416   0.204   9.178   9.798
    9        0.417   0.203   9.177   9.797
   10        0.411   0.269   9.163   9.843
   11        0.407   0.267   9.168   9.842
   12        0.411   0.268   9.163   9.843
   13        0.406   0.268   9.168   9.842
   14        0.406   0.268   9.168   9.842
   15        0.404   0.269   9.165   9.838
   16        0.410   0.269   9.163   9.842
   17        0.403   0.269   9.165   9.837
   18        0.403   0.269   9.165   9.837
   19        0.407   0.265   9.165   9.837
   20        0.438   0.294   9.137   9.868
   21        0.438   0.294   9.137   9.868
   22        0.396   0.274   9.164   9.834
   23        0.436   0.295   9.136   9.867
   24        0.396   0.274   9.164   9.834
   25        0.405   0.265   9.166   9.836
   26        0.405   0.265   9.166   9.836
   27        0.398   0.273   9.163   9.834
   28        0.411   0.205   9.171   9.787
   29        0.446   0.222   9.149   9.817
   30        0.446   0.222   9.149   9.817
   31        0.447   0.220   9.150   9.817
   32        0.447   0.220   9.150   9.817
   33        0.442   0.214   9.156   9.812
   34        0.442   0.214   9.156   9.812
   35        0.407   0.206   9.173   9.786
   36        0.425   0.464   2.225   3.114
   37        0.595   0.116   0.000   0.711
   38        0.595   0.116   0.000   0.711
   39        1.567   3.622   0.000   5.189
--------------------------------------------------
tot         17.803  12.787 322.963 353.554
 
 BZINTS: Fermi energy:    0.537532;  397.000000 electrons
         Band energy:-0.148617E+04;  BLOECHL correction:   -0.020075

 total amount of memory used by VASP MPI-rank0   282635. kBytes
=======================================================================

   base      :      30000. kBytes
   nonlr-proj:      15383. kBytes
   fftplans  :       4808. kBytes
   grid      :      20723. kBytes
   one-center:        606. kBytes
   wavefun   :     211115. kBytes
 
  
  
 General timing and accounting informations for this job:
 ========================================================
  
                  Total CPU time used (sec):      279.858
                            User time (sec):      270.141
                          System time (sec):        9.717
                         Elapsed time (sec):      280.313
  
                   Maximum memory used (kb):      583624.
                   Average memory used (kb):          N/A
  
                          Minor page faults:       123499
                          Major page faults:            0
                 Voluntary context switches:         7075
