PROCAR new format
# of k-points:   10         # of bands:  252         # of ions:   37

 k-point     1 :    0.00000000 0.00000000 0.00000000     weight = 0.01562500

band     1 # energy   -8.87313576 # occ.  2.00000000
 
ion      s      p      d    tot
    1  0.006  0.001  0.000  0.007
    2  0.006  0.001  0.000  0.007
    3  0.006  0.001  0.000  0.007
    4  0.006  0.001  0.000  0.007
    5  0.006  0.001  0.000  0.007
    6  0.006  0.001  0.000  0.007
    7  0.006  0.001  0.000  0.007
    8  0.006  0.001  0.000  0.007
    9  0.006  0.001  0.000  0.007
   10  0.024  0.000  0.000  0.024
   11  0.023  0.000  0.000  0.024
   12  0.024  0.000  0.000  0.024
   13  0.023  0.000  0.000  0.024
   14  0.023  0.000  0.000  0.024
   15  0.023  0.000  0.000  0.024
   16  0.024  0.000  0.000  0.024
   17  0.023  0.000  0.000  0.024
   18  0.023  0.000  0.000  0.024
   19  0.026  0.000  0.000  0.026
   20  0.025  0.000  0.000  0.025
   21  0.025  0.000  0.000  0.025
   22  0.025  0.000  0.000  0.025
   23  0.025  0.000  0.000  0.025
   24  0.025  0.000  0.000  0.025
   25  0.026  0.000  0.000  0.026
   26  0.026  0.000  0.000  0.026
   27  0.025  0.000  0.000  0.025
   28  0.008  0.001  0.000  0.009
   29  0.008  0.001  0.000  0.009
   30  0.008  0.001  0.000  0.009
   31  0.008  0.001  0.000  0.009
   32  0.008  0.001  0.000  0.009
   33  0.008  0.001  0.000  0.009
   34  0.008  0.001  0.000  0.009
   35  0.007  0.001  0.000  0.008
   36  0.011  0.001  0.000  0.013
   37  0.000  0.000  0.000  0.000
tot    0.567  0.016  0.001  0.584
 
band     2 # energy   -7.61791865 # occ.  2.00000000
 
ion      s      p      d    tot
    1  0.017  0.001  0.000  0.019
    2  0.017  0.001  0.000  0.019
    3  0.017  0.001  0.000  0.019
    4  0.017  0.001  0.000  0.019
    5  0.018  0.001  0.000  0.019
    6  0.017  0.001  0.000  0.019
    7  0.017  0.001  0.000  0.019
    8  0.017  0.001  0.000  0.019
    9  0.017  0.001  0.000  0.019
   10  0.011  0.002  0.001  0.014
   11  0.011  0.002  0.001  0.014
   12  0.011  0.002  0.001  0.014
   13  0.011  0.002  0.001  0.014
   14  0.011  0.002  0.001  0.014
   15  0.011  0.002  0.001  0.014
   16  0.011  0.002  0.001  0.014
   17  0.011  0.002  0.001  0.014
   18  0.011  0.002  0.001  0.014
   19  0.008  0.003  0.000  0.011
   20  0.008  0.002  0.000  0.011
   21  0.008  0.002  0.000  0.011
   22  0.008  0.002  0.000  0.011
   23  0.008  0.002  0.000  0.011
   24  0.008  0.002  0.000  0.011
   25  0.008  0.003  0.000  0.011
   26  0.008  0.003  0.000  0.011
   27  0.008  0.002  0.000  0.011
   28  0.019  0.001  0.001  0.021
   29  0.020  0.001  0.001  0.021
   30  0.020  0.001  0.001  0.021
   31  0.020  0.001  0.001  0.021
   32  0.020  0.001  0.001  0.021
   33  0.020  0.001  0.001  0.021
   34  0.020  0.001  0.001  0.021
   35  0.019  0.001  0.001  0.020
   36  0.028  0.001  0.001  0.031
   37  0.000  0.000  0.000  0.000
tot    0.518  0.053  0.020  0.591
 
band     3 # energy   -6.01698897 # occ.  2.00000000
 
ion      s      p      d    tot
    1  0.016  0.000  0.006  0.021
    2  0.017  0.000  0.005  0.022
    3  0.017  0.000  0.005  0.022
    4  0.017  0.000  0.005  0.022
    5  0.014  0.000  0.006  0.020
    6  0.017  0.000  0.005  0.022
    7  0.017  0.000  0.005  0.022
    8  0.017  0.000  0.005  0.022
    9  0.020  0.000  0.005  0.025
   10  0.003  0.004  0.001  0.009
   11  0.004  0.004  0.001  0.010
   12  0.003  0.004  0.001  0.009
   13  0.004  0.004  0.001  0.010
   14  0.004  0.004  0.001  0.010
   15  0.001  0.003  0.002  0.006
   16  0.003  0.004  0.001  0.009
   17  0.001  0.003  0.002  0.006
   18  0.001  0.003  0.002  0.006
   19  0.005  0.003  0.004  0.013
   20  0.010  0.003  0.004  0.017
   21  0.010  0.003  0.004  0.017
   22  0.003  0.003  0.004  0.010
   23  0.010  0.003  0.004  0.017
   24  0.003  0.003  0.004  0.010
   25  0.005  0.003  0.004  0.013
   26  0.005  0.003  0.004  0.013
   27  0.003  0.003  0.004  0.010
   28  0.016  0.000  0.007  0.024
   29  0.018  0.000  0.009  0.027
   30  0.018  0.000  0.009  0.027
   31  0.018  0.000  0.009  0.027
   32  0.018  0.000  0.009  0.027
   33  0.018  0.000  0.009  0.027
   34  0.018  0.000  0.009  0.027
   35  0.021  0.000  0.007  0.028
   36  0.022  0.000  0.011  0.033
   37  0.000  0.000  0.000  0.000
tot    0.400  0.062  0.178  0.640
 
band     4 # energy   -5.89772513 # occ.  2.00000000
 
ion      s      p      d    tot
    1  0.000  0.003  0.004  0.007
    2  0.005  0.002  0.002  0.009
    3  0.007  0.002  0.002  0.010
    4  0.006  0.002  0.002  0.009
    5  0.000  0.000  0.002  0.002
    6  0.000  0.001  0.002  0.002
    7  0.007  0.002  0.002  0.011
    8  0.000  0.001  0.002  0.002
    9  0.000  0.001  0.004  0.005
   10  0.042  0.001  0.006  0.049
   11  0.000  0.007  0.004  0.011
   12  0.010  0.008  0.006  0.024
   13  0.000  0.007  0.004  0.011
   14  0.000  0.001  0.004  0.005
   15  0.010  0.001  0.011  0.023
   16  0.011  0.007  0.006  0.025
   17  0.010  0.001  0.011  0.022
   18  0.040  0.005  0.002  0.047
   19  0.017  0.005  0.011  0.033
   20  0.024  0.004  0.003  0.031
   21  0.006  0.002  0.012  0.020
   22  0.002  0.011  0.002  0.015
   23  0.006  0.002  0.012  0.021
   24  0.010  0.000  0.006  0.016
   25  0.066  0.003  0.005  0.074
   26  0.016  0.005  0.011  0.032
   27  0.003  0.010  0.002  0.015
   28  0.000  0.005  0.007  0.011
   29  0.007  0.002  0.003  0.012
   30  0.015  0.003  0.005  0.023
   31  0.007  0.002  0.003  0.013
   32  0.002  0.001  0.004  0.007
   33  0.015  0.003  0.005  0.023
   34  0.002  0.001  0.004  0.007
   35  0.000  0.002  0.004  0.006
   36  0.000  0.001  0.008  0.009
   37  0.000  0.000  0.000  0.000
tot    0.347  0.113  0.182  0.643
 
band     5 # energy   -5.89761378 # occ.  2.00000000
 
ion      s      p      d    tot
    1  0.000  0.003  0.004  0.007
    2  0.003  0.001  0.002  0.006
    3  0.001  0.001  0.002  0.004
    4  0.003  0.001  0.002  0.005
    5  0.000  0.000  0.002  0.002
    6  0.008  0.002  0.002  0.012
    7  0.001  0.001  0.002  0.004
    8  0.008  0.002  0.002  0.012
    9  0.000  0.001  0.004  0.005
   10  0.000  0.009  0.006  0.016
   11  0.000  0.003  0.004  0.007
   12  0.032  0.003  0.006  0.041
   13  0.000  0.003  0.004  0.007
   14  0.000  0.009  0.004  0.013
   15  0.030  0.003  0.005  0.039
   16  0.031  0.004  0.006  0.041
   17  0.031  0.003  0.005  0.039
   18  0.000  0.000  0.014  0.014
   19  0.049  0.004  0.007  0.060
   20  0.000  0.002  0.015  0.017
   21  0.018  0.004  0.006  0.028
   22  0.008  0.003  0.005  0.016
   23  0.018  0.004  0.006  0.027
   24  0.000  0.014  0.001  0.015
   25  0.000  0.006  0.012  0.018
   26  0.050  0.004  0.007  0.061
   27  0.007  0.004  0.005  0.016
   28  0.000  0.005  0.007  0.011
   29  0.009  0.002  0.005  0.016
   30  0.001  0.001  0.003  0.005
   31  0.009  0.002  0.005  0.015
   32  0.014  0.003  0.004  0.021
   33  0.001  0.001  0.003  0.005
   34  0.014  0.003  0.004  0.021
   35  0.000  0.002  0.004  0.006
   36  0.000  0.001  0.008  0.009
   37  0.000  0.000  0.000  0.000
tot    0.347  0.113  0.182  0.643
 
band     6 # energy   -5.87159613 # occ.  2.00000000
 
ion      s      p      d    tot
    1  0.019  0.003  0.001  0.023
    2  0.000  0.002  0.004  0.005
    3  0.000  0.002  0.004  0.005
    4  0.000  0.002  0.004  0.005
    5  0.005  0.001  0.001  0.007
    6  0.000  0.002  0.004  0.005
    7  0.000  0.002  0.004  0.005
    8  0.000  0.002  0.004  0.005
    9  0.004  0.001  0.000  0.005
   10  0.029  0.008  0.003  0.040
   11  0.012  0.000  0.011  0.023
   12  0.030  0.008  0.004  0.041
   13  0.012  0.000  0.011  0.023
   14  0.011  0.000  0.011  0.023
   15  0.004  0.006  0.006  0.016
   16  0.030  0.008  0.004  0.041
   17  0.004  0.006  0.006  0.016
   18  0.004  0.006  0.006  0.016
   19  0.029  0.009  0.003  0.041
   20  0.003  0.005  0.008  0.015
   21  0.002  0.005  0.008  0.015
   22  0.017  0.001  0.011  0.029
   23  0.002  0.005  0.008  0.015
   24  0.017  0.001  0.011  0.028
   25  0.029  0.009  0.003  0.041
   26  0.029  0.009  0.003  0.041
   27  0.017  0.001  0.011  0.029
   28  0.022  0.003  0.001  0.026
   29  0.000  0.002  0.005  0.007
   30  0.000  0.002  0.005  0.007
   31  0.000  0.002  0.005  0.007
   32  0.000  0.002  0.005  0.007
   33  0.000  0.002  0.005  0.007
   34  0.000  0.002  0.005  0.007
   35  0.009  0.002  0.001  0.011
   36  0.003  0.001  0.000  0.004
   37  0.000  0.000  0.000  0.000
tot    0.346  0.115  0.182  0.643
 
band     7 # energy   -5.86070222 # occ.  2.00000000
 
ion      s      p      d    tot
    1  0.000  0.000  0.003  0.003
    2  0.004  0.002  0.002  0.008
    3  0.007  0.002  0.002  0.010
    4  0.007  0.002  0.002  0.012
    5  0.000  0.003  0.005  0.008
    6  0.001  0.001  0.002  0.004
    7  0.009  0.002  0.002  0.013
    8  0.000  0.001  0.002  0.003
    9  0.000  0.002  0.003  0.004
   10  0.000  0.003  0.011  0.015
   11  0.035  0.004  0.008  0.046
   12  0.013  0.003  0.004  0.020
   13  0.052  0.004  0.005  0.061
   14  0.002  0.004  0.013  0.018
   15  0.008  0.005  0.004  0.018
   16  0.009  0.003  0.006  0.018
   17  0.013  0.002  0.006  0.020
   18  0.000  0.012  0.002  0.015
   19  0.001  0.005  0.005  0.010
   20  0.001  0.012  0.004  0.018
   21  0.037  0.002  0.007  0.047
   22  0.049  0.004  0.004  0.057
   23  0.024  0.006  0.006  0.036
   24  0.002  0.001  0.017  0.019
   25  0.000  0.008  0.006  0.015
   26  0.001  0.003  0.004  0.008
   27  0.032  0.003  0.009  0.044
   28  0.000  0.000  0.003  0.003
   29  0.004  0.002  0.003  0.008
   30  0.009  0.003  0.004  0.016
   31  0.008  0.002  0.003  0.013
   32  0.002  0.001  0.004  0.007
   33  0.011  0.003  0.004  0.018
   34  0.000  0.001  0.003  0.004
   35  0.000  0.002  0.006  0.008
   36  0.000  0.005  0.007  0.012
   37  0.000  0.000  0.000  0.000
tot    0.343  0.117  0.182  0.642
 
band     8 # energy   -5.86058946 # occ.  2.00000000
 
ion      s      p      d    tot
    1  0.000  0.000  0.003  0.003
    2  0.005  0.002  0.002  0.009
    3  0.003  0.001  0.002  0.006
    4  0.002  0.001  0.002  0.005
    5  0.000  0.003  0.005  0.008
    6  0.008  0.002  0.002  0.013
    7  0.000  0.001  0.002  0.003
    8  0.009  0.002  0.002  0.014
    9  0.000  0.002  0.003  0.004
   10  0.015  0.003  0.003  0.021
   11  0.024  0.004  0.009  0.038
   12  0.002  0.003  0.010  0.015
   13  0.007  0.004  0.012  0.023
   14  0.058  0.004  0.004  0.066
   15  0.006  0.008  0.004  0.017
   16  0.006  0.003  0.008  0.017
   17  0.002  0.011  0.002  0.015
   18  0.014  0.001  0.006  0.020
   19  0.000  0.006  0.005  0.012
   20  0.040  0.001  0.007  0.049
   21  0.005  0.011  0.005  0.021
   22  0.006  0.001  0.016  0.023
   23  0.018  0.008  0.006  0.031
   24  0.054  0.005  0.003  0.061
   25  0.001  0.002  0.004  0.007
   26  0.000  0.008  0.006  0.014
   27  0.023  0.002  0.011  0.036
   28  0.000  0.000  0.003  0.003
   29  0.007  0.002  0.004  0.014
   30  0.002  0.001  0.003  0.006
   31  0.003  0.002  0.004  0.009
   32  0.010  0.003  0.003  0.015
   33  0.000  0.001  0.003  0.004
   34  0.011  0.003  0.003  0.018
   35  0.000  0.002  0.006  0.008
   36  0.000  0.005  0.007  0.012
   37  0.000  0.000  0.000  0.000
tot    0.343  0.117  0.182  0.642
 
band     9 # energy   -5.83163368 # occ.  2.00000000
 
ion      s      p      d    tot
    1  0.000  0.000  0.000  0.000
    2  0.000  0.002  0.004  0.006
    3  0.000  0.002  0.004  0.006
    4  0.000  0.002  0.004  0.006
    5  0.020  0.002  0.000  0.022
    6  0.000  0.002  0.004  0.006
    7  0.000  0.002  0.004  0.006
    8  0.000  0.002  0.004  0.006
    9  0.012  0.003  0.002  0.016
   10  0.000  0.002  0.011  0.012
   11  0.018  0.009  0.003  0.029
   12  0.000  0.002  0.011  0.012
   13  0.018  0.009  0.003  0.029
   14  0.018  0.009  0.003  0.029
   15  0.029  0.003  0.008  0.041
   16  0.000  0.002  0.011  0.012
   17  0.029  0.003  0.008  0.041
   18  0.029  0.003  0.008  0.041
   19  0.003  0.001  0.011  0.015
   20  0.027  0.004  0.008  0.039
   21  0.027  0.004  0.008  0.039
   22  0.017  0.009  0.002  0.028
   23  0.027  0.004  0.008  0.039
   24  0.017  0.009  0.002  0.028
   25  0.003  0.001  0.011  0.015
   26  0.003  0.001  0.011  0.015
   27  0.017  0.009  0.002  0.028
   28  0.000  0.000  0.001  0.001
   29  0.000  0.002  0.005  0.006
   30  0.000  0.002  0.005  0.006
   31  0.000  0.002  0.005  0.006
   32  0.000  0.002  0.005  0.006
   33  0.000  0.002  0.005  0.006
   34  0.000  0.002  0.005  0.006
   35  0.009  0.002  0.001  0.012
   36  0.026  0.004  0.002  0.032
   37  0.001  0.000  0.000  0.001
tot    0.352  0.115  0.185  0.652
 
band    10 # energy   -5.17370788 # occ.  2.00000000
 
ion      s      p      d    tot
    1  0.000  0.004  0.009  0.013
    2  0.003  0.002  0.005  0.010
    3  0.020  0.004  0.005  0.029
    4  0.005  0.002  0.005  0.013
    5  0.000  0.000  0.010  0.010
    6  0.008  0.002  0.005  0.015
    7  0.020  0.004  0.005  0.028
    8  0.005  0.002  0.005  0.011
    9  0.000  0.005  0.008  0.013
   10  0.013  0.001  0.006  0.020
   11  0.001  0.002  0.012  0.016
   12  0.002  0.004  0.014  0.020
   13  0.001  0.003  0.013  0.016
   14  0.004  0.001  0.007  0.012
   15  0.009  0.002  0.016  0.027
   16  0.004  0.004  0.013  0.020
   17  0.005  0.001  0.018  0.024
   18  0.029  0.004  0.005  0.038
   19  0.003  0.002  0.012  0.017
   20  0.000  0.001  0.010  0.011
   21  0.000  0.002  0.013  0.015
   22  0.001  0.002  0.026  0.029
   23  0.000  0.001  0.013  0.014
   24  0.006  0.003  0.003  0.012
   25  0.010  0.007  0.010  0.026
   26  0.002  0.001  0.012  0.015
   27  0.002  0.002  0.022  0.026
   28  0.000  0.005  0.008  0.013
   29  0.005  0.002  0.009  0.015
   30  0.028  0.003  0.012  0.042
   31  0.008  0.002  0.009  0.020
   32  0.010  0.002  0.009  0.021
   33  0.027  0.003  0.012  0.042
   34  0.006  0.002  0.009  0.016
   35  0.000  0.005  0.011  0.016
   36  0.000  0.000  0.020  0.020
   37  0.000  0.000  0.000  0.000
tot    0.236  0.093  0.377  0.706
 
band    11 # energy   -5.17363721 # occ.  2.00000000
 
ion      s      p      d    tot
    1  0.000  0.004  0.009  0.013
    2  0.017  0.003  0.005  0.026
    3  0.000  0.002  0.005  0.006
    4  0.015  0.003  0.005  0.023
    5  0.000  0.000  0.010  0.010
    6  0.012  0.003  0.005  0.020
    7  0.000  0.002  0.005  0.007
    8  0.015  0.003  0.005  0.024
    9  0.000  0.005  0.008  0.013
   10  0.000  0.005  0.016  0.020
   11  0.002  0.002  0.009  0.014
   12  0.010  0.002  0.008  0.020
   13  0.003  0.002  0.008  0.013
   14  0.000  0.003  0.014  0.017
   15  0.020  0.003  0.010  0.033
   16  0.009  0.002  0.009  0.020
   17  0.024  0.004  0.008  0.035
   18  0.000  0.000  0.021  0.022
   19  0.007  0.005  0.011  0.022
   20  0.000  0.002  0.014  0.016
   21  0.000  0.001  0.011  0.012
   22  0.005  0.003  0.008  0.015
   23  0.000  0.001  0.011  0.013
   24  0.000  0.001  0.031  0.032
   25  0.000  0.000  0.013  0.013
   26  0.008  0.006  0.010  0.024
   27  0.004  0.002  0.012  0.018
   28  0.000  0.005  0.008  0.013
   29  0.023  0.003  0.011  0.037
   30  0.000  0.002  0.008  0.010
   31  0.019  0.003  0.010  0.033
   32  0.018  0.003  0.011  0.031
   33  0.000  0.002  0.008  0.010
   34  0.022  0.003  0.011  0.036
   35  0.000  0.005  0.011  0.016
   36  0.000  0.000  0.020  0.020
   37  0.000  0.000  0.000  0.000
tot    0.236  0.093  0.377  0.706
 
band    12 # energy   -5.14333587 # occ.  2.00000000
 
ion      s      p      d    tot
    1  0.004  0.001  0.010  0.015
    2  0.006  0.001  0.010  0.017
    3  0.006  0.001  0.010  0.017
    4  0.006  0.001  0.010  0.017
    5  0.003  0.001  0.010  0.014
    6  0.006  0.001  0.010  0.017
    7  0.006  0.001  0.010  0.017
    8  0.006  0.001  0.010  0.017
    9  0.014  0.000  0.008  0.022
   10  0.010  0.000  0.025  0.034
   11  0.009  0.000  0.022  0.031
   12  0.010  0.000  0.025  0.034
   13  0.009  0.000  0.022  0.031
   14  0.009  0.000  0.022  0.031
   15  0.004  0.000  0.023  0.027
   16  0.010  0.000  0.025  0.034
   17  0.004  0.000  0.023  0.027
   18  0.004  0.000  0.023  0.027
   19  0.006  0.000  0.020  0.026
   20  0.008  0.000  0.024  0.033
   21  0.008  0.000  0.024  0.033
   22  0.003  0.000  0.019  0.022
   23  0.008  0.000  0.024  0.033
   24  0.003  0.000  0.019  0.022
   25  0.006  0.000  0.020  0.026
   26  0.006  0.000  0.020  0.026
   27  0.003  0.000  0.019  0.022
   28  0.001  0.001  0.006  0.008
   29  0.003  0.001  0.009  0.013
   30  0.003  0.001  0.009  0.013
   31  0.003  0.001  0.009  0.013
   32  0.003  0.001  0.009  0.013
   33  0.003  0.001  0.009  0.013
   34  0.003  0.001  0.009  0.013
   35  0.008  0.000  0.006  0.014
   36  0.003  0.001  0.008  0.012
   37  0.000  0.000  0.000  0.000
tot    0.205  0.013  0.563  0.780
 
band    13 # energy   -5.11515631 # occ.  2.00000000
 
ion      s      p      d    tot
    1  0.033  0.003  0.000  0.036
    2  0.000  0.003  0.010  0.013
    3  0.000  0.003  0.010  0.013
    4  0.000  0.003  0.010  0.013
    5  0.000  0.000  0.001  0.001
    6  0.000  0.003  0.010  0.013
    7  0.000  0.003  0.010  0.013
    8  0.000  0.003  0.010  0.013
    9  0.026  0.004  0.001  0.031
   10  0.008  0.003  0.010  0.022
   11  0.001  0.000  0.015  0.016
   12  0.009  0.003  0.010  0.022
   13  0.002  0.000  0.015  0.017
   14  0.001  0.000  0.015  0.017
   15  0.009  0.003  0.014  0.026
   16  0.008  0.003  0.010  0.022
   17  0.009  0.003  0.014  0.026
   18  0.009  0.004  0.014  0.026
   19  0.003  0.003  0.021  0.027
   20  0.000  0.000  0.013  0.013
   21  0.000  0.000  0.013  0.013
   22  0.010  0.004  0.008  0.022
   23  0.000  0.000  0.013  0.013
   24  0.010  0.004  0.008  0.022
   25  0.003  0.003  0.021  0.027
   26  0.003  0.003  0.021  0.027
   27  0.010  0.004  0.008  0.022
   28  0.039  0.003  0.000  0.042
   29  0.000  0.003  0.015  0.018
   30  0.000  0.003  0.015  0.018
   31  0.000  0.003  0.015  0.018
   32  0.000  0.003  0.015  0.018
   33  0.000  0.003  0.015  0.018
   34  0.000  0.003  0.015  0.018
   35  0.028  0.003  0.001  0.032
   36  0.000  0.000  0.000  0.000
   37  0.000  0.000  0.000  0.000
tot    0.223  0.090  0.394  0.707
 
band    14 # energy   -5.10955448 # occ.  2.00000000
 
ion      s      p      d    tot
    1  0.000  0.002  0.009  0.011
    2  0.000  0.002  0.005  0.007
    3  0.020  0.004  0.005  0.029
    4  0.009  0.003  0.005  0.017
    5  0.000  0.006  0.009  0.015
    6  0.013  0.003  0.005  0.021
    7  0.018  0.004  0.005  0.027
    8  0.002  0.002  0.005  0.009
    9  0.000  0.001  0.011  0.012
   10  0.001  0.001  0.017  0.019
   11  0.010  0.003  0.016  0.028
   12  0.015  0.004  0.008  0.027
   13  0.021  0.004  0.006  0.030
   14  0.002  0.002  0.023  0.027
   15  0.000  0.002  0.012  0.015
   16  0.007  0.002  0.013  0.022
   17  0.001  0.000  0.008  0.009
   18  0.000  0.004  0.016  0.019
   19  0.001  0.002  0.016  0.019
   20  0.002  0.001  0.029  0.032
   21  0.017  0.005  0.007  0.029
   22  0.008  0.004  0.011  0.022
   23  0.008  0.003  0.020  0.031
   24  0.001  0.001  0.012  0.013
   25  0.000  0.003  0.022  0.025
   26  0.002  0.000  0.008  0.010
   27  0.004  0.002  0.011  0.017
   28  0.000  0.002  0.014  0.016
   29  0.001  0.001  0.007  0.009
   30  0.019  0.004  0.008  0.030
   31  0.011  0.003  0.007  0.020
   32  0.012  0.003  0.007  0.022
   33  0.018  0.004  0.008  0.030
   34  0.001  0.002  0.007  0.010
   35  0.000  0.001  0.011  0.012
   36  0.000  0.009  0.010  0.019
   37  0.000  0.000  0.000  0.000
tot    0.223  0.096  0.393  0.712
 
band    15 # energy   -5.10950748 # occ.  2.00000000
 
ion      s      p      d    tot
    1  0.000  0.002  0.009  0.011
    2  0.021  0.004  0.005  0.030
    3  0.001  0.002  0.005  0.008
    4  0.012  0.003  0.005  0.019
    5  0.000  0.006  0.009  0.015
    6  0.007  0.002  0.005  0.015
    7  0.003  0.002  0.005  0.010
    8  0.019  0.004  0.005  0.028
    9  0.000  0.001  0.011  0.012
   10  0.014  0.004  0.009  0.026
   11  0.012  0.003  0.014  0.029
   12  0.001  0.001  0.017  0.019
   13  0.001  0.002  0.024  0.027
   14  0.020  0.004  0.007  0.030
   15  0.000  0.002  0.012  0.014
   16  0.008  0.002  0.012  0.023
   17  0.000  0.004  0.016  0.020
   18  0.001  0.000  0.009  0.010
   19  0.001  0.001  0.015  0.017
   20  0.016  0.005  0.008  0.029
   21  0.001  0.001  0.030  0.032
   22  0.000  0.001  0.012  0.013
   23  0.010  0.003  0.017  0.031
   24  0.007  0.004  0.011  0.022
   25  0.002  0.000  0.008  0.010
   26  0.000  0.003  0.023  0.026
   27  0.004  0.002  0.011  0.018
   28  0.000  0.002  0.014  0.016
   29  0.020  0.004  0.008  0.031
   30  0.002  0.002  0.007  0.010
   31  0.010  0.003  0.007  0.020
   32  0.009  0.002  0.007  0.018
   33  0.002  0.002  0.007  0.011
   34  0.019  0.004  0.008  0.031
   35  0.000  0.001  0.011  0.012
   36  0.000  0.009  0.010  0.019
   37  0.000  0.000  0.000  0.000
tot    0.223  0.096  0.393  0.712
 
band    16 # energy   -5.05511963 # occ.  2.00000000
 
ion      s      p      d    tot
    1  0.012  0.001  0.000  0.013
    2  0.000  0.003  0.010  0.013
    3  0.000  0.003  0.010  0.013
    4  0.000  0.003  0.010  0.013
    5  0.045  0.004  0.000  0.049
    6  0.000  0.003  0.010  0.013
    7  0.000  0.003  0.010  0.013
    8  0.000  0.003  0.010  0.013
    9  0.007  0.001  0.001  0.009
   10  0.002  0.001  0.019  0.022
   11  0.008  0.005  0.014  0.027
   12  0.002  0.001  0.019  0.022
   13  0.008  0.005  0.014  0.027
   14  0.008  0.005  0.014  0.027
   15  0.006  0.001  0.011  0.017
   16  0.002  0.001  0.019  0.022
   17  0.006  0.001  0.011  0.017
   18  0.006  0.001  0.011  0.017
   19  0.007  0.001  0.012  0.020
   20  0.009  0.004  0.014  0.028
   21  0.009  0.004  0.014  0.028
   22  0.001  0.001  0.018  0.020
   23  0.009  0.004  0.014  0.028
   24  0.001  0.001  0.018  0.020
   25  0.007  0.001  0.012  0.020
   26  0.007  0.001  0.012  0.020
   27  0.001  0.001  0.018  0.020
   28  0.008  0.001  0.001  0.010
   29  0.000  0.003  0.013  0.016
   30  0.000  0.003  0.013  0.016
   31  0.000  0.003  0.013  0.016
   32  0.000  0.003  0.013  0.016
   33  0.000  0.003  0.013  0.016
   34  0.000  0.003  0.013  0.016
   35  0.009  0.001  0.000  0.010
   36  0.059  0.006  0.002  0.067
   37  0.004  0.000  0.000  0.004
tot    0.240  0.091  0.407  0.738
 
band    17 # energy   -4.50310233 # occ.  2.00000000
 
ion      s      p      d    tot
    1  0.000  0.001  0.026  0.027
    2  0.015  0.001  0.007  0.023
    3  0.010  0.001  0.007  0.019
    4  0.013  0.001  0.008  0.022
    5  0.000  0.001  0.015  0.015
    6  0.007  0.001  0.008  0.016
    7  0.001  0.001  0.007  0.009
    8  0.000  0.001  0.007  0.008
    9  0.000  0.003  0.003  0.006
   10  0.000  0.000  0.053  0.053
   11  0.000  0.004  0.019  0.022
   12  0.000  0.000  0.036  0.036
   13  0.000  0.002  0.013  0.014
   14  0.000  0.000  0.009  0.010
   15  0.000  0.007  0.013  0.019
   16  0.000  0.000  0.006  0.006
   17  0.000  0.003  0.020  0.023
   18  0.000  0.001  0.024  0.024
   19  0.005  0.004  0.017  0.027
   20  0.000  0.000  0.047  0.048
   21  0.000  0.000  0.035  0.035
   22  0.002  0.001  0.016  0.019
   23  0.000  0.000  0.012  0.012
   24  0.001  0.000  0.019  0.020
   25  0.001  0.001  0.022  0.023
   26  0.002  0.002  0.020  0.024
   27  0.005  0.002  0.012  0.019
   28  0.000  0.001  0.009  0.010
   29  0.005  0.000  0.023  0.028
   30  0.001  0.001  0.019  0.020
   31  0.013  0.000  0.029  0.042
   32  0.014  0.000  0.027  0.042
   33  0.003  0.001  0.016  0.019
   34  0.007  0.001  0.019  0.027
   35  0.000  0.002  0.013  0.014
   36  0.000  0.000  0.029  0.029
   37  0.000  0.000  0.000  0.000
tot    0.104  0.046  0.661  0.812
 
band    18 # energy   -4.50308202 # occ.  2.00000000
 
ion      s      p      d    tot
    1  0.000  0.001  0.026  0.027
    2  0.001  0.001  0.008  0.009
    3  0.005  0.001  0.008  0.014
    4  0.003  0.001  0.007  0.011
    5  0.000  0.001  0.015  0.015
    6  0.008  0.001  0.007  0.017
    7  0.014  0.001  0.008  0.023
    8  0.015  0.002  0.008  0.024
    9  0.000  0.003  0.003  0.006
   10  0.000  0.000  0.010  0.011
   11  0.000  0.000  0.008  0.008
   12  0.000  0.000  0.027  0.027
   13  0.000  0.002  0.014  0.017
   14  0.000  0.004  0.018  0.021
   15  0.000  0.000  0.025  0.025
   16  0.000  0.000  0.057  0.057
   17  0.000  0.004  0.018  0.022
   18  0.000  0.006  0.014  0.020
   19  0.000  0.000  0.022  0.022
   20  0.000  0.000  0.015  0.016
   21  0.000  0.000  0.028  0.028
   22  0.003  0.001  0.015  0.019
   23  0.000  0.000  0.051  0.051
   24  0.004  0.002  0.013  0.019
   25  0.005  0.004  0.018  0.026
   26  0.003  0.003  0.019  0.025
   27  0.000  0.000  0.019  0.020
   28  0.000  0.001  0.009  0.010
   29  0.010  0.000  0.021  0.031
   30  0.013  0.000  0.026  0.039
   31  0.001  0.001  0.015  0.017
   32  0.000  0.001  0.017  0.018
   33  0.012  0.000  0.028  0.040
   34  0.007  0.000  0.025  0.033
   35  0.000  0.002  0.013  0.014
   36  0.000  0.000  0.029  0.029
   37  0.000  0.000  0.000  0.000
tot    0.104  0.046  0.661  0.812
 
band    19 # energy   -4.45546885 # occ.  2.00000000
 
ion      s      p      d    tot
    1  0.007  0.000  0.001  0.008
    2  0.000  0.001  0.015  0.016
    3  0.000  0.001  0.015  0.016
    4  0.000  0.001  0.015  0.016
    5  0.008  0.000  0.000  0.008
    6  0.000  0.001  0.015  0.016
    7  0.000  0.001  0.015  0.016
    8  0.000  0.001  0.015  0.016
    9  0.029  0.001  0.001  0.031
   10  0.000  0.002  0.011  0.013
   11  0.000  0.000  0.013  0.013
   12  0.000  0.002  0.011  0.013
   13  0.000  0.000  0.013  0.013
   14  0.000  0.000  0.013  0.013
   15  0.000  0.003  0.037  0.040
   16  0.000  0.002  0.011  0.013
   17  0.000  0.003  0.037  0.040
   18  0.000  0.003  0.037  0.040
   19  0.001  0.002  0.024  0.027
   20  0.000  0.000  0.012  0.013
   21  0.000  0.000  0.012  0.013
   22  0.002  0.002  0.027  0.031
   23  0.000  0.000  0.012  0.013
   24  0.002  0.002  0.027  0.031
   25  0.001  0.002  0.024  0.027
   26  0.001  0.002  0.024  0.027
   27  0.002  0.002  0.027  0.031
   28  0.025  0.000  0.004  0.030
   29  0.000  0.001  0.033  0.034
   30  0.000  0.001  0.033  0.034
   31  0.000  0.001  0.033  0.034
   32  0.000  0.001  0.033  0.034
   33  0.000  0.001  0.033  0.034
   34  0.000  0.001  0.033  0.034
   35  0.015  0.000  0.006  0.021
   36  0.002  0.000  0.000  0.002
   37  0.000  0.000  0.000  0.000
tot    0.095  0.044  0.672  0.811
 
band    20 # energy   -4.42710492 # occ.  2.00000000
 
ion      s      p      d    tot
    1  0.022  0.001  0.000  0.023
    2  0.000  0.001  0.014  0.016
    3  0.000  0.001  0.014  0.016
    4  0.000  0.001  0.014  0.016
    5  0.018  0.001  0.001  0.020
    6  0.000  0.001  0.014  0.016
    7  0.000  0.001  0.014  0.016
    8  0.000  0.001  0.014  0.016
    9  0.000  0.000  0.000  0.000
   10  0.000  0.002  0.028  0.029
   11  0.000  0.003  0.025  0.028
   12  0.000  0.002  0.028  0.029
   13  0.000  0.003  0.025  0.028
   14  0.000  0.003  0.025  0.028
   15  0.000  0.000  0.003  0.004
   16  0.000  0.002  0.028  0.029
   17  0.000  0.000  0.003  0.004
   18  0.000  0.000  0.003  0.004
   19  0.001  0.001  0.014  0.016
   20  0.000  0.003  0.041  0.044
   21  0.000  0.003  0.041  0.044
   22  0.000  0.000  0.014  0.014
   23  0.000  0.003  0.041  0.044
   24  0.000  0.000  0.014  0.014
   25  0.001  0.001  0.014  0.016
   26  0.001  0.001  0.014  0.016
   27  0.000  0.000  0.014  0.014
   28  0.004  0.000  0.001  0.006
   29  0.000  0.001  0.035  0.036
   30  0.000  0.001  0.035  0.036
   31  0.000  0.001  0.035  0.036
   32  0.000  0.001  0.035  0.036
   33  0.000  0.001  0.035  0.036
   34  0.000  0.001  0.035  0.036
   35  0.015  0.000  0.001  0.017
   36  0.044  0.001  0.000  0.045
   37  0.002  0.000  0.000  0.002
tot    0.110  0.044  0.676  0.830
 
band    21 # energy   -4.42338122 # occ.  2.00000000
 
ion      s      p      d    tot
    1  0.000  0.002  0.003  0.005
    2  0.015  0.001  0.009  0.025
    3  0.011  0.001  0.009  0.020
    4  0.012  0.001  0.009  0.022
    5  0.000  0.002  0.017  0.019
    6  0.006  0.001  0.009  0.016
    7  0.002  0.001  0.008  0.011
    8  0.000  0.001  0.008  0.009
    9  0.000  0.000  0.030  0.030
   10  0.000  0.006  0.019  0.026
   11  0.000  0.000  0.049  0.049
   12  0.000  0.004  0.013  0.017
   13  0.000  0.002  0.025  0.027
   14  0.001  0.003  0.009  0.012
   15  0.000  0.000  0.038  0.038
   16  0.000  0.000  0.005  0.006
   17  0.000  0.000  0.024  0.024
   18  0.000  0.001  0.013  0.014
   19  0.000  0.000  0.050  0.050
   20  0.002  0.005  0.019  0.027
   21  0.001  0.003  0.018  0.023
   22  0.000  0.002  0.020  0.022
   23  0.000  0.000  0.017  0.018
   24  0.001  0.003  0.016  0.019
   25  0.001  0.000  0.009  0.011
   26  0.000  0.000  0.026  0.027
   27  0.000  0.000  0.027  0.027
   28  0.000  0.001  0.038  0.039
   29  0.006  0.001  0.016  0.022
   30  0.001  0.000  0.016  0.017
   31  0.013  0.001  0.015  0.029
   32  0.013  0.001  0.015  0.029
   33  0.002  0.001  0.015  0.018
   34  0.007  0.001  0.015  0.022
   35  0.000  0.000  0.031  0.032
   36  0.000  0.004  0.001  0.005