 vasp.6.2.0 18Jan21 (build Jun 12 2021 23:27:24) complex                        
  
 executed on             LinuxIFC date 2022.05.30  15:51:01
 running on   28 total cores
 distrk:  each k-point on   28 cores,    1 groups
 distr:  one band on NCORE=   1 cores,   28 groups


--------------------------------------------------------------------------------------------------------


 INCAR:
   ISMEAR = -5
   SIGMA = 0.1
   ISPIN = 1
   EDIFF = 1.d-5
   EDIFFG = -0.01
   NSW = 0
   NELM = 150
   ENCUT = 500
   ISIF = 2
   IBRION = 2
   LREAL = Auto
   ALGO = Fast
   ICHARG = 11
   LORBIT = 10
   LCHARG = .F.
   LWAVE = .F.

 POTCAR:    PAW_PBE Au 04Oct2007                  
 POTCAR:    PAW_PBE Mn 06Sep2000                  
 POTCAR:    PAW_PBE C 08Apr2002                   
 POTCAR:    PAW_PBE O 08Apr2002                   
 POTCAR:    PAW_PBE H 15Jun2001                   
 -----------------------------------------------------------------------------
|                                                                             |
|           W    W    AA    RRRRR   N    N  II  N    N   GGGG   !!!           |
|           W    W   A  A   R    R  NN   N  II  NN   N  G    G  !!!           |
|           W    W  A    A  R    R  N N  N  II  N N  N  G       !!!           |
|           W WW W  AAAAAA  RRRRR   N  N N  II  N  N N  G  GGG   !            |
|           WW  WW  A    A  R   R   N   NN  II  N   NN  G    G                |
|           W    W  A    A  R    R  N    N  II  N    N   GGGG   !!!           |
|                                                                             |
|     For optimal performance we recommend to set                             |
|       NCORE = 2 up to number-of-cores-per-socket                            |
|     NCORE specifies how many cores store one orbital (NPAR=cpu/NCORE).      |
|     This setting can greatly improve the performance of VASP for DFT.       |
|     The default, NCORE=1 might be grossly inefficient on modern             |
|     multi-core architectures or massively parallel machines. Do your        |
|     own testing! More info at https://www.vasp.at/wiki/index.php/NCORE      |
|     Unfortunately you need to use the default for GW and RPA                |
|     calculations (for HF NCORE is supported but not extensively tested      |
|     yet).                                                                   |
|                                                                             |
 -----------------------------------------------------------------------------

 POTCAR:    PAW_PBE Au 04Oct2007                  
   VRHFIN =Au: s1d10                                                                                
   LEXCH  = PE                                                                                      
   EATOM  =   926.0867 eV,   68.0654 Ry                                                             
                                                                                                    
   TITEL  = PAW_PBE Au 04Oct2007                                                                    
   LULTRA =        F    use ultrasoft PP ?                                                          
   IUNSCR =        1    unscreen: 0-lin 1-nonlin 2-no                                               
   RPACOR =    2.330    partial core radius                                                         
   POMASS =  196.966; ZVAL   =   11.000    mass and valenz                                          
   RCORE  =    2.500    outmost cutoff radius                                                       
   RWIGS  =    2.840; RWIGS  =    1.503    wigner-seitz radius (au A)                               
   ENMAX  =  229.943; ENMIN  =  172.457 eV                                                          
   ICORE  =        3    local potential                                                             
   LCOR   =        T    correct aug charges                                                         
   LPAW   =        T    paw PP                                                                      
   EAUG   =  356.670                                                                                
   DEXC   =    0.000                                                                                
   RMAX   =    2.562    core radius for proj-oper                                                   
   RAUG   =    1.300    factor for augmentation sphere                                              
   RDEP   =    2.598    radius for radial grids                                                     
   RDEPT  =    2.193    core radius for aug-charge                                                  
                                                                                                    
   Atomic configuration                                                                             
   16 entries                                                                                       
     n  l   j            E        occ.                                                              
     1  0  0.50    -80748.5001   2.0000                                                             
     2  0  0.50    -14244.7466   2.0000                                                             
     2  1  1.50    -12310.9591   6.0000                                                             
     3  0  0.50     -3362.1768   2.0000                                                             
     3  1  1.50     -2801.5463   6.0000                                                             
     3  2  2.50     -2203.8206  10.0000                                                             
     4  0  0.50      -729.8168   2.0000                                                             
     4  1  1.50      -546.0527   6.0000                                                             
     4  2  2.50      -325.7302  10.0000                                                             
     4  3  3.50       -81.1472  14.0000                                                             
     5  0  0.50      -108.3201   2.0000                                                             
     5  1  1.50       -59.7479   6.0000                                                             
     5  2  2.50        -6.8783  10.0000                                                             
     6  0  0.50        -5.7602   1.0000                                                             
     6  1  1.50        -6.8029   0.0000                                                             
     5  3  2.50        -1.3606   0.0000                                                             
   Description                                                                                      
     l       E           TYP  RCUT    TYP  RCUT                                                     
     2     -6.8782861     23  2.500                                                                 
     2     -8.2388687     23  2.500                                                                 
     0     -5.7601759     23  2.500                                                                 
     0     -0.8493231     23  2.500                                                                 
     1     -2.7211652     23  2.500                                                                 
     1     27.2116520     23  2.500                                                                 
     3     -1.3605826     23  2.500                                                                 
  local pseudopotential read in
  partial core-charges read in
  partial kinetic energy density read in
  atomic valenz-charges read in
  non local Contribution for L=           2  read in
    real space projection operators read in
  non local Contribution for L=           2  read in
    real space projection operators read in
  non local Contribution for L=           0  read in
    real space projection operators read in
  non local Contribution for L=           0  read in
    real space projection operators read in
  non local Contribution for L=           1  read in
    real space projection operators read in
  non local Contribution for L=           1  read in
    real space projection operators read in
    PAW grid and wavefunctions read in
 
   number of l-projection  operators is LMAX  =           6
   number of lm-projection operators is LMMAX =          18
 
 POTCAR:    PAW_PBE Mn 06Sep2000                  
   VRHFIN =Mn: d6 s1                                                                                
   LEXCH  = PE                                                                                      
   EATOM  =   416.7541 eV,   30.6306 Ry                                                             
                                                                                                    
   TITEL  = PAW_PBE Mn 06Sep2000                                                                    
   LULTRA =        F    use ultrasoft PP ?                                                          
   IUNSCR =        1    unscreen: 0-lin 1-nonlin 2-no                                               
   RPACOR =    2.000    partial core radius                                                         
   POMASS =   54.938; ZVAL   =    7.000    mass and valenz                                          
   RCORE  =    2.300    outmost cutoff radius                                                       
   RWIGS  =    2.500; RWIGS  =    1.323    wigner-seitz radius (au A)                               
   ENMAX  =  269.864; ENMIN  =  202.398 eV                                                          
   RCLOC  =    1.725    cutoff for local pot                                                        
   LCOR   =        T    correct aug charges                                                         
   LPAW   =        T    paw PP                                                                      
   EAUG   =  500.711                                                                                
   DEXC   =    0.000                                                                                
   RMAX   =    2.343    core radius for proj-oper                                                   
   RAUG   =    1.300    factor for augmentation sphere                                              
   RDEP   =    2.338    radius for radial grids                                                     
   RDEPT  =    1.911    core radius for aug-charge                                                  
                                                                                                    
   Atomic configuration                                                                             
    9 entries                                                                                       
     n  l   j            E        occ.                                                              
     1  0  0.50     -6424.8288   2.0000                                                             
     2  0  0.50      -739.1154   2.0000                                                             
     2  1  1.50      -625.3949   6.0000                                                             
     3  0  0.50       -81.6100   2.0000                                                             
     3  1  1.50       -50.4667   6.0000                                                             
     3  2  2.50        -3.3745   6.0000                                                             
     4  0  0.50        -4.1331   1.0000                                                             
     4  1  0.50        -4.0817   0.0000                                                             
     4  3  2.50        -1.3606   0.0000                                                             
   Description                                                                                      
     l       E           TYP  RCUT    TYP  RCUT                                                     
     2     -3.3744664     23  2.300                                                                 
     2     -4.7350490     23  2.300                                                                 
     0     -4.1331408     23  2.300                                                                 
     0      7.6656614     23  2.300                                                                 
     1     -2.7211652     23  2.300                                                                 
     1     20.4087390     23  2.300                                                                 
  local pseudopotential read in
  partial core-charges read in
  partial kinetic energy density read in
  atomic valenz-charges read in
  non local Contribution for L=           2  read in
    real space projection operators read in
  non local Contribution for L=           2  read in
    real space projection operators read in
  non local Contribution for L=           0  read in
    real space projection operators read in
  non local Contribution for L=           0  read in
    real space projection operators read in
  non local Contribution for L=           1  read in
    real space projection operators read in
  non local Contribution for L=           1  read in
    real space projection operators read in
    PAW grid and wavefunctions read in
 
   number of l-projection  operators is LMAX  =           6
   number of lm-projection operators is LMMAX =          18
 
 POTCAR:    PAW_PBE C 08Apr2002                   
   VRHFIN =C: s2p2                                                                                  
   LEXCH  = PE                                                                                      
   EATOM  =   147.1560 eV,   10.8157 Ry                                                             
                                                                                                    
   TITEL  = PAW_PBE C 08Apr2002                                                                     
   LULTRA =        F    use ultrasoft PP ?                                                          
   IUNSCR =        1    unscreen: 0-lin 1-nonlin 2-no                                               
   RPACOR =    1.200    partial core radius                                                         
   POMASS =   12.011; ZVAL   =    4.000    mass and valenz                                          
   RCORE  =    1.500    outmost cutoff radius                                                       
   RWIGS  =    1.630; RWIGS  =    0.863    wigner-seitz radius (au A)                               
   ENMAX  =  400.000; ENMIN  =  300.000 eV                                                          
   ICORE  =        2    local potential                                                             
   LCOR   =        T    correct aug charges                                                         
   LPAW   =        T    paw PP                                                                      
   EAUG   =  644.873                                                                                
   DEXC   =    0.000                                                                                
   RMAX   =    1.529    core radius for proj-oper                                                   
   RAUG   =    1.300    factor for augmentation sphere                                              
   RDEP   =    1.501    radius for radial grids                                                     
   RDEPT  =    1.300    core radius for aug-charge                                                  
                                                                                                    
   Atomic configuration                                                                             
    4 entries                                                                                       
     n  l   j            E        occ.                                                              
     1  0  0.50      -273.3789   2.0000                                                             
     2  0  0.50       -13.7508   2.0000                                                             
     2  1  0.50        -5.2854   2.0000                                                             
     3  2  1.50        -5.4423   0.0000                                                             
   Description                                                                                      
     l       E           TYP  RCUT    TYP  RCUT                                                     
     0    -13.7508458     23  1.200                                                                 
     0     -8.2022199     23  1.200                                                                 
     1     -5.2854383     23  1.500                                                                 
     1     34.0145650     23  1.500                                                                 
     2     -5.4423304      7  1.500                                                                 
  local pseudopotential read in
  partial core-charges read in
  partial kinetic energy density read in
  atomic valenz-charges read in
  non local Contribution for L=           0  read in
    real space projection operators read in
  non local Contribution for L=           0  read in
    real space projection operators read in
  non local Contribution for L=           1  read in
    real space projection operators read in
  non local Contribution for L=           1  read in
    real space projection operators read in
    PAW grid and wavefunctions read in
 
   number of l-projection  operators is LMAX  =           4
   number of lm-projection operators is LMMAX =           8
 
 POTCAR:    PAW_PBE O 08Apr2002                   
   VRHFIN =O: s2p4                                                                                  
   LEXCH  = PE                                                                                      
   EATOM  =   432.3788 eV,   31.7789 Ry                                                             
                                                                                                    
   TITEL  = PAW_PBE O 08Apr2002                                                                     
   LULTRA =        F    use ultrasoft PP ?                                                          
   IUNSCR =        1    unscreen: 0-lin 1-nonlin 2-no                                               
   RPACOR =    1.200    partial core radius                                                         
   POMASS =   16.000; ZVAL   =    6.000    mass and valenz                                          
   RCORE  =    1.520    outmost cutoff radius                                                       
   RWIGS  =    1.550; RWIGS  =    0.820    wigner-seitz radius (au A)                               
   ENMAX  =  400.000; ENMIN  =  300.000 eV                                                          
   ICORE  =        2    local potential                                                             
   LCOR   =        T    correct aug charges                                                         
   LPAW   =        T    paw PP                                                                      
   EAUG   =  605.392                                                                                
   DEXC   =    0.000                                                                                
   RMAX   =    1.553    core radius for proj-oper                                                   
   RAUG   =    1.300    factor for augmentation sphere                                              
   RDEP   =    1.550    radius for radial grids                                                     
   RDEPT  =    1.329    core radius for aug-charge                                                  
                                                                                                    
   Atomic configuration                                                                             
    4 entries                                                                                       
     n  l   j            E        occ.                                                              
     1  0  0.50      -514.6923   2.0000                                                             
     2  0  0.50       -23.9615   2.0000                                                             
     2  1  0.50        -9.0305   4.0000                                                             
     3  2  1.50        -9.5241   0.0000                                                             
   Description                                                                                      
     l       E           TYP  RCUT    TYP  RCUT                                                     
     0    -23.9615318     23  1.200                                                                 
     0     -9.5240782     23  1.200                                                                 
     1     -9.0304911     23  1.520                                                                 
     1      8.1634956     23  1.520                                                                 
     2     -9.5240782      7  1.500                                                                 
  local pseudopotential read in
  partial core-charges read in
  partial kinetic energy density read in
  kinetic energy density of atom read in
  atomic valenz-charges read in
  non local Contribution for L=           0  read in
    real space projection operators read in
  non local Contribution for L=           0  read in
    real space projection operators read in
  non local Contribution for L=           1  read in
    real space projection operators read in
  non local Contribution for L=           1  read in
    real space projection operators read in
    PAW grid and wavefunctions read in
 
   number of l-projection  operators is LMAX  =           4
   number of lm-projection operators is LMMAX =           8
 
 POTCAR:    PAW_PBE H 15Jun2001                   
   VRHFIN =H: ultrasoft test                                                                        
   LEXCH  = PE                                                                                      
   EATOM  =    12.4884 eV,    0.9179 Ry                                                             
                                                                                                    
   TITEL  = PAW_PBE H 15Jun2001                                                                     
   LULTRA =        F    use ultrasoft PP ?                                                          
   IUNSCR =        0    unscreen: 0-lin 1-nonlin 2-no                                               
   RPACOR =    0.000    partial core radius                                                         
   POMASS =    1.000; ZVAL   =    1.000    mass and valenz                                          
   RCORE  =    1.100    outmost cutoff radius                                                       
   RWIGS  =    0.700; RWIGS  =    0.370    wigner-seitz radius (au A)                               
   ENMAX  =  250.000; ENMIN  =  200.000 eV                                                          
   RCLOC  =    0.701    cutoff for local pot                                                        
   LCOR   =        T    correct aug charges                                                         
   LPAW   =        T    paw PP                                                                      
   EAUG   =  400.000                                                                                
   RMAX   =    1.123    core radius for proj-oper                                                   
   RAUG   =    1.200    factor for augmentation sphere                                              
   RDEP   =    1.112    radius for radial grids                                                     
   RDEPT  =    0.926    core radius for aug-charge                                                  
                                                                                                    
   Atomic configuration                                                                             
    2 entries                                                                                       
     n  l   j            E        occ.                                                              
     1  0  0.50        -6.4927   1.0000                                                             
     2  1  0.50        -3.4015   0.0000                                                             
   Description                                                                                      
     l       E           TYP  RCUT    TYP  RCUT                                                     
     0     -6.4927494     23  1.100                                                                 
     0      6.8029130     23  1.100                                                                 
     1     -4.0817478     23  1.100                                                                 
  local pseudopotential read in
  atomic valenz-charges read in
  non local Contribution for L=           0  read in
    real space projection operators read in
  non local Contribution for L=           0  read in
    real space projection operators read in
  non local Contribution for L=           1  read in
    real space projection operators read in
    PAW grid and wavefunctions read in
 
   number of l-projection  operators is LMAX  =           3
   number of lm-projection operators is LMMAX =           5
 
 Optimization of the real space projectors (new method)

 maximal supplied QI-value         = 15.12
 optimisation between [QCUT,QGAM] = [ 11.34, 22.83] = [ 36.00,145.93] Ry 
 Optimized for a Real-space Cutoff    1.39 Angstroem

   l    n(q)    QCUT    max X(q) W(low)/X(q) W(high)/X(q)  e(spline) 
   2      9    11.338    60.898    0.39E-03    0.42E-03    0.21E-06
   2      9    11.338    58.894    0.40E-03    0.42E-03    0.22E-06
   0      9    11.338   109.617    0.13E-03    0.20E-04    0.13E-06
   0      9    11.338    75.026    0.13E-03    0.20E-04    0.13E-06
   1      9    11.338    16.344    0.33E-04    0.24E-03    0.18E-06
   1      9    11.338    10.160    0.26E-04    0.19E-03    0.15E-06
 Optimization of the real space projectors (new method)

 maximal supplied QI-value         = 16.25
 optimisation between [QCUT,QGAM] = [ 11.38, 22.75] = [ 36.24,144.96] Ry 
 Optimized for a Real-space Cutoff    1.39 Angstroem

   l    n(q)    QCUT    max X(q) W(low)/X(q) W(high)/X(q)  e(spline) 
   2      8    11.376   110.144    0.49E-03    0.27E-04    0.26E-06
   2      8    11.376   103.200    0.49E-03    0.28E-04    0.27E-06
   0      9    11.376    68.437    0.57E-04    0.92E-04    0.15E-06
   0      9    11.376    33.971    0.51E-04    0.83E-04    0.14E-06
   1      9    11.376    17.065    0.34E-03    0.68E-04    0.14E-06
   1      9    11.376    12.540    0.27E-03    0.59E-04    0.11E-06
 Optimization of the real space projectors (new method)

 maximal supplied QI-value         = 25.13
 optimisation between [QCUT,QGAM] = [ 11.31, 22.87] = [ 35.82,146.48] Ry 
 Optimized for a Real-space Cutoff    1.00 Angstroem

   l    n(q)    QCUT    max X(q) W(low)/X(q) W(high)/X(q)  e(spline) 
   0      7    11.310   115.676    0.43E-03    0.13E-02    0.19E-06
   0      7    11.310    87.132    0.43E-03    0.13E-02    0.18E-06
   1      6    11.310     4.429    0.42E-03    0.74E-03    0.11E-06
   1      6    11.310     2.733    0.34E-03    0.55E-03    0.92E-07
 Optimization of the real space projectors (new method)

 maximal supplied QI-value         = 24.76
 optimisation between [QCUT,QGAM] = [ 11.39, 22.77] = [ 36.31,145.25] Ry 
 Optimized for a Real-space Cutoff    1.00 Angstroem

   l    n(q)    QCUT    max X(q) W(low)/X(q) W(high)/X(q)  e(spline) 
   0      7    11.387    20.381    0.39E-03    0.13E-02    0.15E-06
   0      7    11.387    15.268    0.42E-03    0.14E-02    0.17E-06
   1      6    11.387     5.964    0.41E-03    0.11E-02    0.17E-06
   1      6    11.387     5.382    0.39E-03    0.87E-03    0.15E-06
 Optimization of the real space projectors (new method)

 maximal supplied QI-value         = 34.20
 optimisation between [QCUT,QGAM] = [ 11.29, 22.57] = [ 35.68,142.71] Ry 
 Optimized for a Real-space Cutoff    1.16 Angstroem

   l    n(q)    QCUT    max X(q) W(low)/X(q) W(high)/X(q)  e(spline) 
   0      8    11.287    19.460    0.40E-03    0.73E-03    0.16E-06
   0      8    11.287    12.209    0.38E-03    0.70E-03    0.15E-06
   1      7    11.287     4.655    0.22E-03    0.25E-04    0.22E-06
  PAW_PBE Au 04Oct2007                  :
 energy of atom  1       EATOM= -926.0867
 kinetic energy error for atom=    0.0042 (will be added to EATOM!!)
  PAW_PBE Mn 06Sep2000                  :
 energy of atom  2       EATOM= -416.7541
 kinetic energy error for atom=    0.0024 (will be added to EATOM!!)
  PAW_PBE C 08Apr2002                   :
 energy of atom  3       EATOM= -147.1560
 kinetic energy error for atom=    0.0076 (will be added to EATOM!!)
  PAW_PBE O 08Apr2002                   :
 energy of atom  4       EATOM= -432.3788
 kinetic energy error for atom=    0.0224 (will be added to EATOM!!)
  PAW_PBE H 15Jun2001                   :
 energy of atom  5       EATOM=  -12.4884
 kinetic energy error for atom=    0.0020 (will be added to EATOM!!)
 
 
 POSCAR: Au-Mn-COH
  positions in direct lattice
  velocities in cartesian coordinates
 exchange correlation table for  LEXCH =        8
   RHO(1)=    0.500       N(1)  =     2000
   RHO(2)=  100.500       N(2)  =     4000

 VTST: version 3.2, (02/03/18)

 CHAIN: initializing optimizer
 
 OPT: Using VASP Conjugate-Gradient optimizer
 CHAIN: Read ICHAIN            0
 
 POSCAR: Au-Mn-COH
  positions in direct lattice
  velocities in cartesian coordinates
 


--------------------------------------------------------------------------------------------------------


 ion  position               nearest neighbor table
   1  0.000  0.000  0.197-  16 2.94  12 2.94   6 2.94   8 2.94   7 2.94   3 2.94  10 2.94   4 2.94
                             2 2.94
   2  0.333  0.000  0.197-   9 2.94  11 2.94  17 2.94  10 2.94   8 2.94   4 2.94   5 2.94   1 2.94
                             3 2.94
   3  0.667  0.000  0.197-   7 2.94  18 2.94  12 2.94   1 2.94  11 2.94   5 2.94   6 2.94   9 2.94
                             2 2.94
   4  0.000  0.333  0.197-  10 2.94   6 2.94   5 2.94  13 2.94   2 2.94  15 2.94   9 2.94   1 2.94
                             7 2.94
   5  0.333  0.333  0.197-  13 2.94   7 2.94  11 2.94   4 2.94   2 2.94  14 2.94   3 2.94   8 2.94
                             6 2.94
   6  0.667  0.333  0.197-  15 2.94  14 2.94   1 2.94  12 2.94   4 2.94   9 2.94   8 2.94   3 2.94
                             5 2.94
   7  0.000  0.667  0.197-  18 2.94   3 2.94  16 2.94   5 2.94   1 2.94  13 2.94   8 2.94   4 2.94
                             9 2.94
   8  0.333  0.667  0.197-   9 2.94  17 2.94   1 2.94   2 2.94  14 2.94  16 2.94   6 2.94   7 2.94
                             5 2.94
   9  0.667  0.667  0.197-   2 2.94   8 2.94  17 2.94   6 2.94  15 2.94   4 2.94   3 2.94  18 2.94
                             7 2.94
  10  0.111  0.111  0.287-  20 2.93  26 2.94  19 2.94  11 2.94  17 2.94   2 2.94   4 2.94   1 2.94
                            12 2.94  16 2.94  13 2.94  15 2.94
  11  0.444  0.111  0.287-  20 2.91  21 2.91  27 2.93  13 2.94   2 2.94  10 2.94  17 2.94   5 2.94
                             3 2.94  18 2.94  14 2.94  12 2.94
  12  0.778  0.111  0.287-  21 2.93  25 2.94  19 2.94  16 2.94  18 2.94   1 2.94  14 2.94  15 2.94
                             3 2.94   6 2.94  10 2.94  11 2.94
  13  0.111  0.444  0.287-  23 2.91  20 2.91  22 2.93   5 2.94  18 2.94  11 2.94   7 2.94   4 2.94
                            16 2.94  10 2.94  14 2.94  15 2.94
  14  0.444  0.444  0.287-  21 2.91  23 2.91  24 2.93  15 2.94   6 2.94  12 2.94   8 2.94  17 2.94
                             5 2.94  16 2.94  13 2.94  11 2.94
  15  0.778  0.444  0.287-  24 2.92  22 2.92  19 2.94  14 2.94   6 2.94  17 2.94  12 2.94   9 2.94
                             4 2.94  10 2.94  13 2.94  18 2.94
  16  0.111  0.778  0.287-  23 2.93  25 2.94  26 2.94  18 2.94  12 2.94   7 2.94   1 2.94   8 2.94
                            13 2.94  10 2.94  14 2.94  17 2.94
  17  0.444  0.778  0.287-  27 2.92  24 2.92  26 2.94   9 2.94  15 2.94   2 2.94  10 2.94  11 2.94
                             8 2.94  14 2.94  16 2.94  18 2.94
  18  0.778  0.778  0.287-  22 2.92  27 2.92  25 2.94  16 2.94   7 2.94  13 2.94  12 2.94   3 2.94
                            11 2.94   9 2.94  15 2.94  17 2.94
  19  0.889  0.222  0.377-  10 2.94  12 2.94  15 2.94  26 2.94  25 2.94  24 2.94  22 2.94  28 2.95
                            21 2.95  20 2.95  32 2.99  31 2.99
  20  0.223  0.223  0.376-  36 2.70  23 2.91  21 2.91  11 2.91  13 2.91  29 2.92  31 2.92  10 2.93
                            26 2.95  19 2.95  27 2.95  22 2.95
  21  0.553  0.223  0.376-  36 2.70  20 2.91  23 2.91  14 2.91  11 2.91  30 2.92  32 2.92  12 2.93
                            25 2.95  19 2.95  27 2.95  24 2.95
  22  0.886  0.557  0.376-  24 2.91  27 2.91  18 2.92  15 2.92  13 2.93  25 2.94  19 2.94  23 2.95
                            20 2.95  33 2.96  31 2.96  35 2.96
  23  0.223  0.553  0.376-  36 2.70  20 2.91  21 2.91  13 2.91  14 2.91  33 2.92  34 2.92  16 2.93
                            25 2.95  26 2.95  22 2.95  24 2.95
  24  0.557  0.557  0.376-  27 2.91  22 2.91  15 2.92  17 2.92  14 2.93  26 2.94  19 2.94  21 2.95
                            23 2.95  32 2.96  34 2.96  35 2.96
  25  0.889  0.889  0.377-  16 2.94  12 2.94  18 2.94  19 2.94  26 2.94  22 2.94  27 2.94  28 2.95
                            23 2.95  21 2.95  33 2.99  30 2.99
  26  0.222  0.889  0.377-  10 2.94  16 2.94  17 2.94  19 2.94  25 2.94  27 2.94  24 2.94  28 2.95
                            20 2.95  23 2.95  29 2.99  34 2.99
  27  0.557  0.886  0.376-  24 2.91  22 2.91  17 2.92  18 2.92  11 2.93  26 2.94  25 2.94  20 2.95
                            21 2.95  29 2.96  30 2.96  35 2.96
  28  0.000  0.000  0.467-  25 2.95  19 2.95  26 2.95  34 2.99  32 2.99  33 2.99  30 2.99  31 2.99
                            29 2.99
  29  0.334  0.010  0.466-  30 2.84  31 2.85  36 2.86  20 2.92  27 2.96  35 2.98  26 2.99  28 2.99
                            34 3.12
  30  0.656  0.010  0.466-  29 2.84  32 2.85  36 2.86  21 2.92  27 2.96  35 2.98  25 2.99  28 2.99
                            33 3.12
  31  0.010  0.334  0.466-  33 2.84  29 2.85  36 2.86  20 2.92  22 2.96  35 2.98  19 2.99  28 2.99
                            32 3.12
  32  0.656  0.334  0.466-  34 2.84  30 2.85  36 2.86  21 2.92  24 2.96  35 2.98  19 2.99  28 2.99
                            31 3.12
  33  0.010  0.656  0.466-  31 2.84  34 2.85  36 2.86  23 2.92  22 2.96  35 2.98  25 2.99  28 2.99
                            30 3.12
  34  0.334  0.656  0.466-  32 2.84  33 2.85  36 2.86  23 2.92  24 2.96  35 2.98  26 2.99  28 2.99
                            29 3.12
  35  0.667  0.667  0.467-  24 2.96  27 2.96  22 2.96  29 2.98  34 2.98  32 2.98  31 2.98  30 2.98
                            33 2.98
  36  0.333  0.333  0.455-  37 1.68  20 2.70  23 2.70  21 2.70  33 2.86  31 2.86  29 2.86  30 2.86
                            34 2.86  32 2.86
  37  0.333  0.333  0.518-  38 1.25  36 1.68
  38  0.333  0.333  0.564-  39 0.96  37 1.25
  39  0.333  0.333  0.600-  38 0.96
 
  LATTYP: Found a hexagonal cell.
 ALAT       =     8.8135128021
 C/A-ratio  =     3.0356784858
  
  Lattice vectors:
  
 A1 = (  -4.4067569092,  -7.6327256898,   0.0000000000)
 A2 = (   8.8135128021,   0.0000000000,   0.0000000000)
 A3 = (   0.0000000000,   0.0000000000,  26.7549911976)


Analysis of symmetry for initial positions (statically):
=====================================================================
 Subroutine PRICEL returns:
 Original cell was already a primitive cell.
 

 Routine SETGRP: Setting up the symmetry group for a 
 hexagonal supercell.


 Subroutine GETGRP returns: Found  6 space group operations
 (whereof  6 operations were pure point group operations)
 out of a pool of 24 trial point group operations.


The static configuration has the point symmetry C_3v.


Analysis of symmetry for dynamics (positions and initial velocities):
=====================================================================
 Subroutine PRICEL returns:
 Original cell was already a primitive cell.
 

 Routine SETGRP: Setting up the symmetry group for a 
 hexagonal supercell.


 Subroutine GETGRP returns: Found  6 space group operations
 (whereof  6 operations were pure point group operations)
 out of a pool of 24 trial point group operations.


The dynamic configuration has the point symmetry C_3v.


Analysis of constrained symmetry for selective dynamics:
=====================================================================
 Subroutine PRICEL returns:
 Original cell was already a primitive cell.
 

 Routine SETGRP: Setting up the symmetry group for a 
 hexagonal supercell.


 Subroutine GETGRP returns: Found  6 space group operations
 (whereof  6 operations were pure point group operations)
 out of a pool of 24 trial point group operations.


The constrained configuration has the point symmetry C_3v.


 Subroutine INISYM returns: Found  6 space group operations
 (whereof  6 operations are pure point group operations),
 and found     1 'primitive' translations


----------------------------------------------------------------------------------------

                                     Primitive cell                                     

  volume of cell :    1799.8384

  direct lattice vectors                    reciprocal lattice vectors
     8.813512802  0.000000000  0.000000000     0.113462137 -0.065507406  0.000000000
     4.406756909  7.632725690  0.000000000     0.000000000  0.131014796  0.000000000
     0.000000000  0.000000000 26.754991198     0.000000000  0.000000000  0.037376204

  length of vectors
     8.813512802  8.813512802 26.754991198     0.131014796  0.131014796  0.037376204

  position of ions in fractional coordinates (direct lattice)
     0.000000000  0.000000000  0.197360556
     0.333333343  0.000000000  0.197360556
     0.666666687  0.000000000  0.197360556
     0.000000000  0.333333343  0.197360556
     0.333333313  0.333333343  0.197360556
     0.666666687  0.333333343  0.197360556
     0.000000000  0.666666687  0.197360556
     0.333333343  0.666666687  0.197360556
     0.666666627  0.666666687  0.197360556
     0.111111119  0.111111112  0.287016131
     0.444444418  0.111111112  0.287016131
     0.777777791  0.111111112  0.287016131
     0.111111127  0.444444448  0.287016131
     0.444444478  0.444444448  0.287016131
     0.777777731  0.444444448  0.287016131
     0.111111090  0.777777791  0.287016131
     0.444444448  0.777777791  0.287016131
     0.777777851  0.777777791  0.287016131
     0.888897538  0.222204939  0.376557341
     0.223374012  0.223373997  0.375627101
     0.553252035  0.223373997  0.375627101
     0.886463792  0.556768134  0.375934268
     0.223373967  0.553252035  0.375627101
     0.556768134  0.556768134  0.375934268
     0.888897538  0.888897538  0.376557341
     0.222204969  0.888897538  0.376557341
     0.556768074  0.886463792  0.375934268
     0.000000000  0.000000000  0.466744299
     0.333521667  0.010275925  0.466247468
     0.656202438  0.010275925  0.466247468
     0.010275925  0.333521667  0.466247468
     0.656202438  0.333521667  0.466247468
     0.010275925  0.656202438  0.466247468
     0.333521667  0.656202438  0.466247468
     0.666666627  0.666666687  0.467031041
     0.333333313  0.333333343  0.454806282
     0.333333313  0.333333343  0.517534080
     0.333333313  0.333333343  0.564428116
     0.333333313  0.333333343  0.600245515

  ion indices of the primitive-cell ions
   primitive index   ion index
                 1           1
                 2           2
                 3           3
                 4           4
                 5           5
                 6           6
                 7           7
                 8           8
                 9           9
                10          10
                11          11
                12          12
                13          13
                14          14
                15          15
                16          16
                17          17
                18          18
                19          19
                20          20
                21          21
                22          22
                23          23
                24          24
                25          25
                26          26
                27          27
                28          28
                29          29
                30          30
                31          31
                32          32
                33          33
                34          34
                35          35
                36          36
                37          37
                38          38
                39          39

----------------------------------------------------------------------------------------

 
 
 KPOINTS: Automatic mesh                          

Automatic generation of k-mesh.
 Grid dimensions read from file:
 generate k-points for:    8    8    1

 Generating k-lattice:

  Cartesian coordinates                     Fractional coordinates (reciprocal lattice)
     0.014182767 -0.008188426  0.000000000     0.125000000  0.000000000  0.000000000
     0.000000000  0.016376850  0.000000000     0.000000000  0.125000000  0.000000000
     0.000000000  0.000000000  0.037376204     0.000000000  0.000000000  1.000000000

  Length of vectors
     0.016376850  0.016376850  0.037376204

  Shift w.r.t. Gamma in fractional coordinates (k-lattice)
     0.000000000  0.000000000  0.000000000

 TETIRR: Found     36 inequivalent tetrahedra from      384
 
 Subroutine IBZKPT returns following result:
 ===========================================
 
 Found     10 irreducible k-points:
 
 Following reciprocal coordinates:
            Coordinates               Weight
  0.000000  0.000000  0.000000      1.000000
  0.125000  0.000000  0.000000      6.000000
  0.250000  0.000000  0.000000      6.000000
  0.375000  0.000000  0.000000      6.000000
  0.500000  0.000000  0.000000      3.000000
  0.250000  0.125000  0.000000      6.000000
  0.375000  0.125000  0.000000     12.000000
  0.500000  0.125000  0.000000     12.000000
  0.500000  0.250000  0.000000      6.000000
 -0.375000  0.250000  0.000000      6.000000
 
 Following cartesian coordinates:
            Coordinates               Weight
  0.000000  0.000000  0.000000      1.000000
  0.014183 -0.008188  0.000000      6.000000
  0.028366 -0.016377  0.000000      6.000000
  0.042548 -0.024565  0.000000      6.000000
  0.056731 -0.032754  0.000000      3.000000
  0.028366 -0.000000  0.000000      6.000000
  0.042548 -0.008188  0.000000     12.000000
  0.056731 -0.016377  0.000000     12.000000
  0.056731 -0.000000  0.000000      6.000000
 -0.042548  0.057319  0.000000      6.000000
 


--------------------------------------------------------------------------------------------------------




 Dimension of arrays:
   k-points           NKPTS =     10   k-points in BZ     NKDIM =     10   number of bands    NBANDS=    252
   number of dos      NEDOS =    301   number of ions     NIONS =     39
   non local maximal  LDIM  =      6   non local SUM 2l+1 LMDIM =     18
   total plane-waves  NPLWV = 345600
   max r-space proj   IRMAX =   2208   max aug-charges    IRDMAX=  11941
   dimension x,y,z NGX =    48 NGY =   48 NGZ =  150
   dimension x,y,z NGXF=    96 NGYF=   96 NGZF=  300
   support grid    NGXF=    96 NGYF=   96 NGZF=  300
   ions per type =              35   1   1   1   1
   NGX,Y,Z   is equivalent  to a cutoff of   9.05,  9.05,  9.32 a.u.
   NGXF,Y,Z  is equivalent  to a cutoff of  18.11, 18.11, 18.64 a.u.

 SYSTEM =  unknown system                          
 POSCAR =  Au-Mn-COH                               

 Startparameter for this run:
   NWRITE =      2    write-flag & timer
   PREC   = normal    normal or accurate (medium, high low for compatibility)
   ISTART =      0    job   : 0-new  1-cont  2-samecut
   ICHARG =     11    charge: 1-file 2-atom 10-const
   ISPIN  =      1    spin polarized calculation?
   LNONCOLLINEAR =      F non collinear calculations
   LSORBIT =      F    spin-orbit coupling
   INIWAV =      1    electr: 0-lowe 1-rand  2-diag
   LASPH  =      F    aspherical Exc in radial PAW
   METAGGA=      F    non-selfconsistent MetaGGA calc.

 Electronic Relaxation 1
   ENCUT  =  500.0 eV  36.75 Ry    6.06 a.u.  16.07 16.07 48.78*2*pi/ulx,y,z
   ENINI  =  500.0     initial cutoff
   ENAUG  =  644.9 eV  augmentation charge cutoff
   NELM   =    150;   NELMIN=  2; NELMDL= -5     # of ELM steps 
   EDIFF  = 0.1E-04   stopping-criterion for ELM
   LREAL  =      T    real-space projection
   NLSPLINE    = F    spline interpolate recip. space projectors
   LCOMPAT=      F    compatible to vasp.4.4
   GGA_COMPAT  = T    GGA compatible to vasp.4.4-vasp.4.6
   LMAXPAW     = -100 max onsite density
   LMAXMIX     =    2 max onsite mixed and CHGCAR
   VOSKOWN=      0    Vosko Wilk Nusair interpolation
   ROPT   =   -0.00050  -0.00050  -0.00050  -0.00050
   ROPT   =   -0.00050
 Ionic relaxation
   EDIFFG = -.1E-01   stopping-criterion for IOM
   NSW    =      0    number of steps for IOM
   NBLOCK =      1;   KBLOCK =      1    inner block; outer block 
   IBRION =     -1    ionic relax: 0-MD 1-quasi-New 2-CG
   NFREE  =      1    steps in history (QN), initial steepest desc. (CG)
   ISIF   =      2    stress and relaxation
   IWAVPR =     10    prediction:  0-non 1-charg 2-wave 3-comb
   ISYM   =      2    0-nonsym 1-usesym 2-fastsym
   LCORR  =      T    Harris-Foulkes like correction to forces

   POTIM  = 0.5000    time-step for ionic-motion
   TEIN   =    0.0    initial temperature
   TEBEG  =    0.0;   TEEND  =   0.0 temperature during run
   SMASS  =  -3.00    Nose mass-parameter (am)
   estimated Nose-frequenzy (Omega)   =  0.10E-29 period in steps = 0.13E+47 mass=  -0.178E-26a.u.
   SCALEE = 1.0000    scale energy and forces
   NPACO  =    256;   APACO  = 16.0  distance and # of slots for P.C.
   PSTRESS=    0.0 pullay stress

  Mass of Ions in am
   POMASS = 196.97 54.94 12.01 16.00  1.00
  Ionic Valenz
   ZVAL   =  11.00  7.00  4.00  6.00  1.00
  Atomic Wigner-Seitz radii
   RWIGS  =  -1.00 -1.00 -1.00 -1.00 -1.00
  virtual crystal weights 
   VCA    =   1.00  1.00  1.00  1.00  1.00
   NELECT =     403.0000    total number of electrons
   NUPDOWN=      -1.0000    fix difference up-down

 DOS related values:
   EMIN   =  10.00;   EMAX   =-10.00  energy-range for DOS
   EFERMI =   0.00
   ISMEAR =    -5;   SIGMA  =   0.10  broadening in eV -4-tet -1-fermi 0-gaus

 Electronic relaxation 2 (details)
   IALGO  =     68    algorithm
   LDIAG  =      T    sub-space diagonalisation (order eigenvalues)
   LSUBROT=      F    optimize rotation matrix (better conditioning)
   TURBO    =      0    0=normal 1=particle mesh
   IRESTART =      0    0=no restart 2=restart with 2 vectors
   NREBOOT  =      0    no. of reboots
   NMIN     =      0    reboot dimension
   EREF     =   0.00    reference energy to select bands
   IMIX   =      4    mixing-type and parameters
     AMIX     =   0.40;   BMIX     =  1.00
     AMIX_MAG =   1.60;   BMIX_MAG =  1.00
     AMIN     =   0.10
     WC   =   100.;   INIMIX=   1;  MIXPRE=   1;  MAXMIX= -45

 Intra band minimization:
   WEIMIN = 0.0000     energy-eigenvalue tresh-hold
   EBREAK =  0.99E-08  absolut break condition
   DEPER  =   0.30     relativ break condition  

   TIME   =   0.40     timestep for ELM

  volume/ion in A,a.u.               =      46.15       311.43
  Fermi-wavevector in a.u.,A,eV,Ry     =   0.994104  1.878585 13.445871  0.988244
  Thomas-Fermi vector in A             =   2.126033
 
 Write flags
   LWAVE        =      F    write WAVECAR
   LDOWNSAMPLE  =      F    k-point downsampling of WAVECAR
   LCHARG       =      F    write CHGCAR
   LVTOT        =      F    write LOCPOT, total local potential
   LVHAR        =      F    write LOCPOT, Hartree potential only
   LELF         =      F    write electronic localiz. function (ELF)
   LORBIT       =     10    0 simple, 1 ext, 2 COOP (PROOUT), +10 PAW based schemes


 Dipole corrections
   LMONO  =      F    monopole corrections only (constant potential shift)
   LDIPOL =      F    correct potential (dipole corrections)
   IDIPOL =      0    1-x, 2-y, 3-z, 4-all directions 
   EPSILON=  1.0000000 bulk dielectric constant

 Exchange correlation treatment:
   GGA     =    --    GGA type
   LEXCH   =     8    internal setting for exchange type
   VOSKOWN=      0    Vosko Wilk Nusair interpolation
   LHFCALC =     F    Hartree Fock is set to
   LHFONE  =     F    Hartree Fock one center treatment
   AEXX    =    0.0000 exact exchange contribution

 Linear response parameters
   LEPSILON=     F    determine dielectric tensor
   LRPA    =     F    only Hartree local field effects (RPA)
   LNABLA  =     F    use nabla operator in PAW spheres
   LVEL    =     F    velocity operator in full k-point grid
   LINTERFAST=   F  fast interpolation
   KINTER  =     0    interpolate to denser k-point grid
   CSHIFT  =0.1000    complex shift for real part using Kramers Kronig
   OMEGAMAX=  -1.0    maximum frequency
   DEG_THRESHOLD= 0.2000000E-02 threshold for treating states as degnerate
   RTIME   =   -0.100 relaxation time in fs
  (WPLASMAI=    0.000 imaginary part of plasma frequency in eV, 0.658/RTIME)
   DFIELD  = 0.0000000 0.0000000 0.0000000 field for delta impulse in time
 
 Orbital magnetization related:
   ORBITALMAG=     F  switch on orbital magnetization
   LCHIMAG   =     F  perturbation theory with respect to B field
   DQ        =  0.001000  dq finite difference perturbation B field
   LLRAUG    =     F  two centre corrections for induced B field



--------------------------------------------------------------------------------------------------------


 Static calculation
 charge density and potential remain constant during run
 non-spin polarized calculation
 RMM-DIIS sequential band-by-band and
  variant of blocked Davidson during initial phase
 perform sub-space diagonalisation
    before iterative eigenvector-optimisation
 no mixing
 using additional bands           50
 real space projection scheme for non local part
 use partial core corrections
 calculate Harris-corrections to forces 
   (improved forces if not selfconsistent)
 use gradient corrections 
 WARNING: stress and forces are not correct
  (second derivative of E(xc) not defined)
 use of overlap-Matrix (Vanderbilt PP)
 Fermi weights with tetrahedron method with Bloechl corrections


--------------------------------------------------------------------------------------------------------


  energy-cutoff  :      500.00
  volume of cell :     1799.84
      direct lattice vectors                 reciprocal lattice vectors
     8.813512802  0.000000000  0.000000000     0.113462137 -0.065507406  0.000000000
     4.406756909  7.632725690  0.000000000     0.000000000  0.131014796  0.000000000
     0.000000000  0.000000000 26.754991198     0.000000000  0.000000000  0.037376204

  length of vectors
     8.813512802  8.813512802 26.754991198     0.131014796  0.131014796  0.037376204


 
 k-points in units of 2pi/SCALE and weight: Automatic mesh                          
   0.00000000  0.00000000  0.00000000       0.016
   0.01418277 -0.00818843  0.00000000       0.094
   0.02836553 -0.01637685  0.00000000       0.094
   0.04254830 -0.02456528  0.00000000       0.094
   0.05673107 -0.03275370  0.00000000       0.047
   0.02836553 -0.00000000  0.00000000       0.094
   0.04254830 -0.00818843  0.00000000       0.188
   0.05673107 -0.01637685  0.00000000       0.188
   0.05673107 -0.00000000  0.00000000       0.094
  -0.04254830  0.05731898  0.00000000       0.094
 
 k-points in reciprocal lattice and weights: Automatic mesh                          
   0.00000000  0.00000000  0.00000000       0.016
   0.12500000  0.00000000  0.00000000       0.094
   0.25000000  0.00000000  0.00000000       0.094
   0.37500000  0.00000000  0.00000000       0.094
   0.50000000  0.00000000  0.00000000       0.047
   0.25000000  0.12500000  0.00000000       0.094
   0.37500000  0.12500000  0.00000000       0.188
   0.50000000  0.12500000  0.00000000       0.188
   0.50000000  0.25000000  0.00000000       0.094
  -0.37500000  0.25000000  0.00000000       0.094
 
 position of ions in fractional coordinates (direct lattice) 
   0.00000000  0.00000000  0.19736056
   0.33333334  0.00000000  0.19736056
   0.66666669  0.00000000  0.19736056
   0.00000000  0.33333334  0.19736056
   0.33333331  0.33333334  0.19736056
   0.66666669  0.33333334  0.19736056
   0.00000000  0.66666669  0.19736056
   0.33333334  0.66666669  0.19736056
   0.66666663  0.66666669  0.19736056
   0.11111112  0.11111111  0.28701613
   0.44444442  0.11111111  0.28701613
   0.77777779  0.11111111  0.28701613
   0.11111113  0.44444445  0.28701613
   0.44444448  0.44444445  0.28701613
   0.77777773  0.44444445  0.28701613
   0.11111109  0.77777779  0.28701613
   0.44444445  0.77777779  0.28701613
   0.77777785  0.77777779  0.28701613
   0.88889754  0.22220494  0.37655734
   0.22337401  0.22337400  0.37562710
   0.55325204  0.22337400  0.37562710
   0.88646379  0.55676813  0.37593427
   0.22337397  0.55325204  0.37562710
   0.55676813  0.55676813  0.37593427
   0.88889754  0.88889754  0.37655734
   0.22220497  0.88889754  0.37655734
   0.55676807  0.88646379  0.37593427
   0.00000000  0.00000000  0.46674430
   0.33352167  0.01027593  0.46624747
   0.65620244  0.01027593  0.46624747
   0.01027593  0.33352167  0.46624747
   0.65620244  0.33352167  0.46624747
   0.01027593  0.65620244  0.46624747
   0.33352167  0.65620244  0.46624747
   0.66666663  0.66666669  0.46703104
   0.33333331  0.33333334  0.45480628
   0.33333331  0.33333334  0.51753408
   0.33333331  0.33333334  0.56442812
   0.33333331  0.33333334  0.60024552
 
 position of ions in cartesian coordinates  (Angst):
   0.00000000  0.00000000  5.28037993
   2.93783769  0.00000000  5.28037993
   5.87567538  0.00000000  5.28037993
   1.46891901  2.54424197  5.28037993
   4.40675643  2.54424197  5.28037993
   7.34459439  2.54424197  5.28037993
   2.93783803  5.08848395  5.28037993
   5.87567571  5.08848395  5.28037993
   8.81351288  5.08848395  5.28037993
   1.46891893  0.84808064  7.67911405
   4.40675623  0.84808064  7.67911405
   7.34459418  0.84808064  7.67911405
   2.93783798  3.39232256  7.67911405
   5.87567574  3.39232256  7.67911405
   8.81351263  3.39232256  7.67911405
   4.40675667  5.93656453  7.67911405
   7.34459449  5.93656453  7.67911405
  10.28243270  5.93656453  7.67911405
   8.81351299  1.69602935 10.07478836
   2.95306462  1.70495245 10.04989979
   5.86044880  1.70495245 10.04989979
  10.26640180  4.24965844 10.05811804
   4.40675655  4.22282102 10.04989979
   7.36062490  4.24965844 10.05811804
  11.75146520  6.78471108 10.07478836
   5.87556171  6.78471108 10.07478836
   8.81351299  6.76613496 10.05811804
   0.00000000  0.00000000 12.48773962
   2.98478098  0.07843332 12.47444691
   5.82873209  0.07843332 12.47444691
   1.56031591  2.54567939 12.47444691
   7.25319750  2.54567939 12.47444691
   2.98229163  5.00861321 12.47444691
   5.83122211  5.00861321 12.47444691
   8.81351288  5.08848395 12.49541140
   4.40675643  2.54424197 12.16833808
   4.40675643  2.54424197 13.84661975
   4.40675643  2.54424197 15.10126928
   4.40675643  2.54424197 16.05956348
 


--------------------------------------------------------------------------------------------------------


 k-point   1 :   0.0000 0.0000 0.0000  plane waves:   45655
 k-point   2 :   0.1250 0.0000 0.0000  plane waves:   45660
 k-point   3 :   0.2500 0.0000 0.0000  plane waves:   45682
 k-point   4 :   0.3750 0.0000 0.0000  plane waves:   45716
 k-point   5 :   0.5000 0.0000 0.0000  plane waves:   45700
 k-point   6 :   0.2500 0.1250 0.0000  plane waves:   45658
 k-point   7 :   0.3750 0.1250 0.0000  plane waves:   45702
 k-point   8 :   0.5000 0.1250 0.0000  plane waves:   45722
 k-point   9 :   0.5000 0.2500 0.0000  plane waves:   45712
 k-point  10 :  -0.3750 0.2500 0.0000  plane waves:   45690

 maximum and minimum number of plane-waves per node :     45722    45655

 maximum number of plane-waves:     45722
 maximum index in each direction: 
   IXMAX=   16   IYMAX=   16   IZMAX=   48
   IXMIN=  -16   IYMIN=  -16   IZMIN=  -48


 serial   3D FFT for wavefunctions
 parallel 3D FFT for charge:
    minimum data exchange during FFTs selected (reduces bandwidth)


 total amount of memory used by VASP MPI-rank0   139230. kBytes
=======================================================================

   base      :      30000. kBytes
   nonlr-proj:      13538. kBytes
   fftplans  :       5150. kBytes
   grid      :      23126. kBytes
   one-center:        606. kBytes
   wavefun   :      66810. kBytes
 
     INWAV:  cpu time    0.0000: real time    0.0000
 initial charge density was supplied:
 number of electron     403.0000052 magnetization 
 keeping initial charge density in first step


--------------------------------------------------------------------------------------------------------


 Maximum index for non-local projection operator         2109
 Maximum index for augmentation-charges          844 (set IRDMAX)


--------------------------------------------------------------------------------------------------------


 First call to EWALD:  gamma=   0.146
 Maximum number of real-space cells 4x 4x 2
 Maximum number of reciprocal cells 2x 2x 5

    FEWALD:  cpu time    0.0014: real time    0.0014


--------------------------------------- Iteration      1(   1)  ---------------------------------------


    POTLOK:  cpu time    0.0620: real time    0.0623
    SETDIJ:  cpu time    0.0051: real time    0.0052
     EDDAV:  cpu time    8.2881: real time    8.2902
 BZINTS: Fermi energy:   10.848171;  403.000000 electrons
         Band energy: 0.138670E+04;  BLOECHL correction:   -0.006428
       DOS:  cpu time    0.0108: real time    0.0109
    --------------------------------------------
      LOOP:  cpu time    8.3660: real time    8.3686

 eigenvalue-minimisations  :  5040
 total energy-change (2. order) : 0.2723767E+04  (-0.1742696E+05)
 number of electron     403.0000052 magnetization 
 augmentation part      403.0000052 magnetization 

 Free energy of the ion-electron system (eV)
  ---------------------------------------------------
  alpha Z        PSCENC =       857.83316172
  Ewald energy   TEWEN  =    164806.28051511
  -Hartree energ DENC   =   -199038.59583417
  -exchange      EXHF   =         0.00000000
  -V(xc)+E(xc)   XCENC  =       549.46508841
  PAW double counting   =     36570.43382938   -35829.97828422
  entropy T*S    EENTRO =         0.00000000
  eigenvalues    EBANDS =      1386.69959316
  atomic energy  EATOM  =     33421.62919975
  Solvation  Ediel_sol  =         0.00000000
  ---------------------------------------------------
  free energy    TOTEN  =      2723.76726915 eV

  energy without entropy =     2723.76726915  energy(sigma->0) =     2723.76726915


--------------------------------------------------------------------------------------------------------




--------------------------------------- Iteration      1(   2)  ---------------------------------------


     EDDAV:  cpu time    8.9776: real time    8.9783
 BZINTS: Fermi energy:    1.284237;  403.000000 electrons
         Band energy:-0.127836E+04;  BLOECHL correction:   -0.190624
       DOS:  cpu time    0.0090: real time    0.0090
    --------------------------------------------
      LOOP:  cpu time    8.9866: real time    8.9873

 eigenvalue-minimisations  :  5572
 total energy-change (2. order) :-0.2665055E+04  (-0.2439395E+04)
 number of electron     403.0000052 magnetization 
 augmentation part      403.0000052 magnetization 

 Free energy of the ion-electron system (eV)
  ---------------------------------------------------
  alpha Z        PSCENC =       857.83316172
  Ewald energy   TEWEN  =    164806.28051511
  -Hartree energ DENC   =   -199038.59583417
  -exchange      EXHF   =         0.00000000
  -V(xc)+E(xc)   XCENC  =       549.46508841
  PAW double counting   =     36570.43382938   -35829.97828422
  entropy T*S    EENTRO =         0.00000000
  eigenvalues    EBANDS =     -1278.35542671
  atomic energy  EATOM  =     33421.62919975
  Solvation  Ediel_sol  =         0.00000000
  ---------------------------------------------------
  free energy    TOTEN  =        58.71224928 eV

  energy without entropy =       58.71224928  energy(sigma->0) =       58.71224928


--------------------------------------------------------------------------------------------------------




--------------------------------------- Iteration      1(   3)  ---------------------------------------


     EDDAV:  cpu time    9.4809: real time    9.4816
 BZINTS: Fermi energy:    0.289707;  403.000000 electrons
         Band energy:-0.146338E+04;  BLOECHL correction:   -0.039844
       DOS:  cpu time    0.0101: real time    0.0101
    --------------------------------------------
      LOOP:  cpu time    9.4910: real time    9.4917

 eigenvalue-minimisations  :  5936
 total energy-change (2. order) :-0.1850268E+03  (-0.1773516E+03)
 number of electron     403.0000052 magnetization 
 augmentation part      403.0000052 magnetization 

 Free energy of the ion-electron system (eV)
  ---------------------------------------------------
  alpha Z        PSCENC =       857.83316172
  Ewald energy   TEWEN  =    164806.28051511
  -Hartree energ DENC   =   -199038.59583417
  -exchange      EXHF   =         0.00000000
  -V(xc)+E(xc)   XCENC  =       549.46508841
  PAW double counting   =     36570.43382938   -35829.97828422
  entropy T*S    EENTRO =         0.00000000
  eigenvalues    EBANDS =     -1463.38218087
  atomic energy  EATOM  =     33421.62919975
  Solvation  Ediel_sol  =         0.00000000
  ---------------------------------------------------
  free energy    TOTEN  =      -126.31450488 eV

  energy without entropy =     -126.31450488  energy(sigma->0) =     -126.31450488


--------------------------------------------------------------------------------------------------------




--------------------------------------- Iteration      1(   4)  ---------------------------------------


     EDDAV:  cpu time    9.3513: real time    9.3518
 BZINTS: Fermi energy:    0.262250;  403.000000 electrons
         Band energy:-0.146883E+04;  BLOECHL correction:   -0.037952
       DOS:  cpu time    0.0098: real time    0.0098
    --------------------------------------------
      LOOP:  cpu time    9.3610: real time    9.3615

 eigenvalue-minimisations  :  5852
 total energy-change (2. order) :-0.5451423E+01  (-0.5412401E+01)
 number of electron     403.0000052 magnetization 
 augmentation part      403.0000052 magnetization 

 Free energy of the ion-electron system (eV)
  ---------------------------------------------------
  alpha Z        PSCENC =       857.83316172
  Ewald energy   TEWEN  =    164806.28051511
  -Hartree energ DENC   =   -199038.59583417
  -exchange      EXHF   =         0.00000000
  -V(xc)+E(xc)   XCENC  =       549.46508841
  PAW double counting   =     36570.43382938   -35829.97828422
  entropy T*S    EENTRO =         0.00000000
  eigenvalues    EBANDS =     -1468.83360371
  atomic energy  EATOM  =     33421.62919975
  Solvation  Ediel_sol  =         0.00000000
  ---------------------------------------------------
  free energy    TOTEN  =      -131.76592772 eV

  energy without entropy =     -131.76592772  energy(sigma->0) =     -131.76592772


--------------------------------------------------------------------------------------------------------




--------------------------------------- Iteration      1(   5)  ---------------------------------------


     EDDAV:  cpu time   10.0319: real time   10.0326
 BZINTS: Fermi energy:    0.261650;  403.000000 electrons
         Band energy:-0.146902E+04;  BLOECHL correction:   -0.037804
       DOS:  cpu time    0.0104: real time    0.0104
    --------------------------------------------
      LOOP:  cpu time   10.0423: real time   10.0429

 eigenvalue-minimisations  :  6356
 total energy-change (2. order) :-0.1824884E+00  (-0.1824808E+00)
 number of electron     403.0000052 magnetization 
 augmentation part      403.0000052 magnetization 

 Free energy of the ion-electron system (eV)
  ---------------------------------------------------
  alpha Z        PSCENC =       857.83316172
  Ewald energy   TEWEN  =    164806.28051511
  -Hartree energ DENC   =   -199038.59583417
  -exchange      EXHF   =         0.00000000
  -V(xc)+E(xc)   XCENC  =       549.46508841
  PAW double counting   =     36570.43382938   -35829.97828422
  entropy T*S    EENTRO =         0.00000000
  eigenvalues    EBANDS =     -1469.01609211
  atomic energy  EATOM  =     33421.62919975
  Solvation  Ediel_sol  =         0.00000000
  ---------------------------------------------------
  free energy    TOTEN  =      -131.94841613 eV

  energy without entropy =     -131.94841613  energy(sigma->0) =     -131.94841613


--------------------------------------------------------------------------------------------------------




--------------------------------------- Iteration      1(   6)  ---------------------------------------


    EDDIAG:  cpu time    1.6656: real time    1.6687
  RMM-DIIS:  cpu time    4.9053: real time    4.9055
    ORTHCH:  cpu time    0.3038: real time    0.3038
 BZINTS: Fermi energy:    0.261646;  403.000000 electrons
         Band energy:-0.146902E+04;  BLOECHL correction:   -0.037804
       DOS:  cpu time    0.0103: real time    0.0103
    --------------------------------------------
      LOOP:  cpu time    6.8850: real time    6.8883

 eigenvalue-minimisations  :  5220
 total energy-change (2. order) :-0.6274520E-02  (-0.6274937E-02)
 number of electron     403.0000052 magnetization 
 augmentation part      403.0000052 magnetization 

 Free energy of the ion-electron system (eV)
  ---------------------------------------------------
  alpha Z        PSCENC =       857.83316172
  Ewald energy   TEWEN  =    164806.28051511
  -Hartree energ DENC   =   -199038.59583417
  -exchange      EXHF   =         0.00000000
  -V(xc)+E(xc)   XCENC  =       549.46508841
  PAW double counting   =     36570.43382938   -35829.97828422
  entropy T*S    EENTRO =         0.00000000
  eigenvalues    EBANDS =     -1469.02236663
  atomic energy  EATOM  =     33421.62919975
  Solvation  Ediel_sol  =         0.00000000
  ---------------------------------------------------
  free energy    TOTEN  =      -131.95469065 eV

  energy without entropy =     -131.95469065  energy(sigma->0) =     -131.95469065


--------------------------------------------------------------------------------------------------------




--------------------------------------- Iteration      1(   7)  ---------------------------------------


    EDDIAG:  cpu time    1.6655: real time    1.6656
  RMM-DIIS:  cpu time    7.0091: real time    7.0094
    ORTHCH:  cpu time    0.3037: real time    0.3037
 BZINTS: Fermi energy:    0.261644;  403.000000 electrons
         Band energy:-0.146903E+04;  BLOECHL correction:   -0.037804
       DOS:  cpu time    0.0091: real time    0.0091
    --------------------------------------------
      LOOP:  cpu time    8.9874: real time    8.9878

 eigenvalue-minimisations  :  7497
 total energy-change (2. order) :-0.3991489E-02  (-0.3889915E-02)
 number of electron     403.0000052 magnetization 
 augmentation part      403.0000052 magnetization 

 Free energy of the ion-electron system (eV)
  ---------------------------------------------------
  alpha Z        PSCENC =       857.83316172
  Ewald energy   TEWEN  =    164806.28051511
  -Hartree energ DENC   =   -199038.59583417
  -exchange      EXHF   =         0.00000000
  -V(xc)+E(xc)   XCENC  =       549.46508841
  PAW double counting   =     36570.43382938   -35829.97828422
  entropy T*S    EENTRO =         0.00000000
  eigenvalues    EBANDS =     -1469.02635812
  atomic energy  EATOM  =     33421.62919975
  Solvation  Ediel_sol  =         0.00000000
  ---------------------------------------------------
  free energy    TOTEN  =      -131.95868214 eV

  energy without entropy =     -131.95868214  energy(sigma->0) =     -131.95868214


--------------------------------------------------------------------------------------------------------




--------------------------------------- Iteration      1(   8)  ---------------------------------------


    EDDIAG:  cpu time    1.6665: real time    1.6667
  RMM-DIIS:  cpu time    6.7625: real time    6.7629
    ORTHCH:  cpu time    0.3032: real time    0.3032
 BZINTS: Fermi energy:    0.261644;  403.000000 electrons
         Band energy:-0.146903E+04;  BLOECHL correction:   -0.037804
       DOS:  cpu time    0.0097: real time    0.0097
    --------------------------------------------
      LOOP:  cpu time    8.7419: real time    8.7425

 eigenvalue-minimisations  :  7180
 total energy-change (2. order) :-0.5327190E-03  (-0.5289597E-03)
 number of electron     403.0000052 magnetization 
 augmentation part      403.0000052 magnetization 

 Free energy of the ion-electron system (eV)
  ---------------------------------------------------
  alpha Z        PSCENC =       857.83316172
  Ewald energy   TEWEN  =    164806.28051511
  -Hartree energ DENC   =   -199038.59583417
  -exchange      EXHF   =         0.00000000
  -V(xc)+E(xc)   XCENC  =       549.46508841
  PAW double counting   =     36570.43382938   -35829.97828422
  entropy T*S    EENTRO =         0.00000000
  eigenvalues    EBANDS =     -1469.02689084
  atomic energy  EATOM  =     33421.62919975
  Solvation  Ediel_sol  =         0.00000000
  ---------------------------------------------------
  free energy    TOTEN  =      -131.95921486 eV

  energy without entropy =     -131.95921486  energy(sigma->0) =     -131.95921486


--------------------------------------------------------------------------------------------------------




--------------------------------------- Iteration      1(   9)  ---------------------------------------


    EDDIAG:  cpu time    1.6681: real time    1.6684
  RMM-DIIS:  cpu time    6.5622: real time    6.5625
    ORTHCH:  cpu time    0.3039: real time    0.3039
 BZINTS: Fermi energy:    0.261644;  403.000000 electrons
         Band energy:-0.146903E+04;  BLOECHL correction:   -0.037804
       DOS:  cpu time    0.0101: real time    0.0101
    --------------------------------------------
      LOOP:  cpu time    8.5443: real time    8.5449

 eigenvalue-minimisations  :  6726
 total energy-change (2. order) :-0.8215508E-04  (-0.8203997E-04)
 number of electron     403.0000052 magnetization 
 augmentation part      403.0000052 magnetization 

 Free energy of the ion-electron system (eV)
  ---------------------------------------------------
  alpha Z        PSCENC =       857.83316172
  Ewald energy   TEWEN  =    164806.28051511
  -Hartree energ DENC   =   -199038.59583417
  -exchange      EXHF   =         0.00000000
  -V(xc)+E(xc)   XCENC  =       549.46508841
  PAW double counting   =     36570.43382938   -35829.97828422
  entropy T*S    EENTRO =         0.00000000
  eigenvalues    EBANDS =     -1469.02697300
  atomic energy  EATOM  =     33421.62919975
  Solvation  Ediel_sol  =         0.00000000
  ---------------------------------------------------
  free energy    TOTEN  =      -131.95929701 eV

  energy without entropy =     -131.95929701  energy(sigma->0) =     -131.95929701


--------------------------------------------------------------------------------------------------------




--------------------------------------- Iteration      1(  10)  ---------------------------------------


    EDDIAG:  cpu time    1.6691: real time    1.6694
  RMM-DIIS:  cpu time    5.1678: real time    5.1680
    ORTHCH:  cpu time    0.3032: real time    0.3033
 BZINTS: Fermi energy:    0.261644;  403.000000 electrons
         Band energy:-0.146903E+04;  BLOECHL correction:   -0.037804
       DOS:  cpu time    0.0097: real time    0.0097
    --------------------------------------------
      LOOP:  cpu time    7.1498: real time    7.1504

 eigenvalue-minimisations  :  4841
 total energy-change (2. order) :-0.1401591E-04  (-0.1403069E-04)
 number of electron     403.0000052 magnetization 
 augmentation part      403.0000052 magnetization 

 Free energy of the ion-electron system (eV)
  ---------------------------------------------------
  alpha Z        PSCENC =       857.83316172
  Ewald energy   TEWEN  =    164806.28051511
  -Hartree energ DENC   =   -199038.59583417
  -exchange      EXHF   =         0.00000000
  -V(xc)+E(xc)   XCENC  =       549.46508841
  PAW double counting   =     36570.43382938   -35829.97828422
  entropy T*S    EENTRO =         0.00000000
  eigenvalues    EBANDS =     -1469.02698701
  atomic energy  EATOM  =     33421.62919975
  Solvation  Ediel_sol  =         0.00000000
  ---------------------------------------------------
  free energy    TOTEN  =      -131.95931103 eV

  energy without entropy =     -131.95931103  energy(sigma->0) =     -131.95931103


--------------------------------------------------------------------------------------------------------




--------------------------------------- Iteration      1(  11)  ---------------------------------------


    EDDIAG:  cpu time    1.6667: real time    1.6670
  RMM-DIIS:  cpu time    3.9785: real time    3.9787
    ORTHCH:  cpu time    0.3034: real time    0.3035
 BZINTS: Fermi energy:    0.261644;  403.000000 electrons
         Band energy:-0.146903E+04;  BLOECHL correction:   -0.037804
       DOS:  cpu time    0.0101: real time    0.0101
    --------------------------------------------
      LOOP:  cpu time    5.9588: real time    5.9593

 eigenvalue-minimisations  :  3552
 total energy-change (2. order) :-0.2428424E-05  (-0.2428034E-05)
 number of electron     403.0000052 magnetization 
 augmentation part      403.0000052 magnetization 

 Free energy of the ion-electron system (eV)
  ---------------------------------------------------
  alpha Z        PSCENC =       857.83316172
  Ewald energy   TEWEN  =    164806.28051511
  -Hartree energ DENC   =   -199038.59583417
  -exchange      EXHF   =         0.00000000
  -V(xc)+E(xc)   XCENC  =       549.46508841
  PAW double counting   =     36570.43382938   -35829.97828422
  entropy T*S    EENTRO =         0.00000000
  eigenvalues    EBANDS =     -1469.02698944
  atomic energy  EATOM  =     33421.62919975
  Solvation  Ediel_sol  =         0.00000000
  ---------------------------------------------------
  free energy    TOTEN  =      -131.95931346 eV

  energy without entropy =     -131.95931346  energy(sigma->0) =     -131.95931346


--------------------------------------------------------------------------------------------------------




 average (electrostatic) potential at core
  the test charge radii are     1.2098  1.0210  0.6991  0.7215  0.5201
  (the norm of the test charge is              1.0000)
       1 -72.8067       2 -72.7763       3 -72.7763       4 -72.7764       5 -72.7792
       6 -72.7761       7 -72.7763       8 -72.7761       9 -72.7803      10 -73.1311
      11 -73.0770      12 -73.1308      13 -73.0770      14 -73.0767      15 -73.1170
      16 -73.1308      17 -73.1170      18 -73.1170      19 -73.0610      20 -73.2375
      21 -73.2371      22 -73.0913      23 -73.2371      24 -73.0911      25 -73.0608
      26 -73.0610      27 -73.0913      28 -72.6990      29 -72.7639      30 -72.7638
      31 -72.7639      32 -72.7636      33 -72.7638      34 -72.7636      35 -72.6676
      36 -49.4383      37 -56.9902      38 -79.0565      39 -43.4153
 
 
 
 E-fermi :   0.2616     XC(G=0):  -5.1958     alpha+bet : -4.8241

 Fermi energy:         0.2616441617

 k-point     1 :       0.0000    0.0000    0.0000
  band No.  band energies     occupation 
      1     -24.1381      2.00000
      2     -14.7968      2.00000
      3      -8.5975      2.00000
      4      -7.6751      2.00000
      5      -7.1380      2.00000
      6      -6.9061      2.00000
      7      -6.9059      2.00000
      8      -6.4428      2.00000
      9      -6.4173      2.00000
     10      -6.4173      2.00000
     11      -6.4120      2.00000
     12      -6.3978      2.00000
     13      -6.3748      2.00000
     14      -6.3748      2.00000
     15      -6.1848      2.00000
     16      -5.9436      2.00000
     17      -5.9316      2.00000
     18      -5.9316      2.00000
     19      -5.8830      2.00000
     20      -5.8830      2.00000
     21      -5.8653      2.00000
     22      -5.5486      2.00000
     23      -5.5486      2.00000
     24      -5.5332      2.00000
     25      -5.5211      2.00000
     26      -5.4963      2.00000
     27      -5.4963      2.00000
     28      -5.3619      2.00000
     29      -5.3618      2.00000
     30      -5.3600      2.00000
     31      -5.3393      2.00000
     32      -5.3392      2.00000
     33      -5.3018      2.00000
     34      -5.2065      2.00000
     35      -5.2065      2.00000
     36      -5.1916      2.00000
     37      -5.1835      2.00000
     38      -5.1835      2.00000
     39      -5.1648      2.00000
     40      -5.1614      2.00000
     41      -5.1614      2.00000
     42      -5.1488      2.00000
[...]
  0.000   0.000   0.000   0.000   0.000   0.000   0.000   0.000   0.000   0.000   1.000   0.000   0.000   0.000   0.000   0.000
  0.000   0.000   0.000   0.000   0.000   0.000   0.000   0.000   0.000   0.000   0.000   0.000   0.000   0.000   0.000   0.000
  0.000   0.000   0.000   0.000   0.000   0.000   0.000   0.000   0.000   0.000   0.000   0.000   0.000   0.000   0.000   0.000
  0.000   0.000   0.000   0.000   0.000   0.000   0.000   0.000   0.000   0.000   0.000   0.000   0.000   0.000   0.000   0.000
  0.000   0.000   0.000   0.000   0.000   0.000   0.000   0.000   0.000   0.000   0.000   0.000   0.000   0.000   0.000   0.000
  0.000   0.000   0.000   0.000   0.000   0.000   0.000   0.000   0.000   0.000   0.000   0.000   0.000   0.000   0.000   0.000
  0.000   0.000   0.000   0.000   0.000   0.000   0.000   0.000   0.000   0.000   0.000   0.000   0.000   0.000   0.000   0.000
  0.000   0.000   0.000   0.000   0.000   0.000   0.000   0.000   0.000   0.000   0.000   0.000   0.000   0.000   0.000   0.000


------------------------ aborting loop because EDIFF is reached ----------------------------------------





 total charge

# of ion       s       p       d       tot
------------------------------------------
    1        0.546   0.239   8.768   9.553
    2        0.546   0.242   8.765   9.552
    3        0.546   0.242   8.765   9.552
    4        0.546   0.242   8.765   9.552
    5        0.545   0.242   8.762   9.549
    6        0.546   0.242   8.765   9.552
    7        0.546   0.242   8.765   9.552
    8        0.546   0.242   8.765   9.552
    9        0.542   0.241   8.770   9.553
   10        0.521   0.308   8.772   9.602
   11        0.523   0.308   8.779   9.610
   12        0.521   0.308   8.772   9.602
   13        0.523   0.308   8.779   9.610
   14        0.523   0.308   8.779   9.610
   15        0.515   0.311   8.775   9.602
   16        0.521   0.308   8.772   9.602
   17        0.515   0.311   8.775   9.602
   18        0.515   0.311   8.775   9.602
   19        0.518   0.300   8.773   9.591
   20        0.550   0.332   8.751   9.633
   21        0.550   0.332   8.751   9.633
   22        0.512   0.312   8.775   9.599
   23        0.550   0.332   8.751   9.633
   24        0.512   0.312   8.775   9.599
   25        0.518   0.300   8.773   9.591
   26        0.518   0.300   8.773   9.591
   27        0.512   0.312   8.775   9.599
   28        0.544   0.224   8.764   9.532
   29        0.551   0.245   8.757   9.552
   30        0.551   0.245   8.757   9.552
   31        0.551   0.245   8.757   9.552
   32        0.551   0.245   8.757   9.552
   33        0.551   0.245   8.757   9.552
   34        0.551   0.245   8.757   9.552
   35        0.540   0.225   8.764   9.529
   36        0.326   0.391   5.159   5.876
   37        0.933   1.446   0.000   2.379
   38        1.524   3.768   0.000   5.292
   39        0.560   0.136   0.000   0.696
--------------------------------------------------
tot         22.056  15.444 311.997 349.497
 
    CHARGE:  cpu time    0.4366: real time    0.4367
    FORLOC:  cpu time    0.0142: real time    0.0142
    FORNL :  cpu time    1.7276: real time    1.7279
    STRESS:  cpu time    5.1574: real time    5.1577
    FORCOR:  cpu time    0.0653: real time    0.0655
    FORHAR:  cpu time    0.0223: real time    0.0223
    OFIELD:  cpu time    0.0003: real time    0.0003

  FORCE on cell =-STRESS in cart. coord.  units (eV):
  Direction    XX          YY          ZZ          XY          YZ          ZX
  --------------------------------------------------------------------------------------
  Alpha Z   857.83316   857.83316   857.83316
  Ewald  187209.68320187209.68364************    -0.00031    -0.00008    -0.00012
  Hartree195779.38931195779.38932************     0.00001    -0.00002    -0.00003
  E(xc)   -1808.07919 -1808.07935 -1814.10526     0.00013    -0.00002    -0.00003
  Local  ************************395107.55843     0.00217     0.00000    -0.00003
  n-local  -128.63130   -83.70381   -82.38461    22.31942    -1.53736     1.44247
  augment  2403.54108  2403.54264  2413.66613    -0.00135    -0.00001     0.00003
  Kinetic  5630.67711  5641.22556  5619.40319     6.52325     0.06714     0.41764
  Fock        0.00000     0.00000     0.00000     0.00000     0.00000     0.00000
  -------------------------------------------------------------------------------------
  Total     -22.16118   -22.16118     1.65019    -0.00000     0.00000    -0.00000
  in kB     -19.72741   -19.72741     1.46896    -0.00000     0.00000    -0.00000
  external pressure =      -12.66 kB  Pullay stress =        0.00 kB


 VOLUME and BASIS-vectors are now :
 -----------------------------------------------------------------------------
  energy-cutoff  :      500.00
  volume of cell :     1799.84
      direct lattice vectors                 reciprocal lattice vectors
     8.813512802  0.000000000  0.000000000     0.113462137 -0.065507406  0.000000000
     4.406756909  7.632725690  0.000000000     0.000000000  0.131014796  0.000000000
     0.000000000  0.000000000 26.754991198     0.000000000  0.000000000  0.037376204

  length of vectors
     8.813512802  8.813512802 26.754991198     0.131014796  0.131014796  0.037376204


 FORCES acting on ions
    electron-ion (+dipol)            ewald-force                    non-local-force                 convergence-correction
 -----------------------------------------------------------------------------------------------
   -.201E-04 -.165E-04 0.283E+04   0.519E-04 0.434E-04 -.283E+04   -.558E-18 -.242E-17 -.828E+00   -.296E-03 -.184E-03 -.369E+00
   0.568E+00 0.203E+00 0.283E+04   -.641E+00 -.341E+00 -.283E+04   0.329E-01 0.767E-01 -.272E+00   0.415E-01 0.735E-01 -.337E+00
   -.568E+00 0.203E+00 0.283E+04   0.640E+00 -.341E+00 -.283E+04   -.329E-01 0.767E-01 -.272E+00   -.412E-01 0.754E-01 -.336E+00
   0.460E+00 0.390E+00 0.283E+04   -.616E+00 -.384E+00 -.283E+04   0.828E-01 -.988E-02 -.272E+00   0.845E-01 -.836E-03 -.337E+00
   0.109E-04 -.219E-04 0.283E+04   0.951E-04 0.174E-05 -.283E+04   0.533E-18 -.862E-18 -.120E+00   0.432E-02 0.263E-02 -.273E+00
   -.460E+00 0.390E+00 0.283E+04   0.616E+00 -.384E+00 -.283E+04   -.828E-01 -.988E-02 -.272E+00   -.860E-01 0.314E-04 -.336E+00
   -.108E+00 -.593E+00 0.283E+04   0.247E-01 0.725E+00 -.283E+04   0.500E-01 -.668E-01 -.272E+00   0.448E-01 -.734E-01 -.336E+00
   0.108E+00 -.593E+00 0.283E+04   -.248E-01 0.725E+00 -.283E+04   -.500E-01 -.668E-01 -.272E+00   -.430E-01 -.745E-01 -.336E+00
   0.197E-04 -.414E-04 0.283E+04   0.166E-03 -.201E-04 -.283E+04   -.539E-18 0.607E-18 -.574E+00   -.456E-02 -.236E-02 -.404E+00
   0.461E+01 0.266E+01 0.978E+03   -.447E+01 -.258E+01 -.978E+03   -.279E+00 -.161E+00 -.601E+00   0.144E+00 0.832E-01 0.671E+00
   0.155E-04 0.518E+01 0.986E+03   0.147E-03 -.538E+01 -.987E+03   0.348E-08 0.523E-01 -.308E+00   0.436E-02 0.104E+00 0.745E+00
   -.461E+01 0.266E+01 0.978E+03   0.447E+01 -.258E+01 -.978E+03   0.279E+00 -.161E+00 -.601E+00   -.146E+00 0.844E-01 0.672E+00
   0.448E+01 -.259E+01 0.986E+03   -.466E+01 0.269E+01 -.987E+03   0.453E-01 -.262E-01 -.308E+00   0.922E-01 -.478E-01 0.745E+00
   -.448E+01 -.259E+01 0.986E+03   0.466E+01 0.269E+01 -.987E+03   -.453E-01 -.262E-01 -.308E+00   -.845E-01 -.489E-01 0.744E+00
   0.313E-04 0.387E+01 0.981E+03   0.236E-03 -.386E+01 -.981E+03   -.722E-09 -.108E-01 -.521E+00   -.249E-02 -.410E-01 0.620E+00
   -.211E-04 -.532E+01 0.978E+03   0.163E-03 0.516E+01 -.978E+03   0.215E-07 0.322E+00 -.601E+00   -.178E-03 -.169E+00 0.672E+00
   0.335E+01 -.194E+01 0.981E+03   -.334E+01 0.193E+01 -.981E+03   -.940E-02 0.542E-02 -.521E+00   -.365E-01 0.187E-01 0.620E+00
   -.335E+01 -.194E+01 0.981E+03   0.334E+01 0.193E+01 -.981E+03   0.940E-02 0.542E-02 -.521E+00   0.371E-01 0.211E-01 0.622E+00
   -.423E-04 0.235E+01 -.907E+03   0.541E-04 -.244E+01 0.905E+03   0.194E-08 0.292E-01 0.667E+00   -.464E-02 0.497E-01 0.145E+01
   0.219E+02 0.126E+02 -.863E+03   -.216E+02 -.125E+02 0.862E+03   -.107E+01 -.618E+00 -.102E+01   0.656E+00 0.378E+00 0.224E+01
   -.219E+02 0.126E+02 -.863E+03   0.216E+02 -.125E+02 0.862E+03   0.107E+01 -.618E+00 -.102E+01   -.653E+00 0.378E+00 0.224E+01
   0.320E+01 -.185E+01 -.890E+03   -.385E+01 0.223E+01 0.888E+03   0.336E+00 -.194E+00 0.571E+00   0.359E+00 -.205E+00 0.150E+01
   -.104E-04 -.253E+02 -.863E+03   0.141E-03 0.249E+02 0.862E+03   0.823E-07 0.124E+01 -.102E+01   0.444E-03 -.755E+00 0.224E+01
   -.320E+01 -.185E+01 -.890E+03   0.385E+01 0.223E+01 0.888E+03   -.336E+00 -.194E+00 0.571E+00   -.359E+00 -.207E+00 0.150E+01
   -.204E+01 -.118E+01 -.907E+03   0.211E+01 0.122E+01 0.905E+03   -.253E-01 -.146E-01 0.667E+00   -.474E-01 -.274E-01 0.145E+01
   0.204E+01 -.118E+01 -.907E+03   -.211E+01 0.122E+01 0.905E+03   0.253E-01 -.146E-01 0.667E+00   0.410E-01 -.288E-01 0.145E+01
   0.103E-04 0.369E+01 -.890E+03   0.196E-03 -.445E+01 0.888E+03   0.258E-07 0.388E+00 0.571E+00   0.106E-02 0.414E+00 0.150E+01
   -.146E-04 -.143E-04 -.274E+04   0.308E-04 0.353E-04 0.274E+04   -.269E-17 0.215E-17 0.363E+00   -.390E-03 -.243E-03 0.102E+01
   0.380E+02 0.626E+02 -.271E+04   -.380E+02 -.628E+02 0.270E+04   -.593E+00 -.841E+00 0.419E+00   0.519E+00 0.925E+00 0.906E+00
   -.380E+02 0.626E+02 -.271E+04   0.380E+02 -.628E+02 0.270E+04   0.593E+00 -.841E+00 0.419E+00   -.518E+00 0.927E+00 0.905E+00
   0.732E+02 0.164E+01 -.271E+04   -.735E+02 -.153E+01 0.270E+04   -.102E+01 -.926E-01 0.419E+00   0.106E+01 -.137E-01 0.906E+00
   -.732E+02 0.164E+01 -.271E+04   0.735E+02 -.153E+01 0.270E+04   0.102E+01 -.926E-01 0.419E+00   -.106E+01 -.133E-01 0.905E+00
   0.352E+02 -.642E+02 -.271E+04   -.354E+02 0.644E+02 0.270E+04   -.432E+00 0.934E+00 0.419E+00   0.544E+00 -.912E+00 0.905E+00
   -.352E+02 -.642E+02 -.271E+04   0.354E+02 0.644E+02 0.270E+04   0.432E+00 0.934E+00 0.419E+00   -.542E+00 -.913E+00 0.905E+00
   0.358E-04 -.270E-04 -.275E+04   0.140E-03 -.507E-04 0.275E+04   -.508E-17 -.520E-18 0.327E+00   -.430E-02 -.219E-02 0.102E+01
   -.291E-04 -.149E-04 -.147E+04   0.740E-04 0.688E-05 0.147E+04   0.148E-16 -.201E-17 0.429E+00   0.318E-02 0.194E-02 0.819E+00
   -.566E-05 -.777E-04 -.106E+04   0.178E-04 0.115E-05 0.104E+04   -.405E-20 -.531E-20 0.207E+02   0.124E-02 0.753E-03 -.896E+00
   0.245E-03 -.886E-04 -.177E+04   0.620E-05 0.609E-06 0.178E+04   -.466E-19 0.133E-19 -.587E+01   0.388E-02 0.237E-02 -.657E+00
   0.620E-05 -.145E-04 -.339E+03   0.270E-06 0.457E-07 0.348E+03   0.122E-20 0.237E-20 -.867E+01   0.205E-03 0.125E-03 -.820E-01
 -----------------------------------------------------------------------------------------------
   -.539E-03 -.957E-03 -.277E+02   -.164E-13 -.572E-13 -.489E-11   0.343E-15 0.220E-15 0.297E+01   0.586E-02 0.419E-02 0.252E+02
 
 
 POSITION                                       TOTAL-FORCE (eV/Angst)
 -----------------------------------------------------------------------------------
      0.00000      0.00000      5.28038         0.000000     -0.000000     -0.115089
      2.93784      0.00000      5.28038         0.002099      0.013239     -0.050716
      5.87568      0.00000      5.28038        -0.002099      0.013239     -0.050716
      1.46892      2.54424      5.28038         0.012515     -0.004801     -0.050716
      4.40676      2.54424      5.28038         0.000000     -0.000000     -0.075119
      7.34459      2.54424      5.28038        -0.012515     -0.004801     -0.050716
      2.93784      5.08848      5.28038         0.010415     -0.008437     -0.050716
      5.87568      5.08848      5.28038        -0.010415     -0.008437     -0.050716
      8.81351      5.08848      5.28038         0.000000     -0.000000     -0.058280
      1.46892      0.84808      7.67911         0.005125      0.002959      0.141491
      4.40676      0.84808      7.67911        -0.000000     -0.045016      0.058347
      7.34459      0.84808      7.67911        -0.005125      0.002959      0.141491
      2.93784      3.39232      7.67911        -0.038985      0.022508      0.058347
      5.87568      3.39232      7.67911         0.038985      0.022508      0.058347
      8.81351      3.39232      7.67911        -0.000000     -0.039330      0.116325
      4.40676      5.93656      7.67911        -0.000000     -0.005918      0.141491
      7.34459      5.93656      7.67911        -0.034061      0.019665      0.116325
     10.28243      5.93656      7.67911         0.034061      0.019665      0.116325
      8.81351      1.69603     10.07479        -0.000000     -0.006944      0.006266
      2.95306      1.70495     10.04990        -0.083530     -0.048226     -0.189781
      5.86045      1.70495     10.04990         0.083530     -0.048226     -0.189781
     10.26640      4.24966     10.05812         0.040059     -0.023128     -0.010139
      4.40676      4.22282     10.04990         0.000000      0.096452     -0.189781
      7.36062      4.24966     10.05812        -0.040059     -0.023128     -0.010139
     11.75147      6.78471     10.07479         0.006014      0.003472      0.006266
      5.87556      6.78471     10.07479        -0.006014      0.003472      0.006266
      8.81351      6.76613     10.05812         0.000000      0.046257     -0.010139
      0.00000      0.00000     12.48774         0.000000     -0.000000     -0.121810
      2.98478      0.07843     12.47445        -0.094228     -0.175373     -0.111307
      5.82873      0.07843     12.47445         0.094228     -0.175373     -0.111307
      1.56032      2.54568     12.47445        -0.198991      0.006082     -0.111307
      7.25320      2.54568     12.47445         0.198991      0.006082     -0.111307
      2.98229      5.00861     12.47445        -0.104763      0.169290     -0.111307
      5.83122      5.00861     12.47445         0.104763      0.169290     -0.111307
      8.81351      5.08848     12.49541         0.000000     -0.000000     -0.111559
      4.40676      2.54424     12.16834         0.000000     -0.000000      0.967230
      4.40676      2.54424     13.84662         0.000000     -0.000000      0.161112
      4.40676      2.54424     15.10127         0.000000     -0.000000     -0.045380
      4.40676      2.54424     16.05956         0.000000     -0.000000      0.003505
 -----------------------------------------------------------------------------------
    total drift:                                0.005317      0.003229      0.474311


--------------------------------------------------------------------------------------------------------



  FREE ENERGIE OF THE ION-ELECTRON SYSTEM (eV)
  ---------------------------------------------------
  free  energy   TOTEN  =      -131.95931346 eV

  energy  without entropy=     -131.95931346  energy(sigma->0) =     -131.95931346
 


--------------------------------------------------------------------------------------------------------


    POTLOK:  cpu time    0.0511: real time    0.0511


--------------------------------------------------------------------------------------------------------


 stress matrix after NEB project (eV)
    -22.16118     -0.00000     -0.00000
     -0.00000    -22.16118      0.00000
      0.00000      0.00000      1.65019
  FORCES: max atom, RMS     0.161112    0.026808
  FORCE total and by dimension    0.167418    0.161112
  Stress total and by dimension   31.384057   22.161182
     LOOP+:  cpu time  100.0364: real time  100.0526
 -----------------------------------------------------------------------------
|                                                                             |
|           W    W    AA    RRRRR   N    N  II  N    N   GGGG   !!!           |
|           W    W   A  A   R    R  NN   N  II  NN   N  G    G  !!!           |
|           W    W  A    A  R    R  N N  N  II  N N  N  G       !!!           |
|           W WW W  AAAAAA  RRRRR   N  N N  II  N  N N  G  GGG   !            |
|           WW  WW  A    A  R   R   N   NN  II  N   NN  G    G                |
|           W    W  A    A  R    R  N    N  II  N    N   GGGG   !!!           |
|                                                                             |
|     Tetrahedron method does not include variations of the Fermi             |
|     occupations, so forces and stress will be inaccurate. We suggest        |
|     using a different smearing scheme ISMEAR = 1 or 2 for metals in         |
|     relaxations.                                                            |
|                                                                             |
 -----------------------------------------------------------------------------

    4ORBIT:  cpu time    0.0000: real time    0.0000



 total charge

# of ion       s       p       d       tot
------------------------------------------
    1        0.546   0.239   8.768   9.553
    2        0.546   0.242   8.765   9.552
    3        0.546   0.242   8.765   9.552
    4        0.546   0.242   8.765   9.552
    5        0.545   0.242   8.762   9.549
    6        0.546   0.242   8.765   9.552
    7        0.546   0.242   8.765   9.552
    8        0.546   0.242   8.765   9.552
    9        0.542   0.241   8.770   9.553
   10        0.521   0.308   8.772   9.602
   11        0.523   0.308   8.779   9.610
   12        0.521   0.308   8.772   9.602
   13        0.523   0.308   8.779   9.610
   14        0.523   0.308   8.779   9.610
   15        0.515   0.311   8.775   9.602
   16        0.521   0.308   8.772   9.602
   17        0.515   0.311   8.775   9.602
   18        0.515   0.311   8.775   9.602
   19        0.518   0.300   8.773   9.591
   20        0.550   0.332   8.751   9.633
   21        0.550   0.332   8.751   9.633
   22        0.512   0.312   8.775   9.599
   23        0.550   0.332   8.751   9.633
   24        0.512   0.312   8.775   9.599
   25        0.518   0.300   8.773   9.591
   26        0.518   0.300   8.773   9.591
   27        0.512   0.312   8.775   9.599
   28        0.544   0.224   8.764   9.532
   29        0.551   0.245   8.757   9.552
   30        0.551   0.245   8.757   9.552
   31        0.551   0.245   8.757   9.552
   32        0.551   0.245   8.757   9.552
   33        0.551   0.245   8.757   9.552
   34        0.551   0.245   8.757   9.552
   35        0.540   0.225   8.764   9.529
   36        0.326   0.391   5.159   5.876
   37        0.933   1.446   0.000   2.379
   38        1.524   3.768   0.000   5.292
   39        0.560   0.136   0.000   0.696
--------------------------------------------------
tot         22.056  15.444 311.997 349.497
 
 BZINTS: Fermi energy:    0.261644;  403.000000 electrons
         Band energy:-0.146903E+04;  BLOECHL correction:   -0.037804

 total amount of memory used by VASP MPI-rank0   139230. kBytes
=======================================================================

   base      :      30000. kBytes
   nonlr-proj:      13538. kBytes
   fftplans  :       5150. kBytes
   grid      :      23126. kBytes
   one-center:        606. kBytes
   wavefun   :      66810. kBytes
 
  
  
 General timing and accounting informations for this job:
 ========================================================
  
                  Total CPU time used (sec):      108.542
                            User time (sec):      104.939
                          System time (sec):        3.603
                         Elapsed time (sec):      108.937
  
                   Maximum memory used (kb):      415096.
                   Average memory used (kb):          N/A
  
                          Minor page faults:        98482
                          Major page faults:            0
                 Voluntary context switches:         5494
