PROCAR new format
# of k-points:   10         # of bands:  252         # of ions:   39

 k-point     1 :    0.00000000 0.00000000 0.00000000     weight = 0.01562500

band     1 # energy  -24.13811215 # occ.  2.00000000
 
ion      s      p      d    tot
    1  0.000  0.000  0.000  0.000
    2  0.000  0.000  0.000  0.000
    3  0.000  0.000  0.000  0.000
    4  0.000  0.000  0.000  0.000
    5  0.000  0.000  0.000  0.000
    6  0.000  0.000  0.000  0.000
    7  0.000  0.000  0.000  0.000
    8  0.000  0.000  0.000  0.000
    9  0.000  0.000  0.000  0.000
   10  0.000  0.000  0.000  0.000
   11  0.000  0.000  0.000  0.000
   12  0.000  0.000  0.000  0.000
   13  0.000  0.000  0.000  0.000
   14  0.000  0.000  0.000  0.000
   15  0.000  0.000  0.000  0.000
   16  0.000  0.000  0.000  0.000
   17  0.000  0.000  0.000  0.000
   18  0.000  0.000  0.000  0.000
   19  0.000  0.000  0.000  0.000
   20  0.000  0.000  0.000  0.000
   21  0.000  0.000  0.000  0.000
   22  0.000  0.000  0.000  0.000
   23  0.000  0.000  0.000  0.000
   24  0.000  0.000  0.000  0.000
   25  0.000  0.000  0.000  0.000
   26  0.000  0.000  0.000  0.000
   27  0.000  0.000  0.000  0.000
   28  0.000  0.000  0.000  0.000
   29  0.000  0.000  0.000  0.000
   30  0.000  0.000  0.000  0.000
   31  0.000  0.000  0.000  0.000
   32  0.000  0.000  0.000  0.000
   33  0.000  0.000  0.000  0.000
   34  0.000  0.000  0.000  0.000
   35  0.000  0.000  0.000  0.000
   36  0.000  0.000  0.000  0.000
   37  0.080  0.059  0.000  0.139
   38  0.725  0.008  0.000  0.733
   39  0.060  0.013  0.000  0.073
tot    0.865  0.080  0.000  0.946
 
band     2 # energy  -14.79682814 # occ.  2.00000000
 
ion      s      p      d    tot
    1  0.000  0.000  0.000  0.000
    2  0.000  0.000  0.000  0.000
    3  0.000  0.000  0.000  0.000
    4  0.000  0.000  0.000  0.000
    5  0.000  0.000  0.000  0.000
    6  0.000  0.000  0.000  0.000
    7  0.000  0.000  0.000  0.000
    8  0.000  0.000  0.000  0.000
    9  0.000  0.000  0.000  0.000
   10  0.000  0.000  0.000  0.000
   11  0.000  0.000  0.000  0.000
   12  0.000  0.000  0.000  0.000
   13  0.000  0.000  0.000  0.000
   14  0.000  0.000  0.000  0.000
   15  0.000  0.000  0.000  0.000
   16  0.000  0.000  0.000  0.000
   17  0.000  0.000  0.000  0.000
   18  0.000  0.000  0.000  0.000
   19  0.000  0.000  0.000  0.000
   20  0.000  0.000  0.000  0.000
   21  0.000  0.000  0.000  0.000
   22  0.000  0.000  0.000  0.000
   23  0.000  0.000  0.000  0.000
   24  0.000  0.000  0.000  0.000
   25  0.000  0.000  0.000  0.000
   26  0.000  0.000  0.000  0.000
   27  0.000  0.000  0.000  0.000
   28  0.000  0.000  0.000  0.000
   29  0.000  0.000  0.000  0.000
   30  0.000  0.000  0.000  0.000
   31  0.000  0.000  0.000  0.000
   32  0.000  0.000  0.000  0.000
   33  0.000  0.000  0.000  0.000
   34  0.000  0.000  0.000  0.000
   35  0.000  0.000  0.000  0.000
   36  0.002  0.002  0.002  0.005
   37  0.156  0.051  0.000  0.208
   38  0.019  0.527  0.000  0.545
   39  0.203  0.033  0.000  0.236
tot    0.380  0.612  0.002  0.994
 
band     3 # energy   -8.59753192 # occ.  2.00000000
 
ion      s      p      d    tot
    1  0.006  0.000  0.000  0.007
    2  0.006  0.000  0.000  0.006
    3  0.006  0.000  0.000  0.006
    4  0.006  0.000  0.000  0.006
    5  0.006  0.000  0.000  0.006
    6  0.006  0.000  0.000  0.006
    7  0.006  0.000  0.000  0.006
    8  0.006  0.000  0.000  0.006
    9  0.006  0.000  0.000  0.006
   10  0.025  0.000  0.000  0.025
   11  0.025  0.000  0.000  0.025
   12  0.025  0.000  0.000  0.025
   13  0.025  0.000  0.000  0.025
   14  0.025  0.000  0.000  0.025
   15  0.024  0.000  0.000  0.025
   16  0.025  0.000  0.000  0.025
   17  0.024  0.000  0.000  0.025
   18  0.024  0.000  0.000  0.025
   19  0.023  0.000  0.000  0.023
   20  0.028  0.000  0.000  0.028
   21  0.028  0.000  0.000  0.028
   22  0.024  0.000  0.000  0.024
   23  0.028  0.000  0.000  0.028
   24  0.024  0.000  0.000  0.024
   25  0.023  0.000  0.000  0.023
   26  0.023  0.000  0.000  0.023
   27  0.024  0.000  0.000  0.024
   28  0.005  0.000  0.000  0.005
   29  0.006  0.000  0.000  0.006
   30  0.006  0.000  0.000  0.006
   31  0.006  0.000  0.000  0.006
   32  0.006  0.000  0.000  0.006
   33  0.006  0.000  0.000  0.006
   34  0.006  0.000  0.000  0.006
   35  0.005  0.000  0.000  0.005
   36  0.011  0.000  0.003  0.014
   37  0.005  0.005  0.000  0.010
   38  0.000  0.002  0.000  0.002
   39  0.001  0.000  0.000  0.001
tot    0.561  0.017  0.006  0.585
 
band     4 # energy   -7.67505454 # occ.  2.00000000
 
ion      s      p      d    tot
    1  0.007  0.000  0.000  0.008
    2  0.008  0.000  0.000  0.008
    3  0.008  0.000  0.000  0.008
    4  0.008  0.000  0.000  0.008
    5  0.008  0.000  0.000  0.008
    6  0.008  0.000  0.000  0.008
    7  0.008  0.000  0.000  0.008
    8  0.008  0.000  0.000  0.008
    9  0.008  0.000  0.000  0.009
   10  0.008  0.000  0.001  0.010
   11  0.008  0.000  0.001  0.010
   12  0.008  0.000  0.001  0.010
   13  0.008  0.000  0.001  0.010
   14  0.008  0.000  0.001  0.010
   15  0.011  0.000  0.001  0.012
   16  0.008  0.000  0.001  0.010
   17  0.011  0.000  0.001  0.012
   18  0.011  0.000  0.001  0.012
   19  0.001  0.001  0.001  0.002
   20  0.006  0.002  0.003  0.010
   21  0.006  0.002  0.003  0.010
   22  0.001  0.001  0.001  0.002
   23  0.006  0.002  0.003  0.010
   24  0.001  0.001  0.001  0.002
   25  0.001  0.001  0.001  0.002
   26  0.001  0.001  0.001  0.002
   27  0.001  0.001  0.001  0.002
   28  0.005  0.000  0.001  0.005
   29  0.010  0.000  0.002  0.013
   30  0.010  0.000  0.002  0.013
   31  0.010  0.000  0.002  0.013
   32  0.010  0.000  0.002  0.013
   33  0.010  0.000  0.002  0.013
   34  0.010  0.000  0.002  0.013
   35  0.004  0.000  0.001  0.005
   36  0.077  0.021  0.063  0.162
   37  0.094  0.089  0.000  0.183
   38  0.007  0.028  0.000  0.035
   39  0.008  0.001  0.000  0.008
tot    0.433  0.157  0.102  0.692
 
band     5 # energy   -7.13796885 # occ.  2.00000000
 
ion      s      p      d    tot
    1  0.013  0.000  0.001  0.014
    2  0.011  0.000  0.001  0.013
    3  0.011  0.000  0.001  0.013
    4  0.011  0.000  0.001  0.013
    5  0.011  0.000  0.001  0.012
    6  0.011  0.000  0.001  0.013
    7  0.011  0.000  0.001  0.013
    8  0.011  0.000  0.001  0.013
    9  0.010  0.000  0.002  0.011
   10  0.004  0.001  0.001  0.007
   11  0.003  0.001  0.002  0.006
   12  0.004  0.001  0.001  0.007
   13  0.003  0.001  0.002  0.006
   14  0.003  0.001  0.002  0.006
   15  0.001  0.002  0.002  0.005
   16  0.004  0.001  0.001  0.007
   17  0.001  0.002  0.002  0.005
   18  0.001  0.002  0.002  0.005
   19  0.017  0.000  0.006  0.023
   20  0.007  0.000  0.011  0.018
   21  0.007  0.000  0.011  0.018
   22  0.022  0.000  0.005  0.027
   23  0.007  0.000  0.011  0.018
   24  0.022  0.000  0.005  0.027
   25  0.017  0.000  0.006  0.023
   26  0.017  0.000  0.006  0.023
   27  0.022  0.000  0.005  0.027
   28  0.007  0.001  0.000  0.008
   29  0.002  0.001  0.003  0.006
   30  0.002  0.001  0.003  0.006
   31  0.002  0.001  0.003  0.006
   32  0.002  0.001  0.003  0.006
   33  0.002  0.001  0.003  0.006
   34  0.002  0.001  0.003  0.006
   35  0.008  0.001  0.000  0.008
   36  0.028  0.023  0.056  0.108
   37  0.073  0.063  0.000  0.136
   38  0.005  0.017  0.000  0.023
   39  0.005  0.000  0.000  0.005
tot    0.401  0.129  0.165  0.696
 
band     6 # energy   -6.90613628 # occ.  2.00000000
 
ion      s      p      d    tot
    1  0.000  0.000  0.000  0.000
    2  0.000  0.000  0.000  0.000
    3  0.000  0.000  0.000  0.000
    4  0.000  0.000  0.000  0.000
    5  0.000  0.000  0.000  0.000
    6  0.000  0.000  0.000  0.000
    7  0.000  0.000  0.000  0.000
    8  0.000  0.000  0.000  0.000
    9  0.000  0.000  0.000  0.000
   10  0.000  0.000  0.000  0.000
   11  0.000  0.000  0.000  0.000
   12  0.000  0.000  0.000  0.000
   13  0.000  0.000  0.000  0.000
   14  0.000  0.000  0.000  0.000
   15  0.000  0.000  0.000  0.000
   16  0.000  0.000  0.000  0.000
   17  0.000  0.000  0.000  0.000
   18  0.000  0.000  0.000  0.000
   19  0.000  0.000  0.000  0.000
   20  0.000  0.000  0.000  0.000
   21  0.000  0.000  0.000  0.000
   22  0.000  0.000  0.000  0.000
   23  0.000  0.000  0.000  0.000
   24  0.000  0.000  0.000  0.000
   25  0.000  0.000  0.000  0.000
   26  0.000  0.000  0.000  0.000
   27  0.000  0.000  0.000  0.000
   28  0.000  0.000  0.000  0.000
   29  0.002  0.000  0.001  0.003
   30  0.000  0.000  0.001  0.001
   31  0.002  0.000  0.001  0.003
   32  0.002  0.000  0.001  0.003
   33  0.000  0.000  0.001  0.001
   34  0.002  0.000  0.001  0.003
   35  0.000  0.000  0.000  0.000
   36  0.000  0.003  0.011  0.014
   37  0.000  0.115  0.000  0.115
   38  0.000  0.521  0.000  0.521
   39  0.000  0.007  0.000  0.007
tot    0.008  0.648  0.019  0.675
 
band     7 # energy   -6.90594213 # occ.  2.00000000
 
ion      s      p      d    tot
    1  0.000  0.000  0.000  0.000
    2  0.000  0.000  0.000  0.000
    3  0.000  0.000  0.000  0.000
    4  0.000  0.000  0.000  0.000
    5  0.000  0.000  0.000  0.000
    6  0.000  0.000  0.000  0.000
    7  0.000  0.000  0.000  0.000
    8  0.000  0.000  0.000  0.000
    9  0.000  0.000  0.000  0.000
   10  0.000  0.000  0.000  0.000
   11  0.000  0.000  0.000  0.000
   12  0.000  0.000  0.000  0.000
   13  0.000  0.000  0.000  0.000
   14  0.000  0.000  0.000  0.000
   15  0.000  0.000  0.000  0.000
   16  0.000  0.000  0.000  0.000
   17  0.000  0.000  0.000  0.000
   18  0.000  0.000  0.000  0.000
   19  0.000  0.000  0.000  0.000
   20  0.000  0.000  0.000  0.000
   21  0.000  0.000  0.000  0.000
   22  0.000  0.000  0.000  0.000
   23  0.000  0.000  0.000  0.000
   24  0.000  0.000  0.000  0.000
   25  0.000  0.000  0.000  0.000
   26  0.000  0.000  0.000  0.000
   27  0.000  0.000  0.000  0.000
   28  0.000  0.000  0.000  0.000
   29  0.001  0.000  0.001  0.002
   30  0.002  0.000  0.001  0.004
   31  0.001  0.000  0.001  0.002
   32  0.001  0.000  0.001  0.002
   33  0.002  0.000  0.001  0.004
   34  0.001  0.000  0.001  0.002
   35  0.000  0.000  0.000  0.000
   36  0.000  0.003  0.011  0.014
   37  0.000  0.115  0.000  0.115
   38  0.000  0.521  0.000  0.521
   39  0.000  0.007  0.000  0.007
tot    0.008  0.648  0.019  0.675
 
band     8 # energy   -6.44275963 # occ.  2.00000000
 
ion      s      p      d    tot
    1  0.006  0.000  0.019  0.025
    2  0.013  0.000  0.014  0.028
    3  0.013  0.000  0.014  0.028
    4  0.013  0.000  0.014  0.028
    5  0.007  0.000  0.012  0.019
    6  0.013  0.000  0.014  0.028
    7  0.013  0.000  0.014  0.028
    8  0.013  0.000  0.014  0.028
    9  0.036  0.000  0.008  0.044
   10  0.012  0.001  0.021  0.034
   11  0.018  0.002  0.014  0.034
   12  0.012  0.001  0.021  0.034
   13  0.018  0.002  0.014  0.034
   14  0.018  0.002  0.014  0.034
   15  0.001  0.001  0.023  0.025
   16  0.012  0.001  0.021  0.034
   17  0.001  0.001  0.023  0.025
   18  0.001  0.001  0.023  0.025
   19  0.000  0.001  0.009  0.010
   20  0.011  0.001  0.008  0.020
   21  0.010  0.001  0.008  0.020
   22  0.006  0.001  0.002  0.010
   23  0.010  0.001  0.008  0.020
   24  0.006  0.001  0.002  0.010
   25  0.000  0.001  0.009  0.010
   26  0.000  0.001  0.009  0.010
   27  0.006  0.001  0.002  0.010
   28  0.005  0.000  0.000  0.005
   29  0.002  0.000  0.003  0.005
   30  0.002  0.000  0.003  0.005
   31  0.002  0.000  0.003  0.005
   32  0.002  0.000  0.003  0.006
   33  0.002  0.000  0.003  0.005
   34  0.002  0.000  0.003  0.006
   35  0.008  0.000  0.000  0.008
   36  0.000  0.001  0.000  0.002
   37  0.000  0.000  0.000  0.000
   38  0.000  0.000  0.000  0.000
   39  0.000  0.000  0.000  0.000
tot    0.303  0.025  0.375  0.703
 
band     9 # energy   -6.41729406 # occ.  2.00000000
 
ion      s      p      d    tot
    1  0.000  0.000  0.007  0.007
    2  0.002  0.001  0.003  0.005
    3  0.002  0.001  0.003  0.005
    4  0.002  0.001  0.003  0.005
    5  0.000  0.001  0.008  0.009
    6  0.007  0.001  0.003  0.012
    7  0.002  0.001  0.003  0.006
    8  0.007  0.001  0.003  0.012
    9  0.000  0.000  0.001  0.002
   10  0.026  0.002  0.005  0.033
   11  0.014  0.002  0.025  0.042
   12  0.007  0.001  0.026  0.033
   13  0.015  0.002  0.025  0.042
   14  0.057  0.001  0.009  0.068
   15  0.002  0.003  0.005  0.010
   16  0.006  0.001  0.026  0.033
   17  0.002  0.003  0.005  0.010
   18  0.006  0.000  0.015  0.021
   19  0.001  0.003  0.005  0.009
   20  0.057  0.001  0.010  0.068
   21  0.014  0.003  0.025  0.042
   22  0.007  0.001  0.026  0.033
   23  0.014  0.003  0.025  0.041
   24  0.026  0.002  0.004  0.031
   25  0.004  0.000  0.013  0.017
   26  0.001  0.003  0.006  0.009
   27  0.006  0.001  0.026  0.033
   28  0.000  0.000  0.001  0.001
   29  0.007  0.001  0.004  0.011
   30  0.001  0.000  0.003  0.005
   31  0.007  0.001  0.004  0.011
   32  0.003  0.001  0.002  0.005
   33  0.001  0.000  0.003  0.004
   34  0.003  0.001  0.002  0.005
   35  0.000  0.000  0.005  0.005
   36  0.000  0.001  0.002  0.004
   37  0.000  0.000  0.000  0.000
   38  0.000  0.001  0.000  0.001
   39  0.000  0.000  0.000  0.000
tot    0.306  0.044  0.343  0.693
 
band    10 # energy   -6.41727403 # occ.  2.00000000
 
ion      s      p      d    tot
    1  0.000  0.000  0.007  0.007
    2  0.005  0.001  0.004  0.010
    3  0.006  0.001  0.003  0.010
    4  0.005  0.001  0.004  0.010
    5  0.000  0.001  0.008  0.009
    6  0.000  0.000  0.003  0.003
    7  0.006  0.001  0.003  0.010
    8  0.000  0.000  0.003  0.003
    9  0.000  0.000  0.001  0.002
   10  0.000  0.000  0.033  0.033
   11  0.044  0.001  0.014  0.060
   12  0.019  0.001  0.012  0.033
   13  0.043  0.002  0.015  0.059
   14  0.000  0.003  0.031  0.033
   15  0.005  0.001  0.011  0.017
   16  0.019  0.001  0.012  0.033
   17  0.005  0.001  0.011  0.017
   18  0.000  0.004  0.002  0.006
   19  0.003  0.001  0.011  0.015
   20  0.000  0.003  0.030  0.033
   21  0.042  0.002  0.015  0.059
   22  0.019  0.001  0.011  0.032
   23  0.043  0.002  0.015  0.059
   24  0.000  0.000  0.033  0.033
   25  0.000  0.004  0.003  0.007
   26  0.003  0.001  0.010  0.015
   27  0.020  0.001  0.011  0.032
   28  0.000  0.000  0.001  0.001
   29  0.000  0.000  0.002  0.003
   30  0.006  0.001  0.003  0.010
   31  0.000  0.000  0.002  0.003
   32  0.004  0.001  0.004  0.009
   33  0.006  0.001  0.003  0.010
   34  0.004  0.001  0.004  0.009
   35  0.000  0.000  0.005  0.005
   36  0.000  0.001  0.002  0.004
   37  0.000  0.000  0.000  0.000
   38  0.000  0.001  0.000  0.001
   39  0.000  0.000  0.000  0.000
tot    0.306  0.044  0.343  0.693
 
band    11 # energy   -6.41201775 # occ.  2.00000000
 
ion      s      p      d    tot
    1  0.014  0.000  0.004  0.018
    2  0.006  0.000  0.010  0.017
    3  0.006  0.000  0.010  0.017
    4  0.006  0.000  0.010  0.017
    5  0.015  0.000  0.007  0.022
    6  0.006  0.000  0.010  0.017
    7  0.006  0.000  0.010  0.017
    8  0.006  0.000  0.010  0.017
    9  0.000  0.001  0.013  0.014
   10  0.000  0.000  0.031  0.032
   11  0.000  0.002  0.020  0.022
   12  0.000  0.000  0.032  0.032
   13  0.000  0.002  0.020  0.022
   14  0.000  0.002  0.020  0.022
   15  0.033  0.001  0.012  0.047
   16  0.000  0.000  0.032  0.032
   17  0.033  0.001  0.012  0.047
   18  0.034  0.001  0.012  0.047
   19  0.000  0.000  0.021  0.022
   20  0.023  0.001  0.011  0.035
   21  0.024  0.001  0.011  0.035
   22  0.002  0.002  0.013  0.017
   23  0.024  0.001  0.011  0.035
   24  0.002  0.002  0.013  0.017
   25  0.000  0.000  0.021  0.022
   26  0.000  0.000  0.021  0.022
   27  0.002  0.002  0.013  0.017
   28  0.002  0.000  0.000  0.003
   29  0.001  0.000  0.004  0.005
   30  0.001  0.000  0.004  0.005
   31  0.001  0.000  0.004  0.005
   32  0.001  0.000  0.004  0.005
   33  0.001  0.000  0.004  0.005
   34  0.001  0.000  0.004  0.005
   35  0.005  0.000  0.001  0.006
   36  0.000  0.004  0.000  0.004
   37  0.002  0.001  0.000  0.003
   38  0.000  0.001  0.000  0.001
   39  0.000  0.000  0.000  0.000
tot    0.263  0.027  0.437  0.726
 
band    12 # energy   -6.39776828 # occ.  2.00000000
 
ion      s      p      d    tot
    1  0.011  0.001  0.001  0.013
    2  0.000  0.001  0.006  0.006
    3  0.000  0.001  0.006  0.006
    4  0.000  0.001  0.006  0.006
    5  0.012  0.002  0.002  0.016
    6  0.000  0.001  0.006  0.006
    7  0.000  0.001  0.006  0.006
    8  0.000  0.001  0.006  0.006
    9  0.000  0.000  0.001  0.001
   10  0.025  0.003  0.003  0.032
   11  0.020  0.000  0.023  0.043
   12  0.025  0.003  0.003  0.031
   13  0.020  0.000  0.023  0.043
   14  0.020  0.000  0.022  0.043
   15  0.000  0.001  0.021  0.023
   16  0.025  0.003  0.003  0.031
   17  0.000  0.001  0.021  0.023
   18  0.000  0.001  0.021  0.023
   19  0.029  0.003  0.003  0.034
   20  0.002  0.002  0.020  0.024
   21  0.002  0.002  0.020  0.024
   22  0.010  0.000  0.026  0.037
   23  0.002  0.002  0.020  0.024
   24  0.010  0.000  0.026  0.037
   25  0.028  0.003  0.003  0.034
   26  0.029  0.003  0.003  0.034
   27  0.010  0.000  0.026  0.037
   28  0.009  0.001  0.001  0.011
   29  0.000  0.000  0.004  0.004
   30  0.000  0.000  0.004  0.004
   31  0.000  0.000  0.004  0.004
   32  0.000  0.000  0.004  0.004
   33  0.000  0.000  0.004  0.004
   34  0.000  0.000  0.004  0.004
   35  0.007  0.001  0.002  0.009
   36  0.000  0.000  0.000  0.001
   37  0.000  0.000  0.000  0.000
   38  0.000  0.000  0.000  0.000
   39  0.000  0.000  0.000  0.000
tot    0.301  0.041  0.352  0.694
 
band    13 # energy   -6.37482187 # occ.  2.00000000
 
ion      s      p      d    tot
    1  0.000  0.001  0.005  0.006
    2  0.002  0.001  0.003  0.005
    3  0.001  0.000  0.004  0.005
    4  0.004  0.001  0.003  0.008
    5  0.000  0.000  0.003  0.003
    6  0.009  0.001  0.004  0.014
    7  0.003  0.001  0.004  0.008
    8  0.008  0.001  0.004  0.014
    9  0.000  0.001  0.011  0.012
   10  0.001  0.004  0.009  0.014
   11  0.002  0.001  0.011  0.014
   12  0.023  0.002  0.013  0.038
   13  0.001  0.001  0.013  0.016
   14  0.000  0.002  0.016  0.019
   15  0.050  0.002  0.010  0.062
   16  0.032  0.001  0.015  0.048
   17  0.036  0.001  0.020  0.057
   18  0.001  0.000  0.046  0.047
   19  0.040  0.002  0.008  0.050
   20  0.000  0.001  0.016  0.017
   21  0.002  0.001  0.012  0.015
   22  0.017  0.002  0.012  0.031
   23  0.003  0.001  0.011  0.015
   24  0.001  0.004  0.011  0.015
   25  0.001  0.001  0.035  0.037
   26  0.029  0.002  0.016  0.046
   27  0.023  0.001  0.013  0.037
   28  0.000  0.001  0.006  0.007
   29  0.004  0.001  0.002  0.007
   30  0.002  0.000  0.003  0.005
   31  0.004  0.001  0.002  0.007
   32  0.002  0.000  0.001  0.003
   33  0.001  0.000  0.002  0.003
   34  0.001  0.000  0.002  0.002
   35  0.000  0.001  0.003  0.003
   36  0.000  0.000  0.000  0.000
   37  0.000  0.000  0.000  0.000
   38  0.000  0.002  0.000  0.002
   39  0.000  0.000  0.000  0.000
tot    0.299  0.043  0.351  0.693
 
band    14 # energy   -6.37481962 # occ.  2.00000000
 
ion      s      p      d    tot
    1  0.000  0.001  0.005  0.006
    2  0.007  0.001  0.004  0.013
    3  0.008  0.001  0.004  0.013
    4  0.005  0.001  0.004  0.010
    5  0.000  0.000  0.003  0.003
    6  0.000  0.000  0.003  0.004
    7  0.006  0.001  0.003  0.010
    8  0.000  0.000  0.003  0.004
    9  0.000  0.001  0.011  0.012
   10  0.036  0.000  0.015  0.052
   11  0.000  0.002  0.016  0.018
   12  0.014  0.003  0.011  0.029
   13  0.001  0.002  0.014  0.017
   14  0.002  0.001  0.011  0.014
   15  0.008  0.001  0.041  0.049
   16  0.005  0.004  0.010  0.019
   17  0.022  0.001  0.030  0.054
   18  0.057  0.002  0.005  0.064
   19  0.006  0.001  0.032  0.039
   20  0.003  0.001  0.010  0.014
   21  0.001  0.001  0.014  0.016
   22  0.010  0.003  0.012  0.025
   23  0.000  0.001  0.015  0.017
   24  0.027  0.000  0.013  0.041
   25  0.045  0.002  0.004  0.052
   26  0.018  0.001  0.024  0.042
   27  0.004  0.004  0.011  0.019
   28  0.000  0.001  0.006  0.007
   29  0.000  0.000  0.002  0.002
   30  0.003  0.001  0.002  0.005
   31  0.000  0.000  0.002  0.002
   32  0.003  0.001  0.003  0.006
   33  0.004  0.001  0.002  0.006
   34  0.004  0.001  0.003  0.007
   35  0.000  0.001  0.003  0.003
   36  0.000  0.000  0.000  0.000
   37  0.000  0.000  0.000  0.000
   38  0.000  0.002  0.000  0.002
   39  0.000  0.000  0.000  0.000
tot    0.299  0.043  0.351  0.693
 
band    15 # energy   -6.18477061 # occ.  2.00000000
 
ion      s      p      d    tot
    1  0.002  0.000  0.000  0.002
    2  0.001  0.000  0.002  0.003
    3  0.001  0.000  0.002  0.003
    4  0.001  0.000  0.002  0.003
    5  0.004  0.000  0.000  0.005
    6  0.001  0.000  0.002  0.003
    7  0.001  0.000  0.002  0.003
    8  0.001  0.000  0.002  0.003
    9  0.001  0.000  0.002  0.003
   10  0.000  0.000  0.008  0.008
   11  0.002  0.001  0.001  0.004
   12  0.000  0.000  0.008  0.008
   13  0.002  0.001  0.001  0.004
   14  0.002  0.001  0.001  0.004
   15  0.008  0.001  0.005  0.013
   16  0.000  0.000  0.008  0.008
   17  0.008  0.001  0.005  0.013
   18  0.008  0.001  0.005  0.013
   19  0.001  0.002  0.011  0.014
   20  0.001  0.000  0.026  0.028
   21  0.001  0.000  0.026  0.028
   22  0.008  0.002  0.020  0.030
   23  0.001  0.000  0.026  0.028
   24  0.008  0.002  0.020  0.030
   25  0.001  0.002  0.011  0.014
   26  0.001  0.002  0.011  0.014
   27  0.008  0.002  0.020  0.030
   28  0.034  0.000  0.017  0.051
   29  0.021  0.000  0.021  0.042
   30  0.021  0.000  0.021  0.042
   31  0.021  0.000  0.021  0.042
   32  0.021  0.000  0.021  0.042
   33  0.021  0.000  0.021  0.042
   34  0.021  0.000  0.021  0.042
   35  0.028  0.000  0.020  0.048
   36  0.001  0.002  0.029  0.031
   37  0.012  0.010  0.000  0.022
   38  0.001  0.002  0.000  0.002
   39  0.001  0.000  0.000  0.001
tot    0.274  0.032  0.417  0.724
 
band    16 # energy   -5.94363129 # occ.  2.00000000
 
ion      s      p      d    tot
    1  0.015  0.002  0.002  0.019
    2  0.000  0.001  0.009  0.009
    3  0.000  0.001  0.009  0.009
    4  0.000  0.001  0.009  0.009
    5  0.000  0.000  0.002  0.002
    6  0.000  0.001  0.009  0.009
    7  0.000  0.001  0.009  0.009
    8  0.000  0.001  0.009  0.009
    9  0.018  0.002  0.000  0.019
   10  0.011  0.002  0.014  0.026
   11  0.002  0.000  0.043  0.046
   12  0.011  0.002  0.014  0.026
   13  0.002  0.000  0.043  0.046
   14  0.002  0.000  0.043  0.046
   15  0.004  0.001  0.023  0.028
   16  0.011  0.002  0.014  0.026
   17  0.004  0.001  0.023  0.028
   18  0.004  0.001  0.023  0.028
   19  0.004  0.001  0.013  0.018
   20  0.001  0.000  0.050  0.051
   21  0.001  0.000  0.050  0.051
   22  0.011  0.001  0.019  0.030
   23  0.001  0.000  0.050  0.051
   24  0.011  0.001  0.019  0.030
   25  0.004  0.001  0.013  0.018
   26  0.004  0.001  0.013  0.018
   27  0.011  0.001  0.019  0.030
   28  0.009  0.001  0.001  0.011
   29  0.000  0.000  0.005  0.006
   30  0.000  0.000  0.005  0.006
   31  0.000  0.000  0.005  0.006
   32  0.000  0.000  0.005  0.006
   33  0.000  0.000  0.005  0.006
   34  0.000  0.000  0.005  0.006
   35  0.009  0.001  0.002  0.012
   36  0.000  0.000  0.001  0.001
   37  0.000  0.000  0.000  0.000
   38  0.000  0.000  0.000  0.000
   39  0.000  0.000  0.000  0.000
tot    0.150  0.028  0.576  0.754
 
band    17 # energy   -5.93161533 # occ.  2.00000000
 
ion      s      p      d    tot
    1  0.000  0.001  0.004  0.005
    2  0.000  0.001  0.005  0.006
    3  0.009  0.001  0.005  0.015
    4  0.000  0.001  0.005  0.006
    5  0.000  0.001  0.011  0.012
    6  0.005  0.001  0.004  0.010
    7  0.009  0.001  0.005  0.015
    8  0.005  0.001  0.004  0.010
    9  0.000  0.000  0.009  0.009
   10  0.000  0.001  0.052  0.053
   11  0.016  0.001  0.021  0.037
   12  0.007  0.002  0.019  0.028
   13  0.016  0.001  0.021  0.037
   14  0.000  0.000  0.049  0.049
   15  0.001  0.001  0.020  0.022
   16  0.007  0.002  0.019  0.028
   17  0.001  0.001  0.020  0.022
   18  0.000  0.001  0.010  0.012
   19  0.007  0.000  0.019  0.026
   20  0.000  0.000  0.072  0.072
   21  0.017  0.001  0.022  0.040
   22  0.002  0.001  0.019  0.022
   23  0.017  0.001  0.022  0.040
   24  0.000  0.001  0.032  0.033
   25  0.000  0.001  0.014  0.015
   26  0.007  0.000  0.019  0.026
   27  0.002  0.001  0.019  0.022
   28  0.000  0.000  0.008  0.008
   29  0.002  0.001  0.004  0.006
   30  0.010  0.001  0.004  0.015
   31  0.002  0.001  0.004  0.006
   32  0.003  0.001  0.004  0.008
   33  0.010  0.001  0.004  0.015
   34  0.003  0.001  0.004  0.008
   35  0.000  0.000  0.003  0.003
   36  0.000  0.002  0.002  0.004
   37  0.000  0.000  0.000  0.000
   38  0.000  0.001  0.000  0.001
   39  0.000  0.000  0.000  0.000
tot    0.159  0.032  0.555  0.747
 
band    18 # energy   -5.93159765 # occ.  2.00000000
 
ion      s      p      d    tot
    1  0.000  0.001  0.004  0.005
    2  0.009  0.001  0.004  0.014
    3  0.001  0.000  0.004  0.006
    4  0.009  0.001  0.004  0.014
    5  0.000  0.001  0.011  0.012
    6  0.004  0.001  0.005  0.010
    7  0.001  0.000  0.004  0.006
    8  0.004  0.001  0.005  0.010
    9  0.000  0.000  0.009  0.009
   10  0.010  0.002  0.008  0.020
   11  0.005  0.000  0.040  0.045
   12  0.003  0.001  0.041  0.044
   13  0.005  0.000  0.040  0.045
   14  0.021  0.001  0.011  0.034
   15  0.000  0.001  0.013  0.015
   16  0.002  0.001  0.041  0.044
   17  0.000  0.001  0.013  0.015
   18  0.002  0.000  0.023  0.025
   19  0.002  0.001  0.015  0.018
   20  0.023  0.002  0.006  0.030
   21  0.006  0.000  0.055  0.061
   22  0.001  0.001  0.027  0.029
   23  0.006  0.000  0.055  0.062
   24  0.003  0.001  0.015  0.018
   25  0.009  0.000  0.020  0.029
   26  0.002  0.001  0.015  0.018
   27  0.001  0.001  0.027  0.029
   28  0.000  0.000  0.008  0.008
   29  0.008  0.001  0.004  0.013
   30  0.000  0.001  0.004  0.005
   31  0.008  0.001  0.004  0.013
   32  0.007  0.001  0.004  0.011
   33  0.000  0.001  0.004  0.005
   34  0.006  0.001  0.004  0.011
   35  0.000  0.000  0.003  0.003
   36  0.000  0.002  0.002  0.004
   37  0.000  0.000  0.000  0.000
   38  0.000  0.001  0.000  0.001
   39  0.000  0.000  0.000  0.000
tot    0.159  0.032  0.555  0.747
 
band    19 # energy   -5.88298247 # occ.  2.00000000
 
ion      s      p      d    tot
    1  0.000  0.001  0.015  0.016
    2  0.010  0.001  0.005  0.016
    3  0.002  0.000  0.005  0.008
    4  0.010  0.001  0.005  0.016
    5  0.000  0.000  0.005  0.005
    6  0.003  0.001  0.006  0.010
    7  0.002  0.000  0.005  0.008
    8  0.003  0.001  0.006  0.010
    9  0.000  0.001  0.008  0.009
   10  0.000  0.001  0.028  0.029
   11  0.001  0.001  0.020  0.022
   12  0.007  0.000  0.023  0.030
   13  0.001  0.001  0.020  0.022
   14  0.000  0.001  0.020  0.021
   15  0.011  0.002  0.021  0.034
   16  0.007  0.000  0.023  0.030
   17  0.012  0.002  0.021  0.034
   18  0.000  0.000  0.065  0.065
   19  0.012  0.001  0.020  0.033
   20  0.000  0.002  0.018  0.020
   21  0.000  0.001  0.022  0.023
   22  0.018  0.001  0.021  0.039
   23  0.000  0.001  0.022  0.023
   24  0.000  0.000  0.035  0.035
   25  0.000  0.000  0.065  0.066
   26  0.013  0.001  0.019  0.033
   27  0.018  0.001  0.021  0.039
   28  0.000  0.001  0.004  0.005
   29  0.005  0.001  0.004  0.010
   30  0.000  0.000  0.004  0.005
   31  0.005  0.001  0.004  0.010
   32  0.003  0.001  0.002  0.006
   33  0.000  0.000  0.004  0.005
   34  0.003  0.001  0.002  0.006
   35  0.000  0.001  0.007  0.008
   36  0.000  0.000  0.001  0.001
   37  0.000  0.000  0.000  0.000
   38  0.000  0.000  0.000  0.000
   39  0.000  0.000  0.000  0.000
tot    0.149  0.029  0.573  0.751
 
band    20 # energy   -5.88297160 # occ.  2.00000000
 
ion      s      p      d    tot
    1  0.000  0.001  0.015  0.016
    2  0.000  0.000  0.006  0.006
    3  0.008  0.001  0.005  0.015
    4  0.000  0.000  0.006  0.006
    5  0.000  0.000  0.005  0.005
    6  0.007  0.001  0.005  0.013
    7  0.008  0.001  0.005  0.015
    8  0.007  0.001  0.005  0.013
    9  0.000  0.001  0.008  0.009
   10  0.009  0.000  0.021  0.030
   11  0.000  0.001  0.020  0.022
   12  0.002  0.001  0.026  0.029
   13  0.000  0.001  0.020  0.022
   14  0.001  0.001  0.019  0.022
   15  0.004  0.001  0.050  0.054
   16  0.002  0.001  0.026  0.029
   17  0.004  0.001  0.050  0.055
   18  0.015  0.002  0.006  0.024
   19  0.004  0.001  0.050  0.055
   20  0.000  0.000  0.023  0.024
   21  0.000  0.001  0.019  0.021
   22  0.006  0.001  0.030  0.037
   23  0.000  0.001  0.019  0.021
   24  0.024  0.001  0.016  0.041
   25  0.017  0.001  0.004  0.022
   26  0.004  0.001  0.050  0.055
   27  0.006  0.001  0.030  0.037
   28  0.000  0.001  0.004  0.005
   29  0.000  0.000  0.003  0.004
   30  0.006  0.001  0.003  0.009
   31  0.001  0.000  0.003  0.004
   32  0.003  0.001  0.005  0.008
   33  0.006  0.001  0.003  0.009
   34  0.003  0.001  0.005  0.008
   35  0.000  0.001  0.007  0.008
   36  0.000  0.000  0.001  0.001
   37  0.000  0.000  0.000  0.000
   38  0.000  0.000  0.000  0.000
   39  0.000  0.000  0.000  0.000