PROCAR new format
# of k-points:   10         # of bands:  252         # of ions:   37

 k-point     1 :    0.00000000 0.00000000 0.00000000     weight = 0.01562500

band     1 # energy   -8.96217493 # occ.  2.00000000
 
ion      s      p      d    tot
    1  0.001  0.000  0.000  0.001
    2  0.001  0.000  0.000  0.001
    3  0.001  0.000  0.000  0.001
    4  0.001  0.000  0.000  0.001
    5  0.001  0.000  0.000  0.001
    6  0.001  0.000  0.000  0.001
    7  0.001  0.000  0.000  0.001
    8  0.001  0.000  0.000  0.001
    9  0.001  0.000  0.000  0.001
   10  0.006  0.000  0.000  0.006
   11  0.006  0.000  0.000  0.006
   12  0.006  0.000  0.000  0.006
   13  0.006  0.000  0.000  0.006
   14  0.006  0.000  0.000  0.006
   15  0.005  0.000  0.000  0.005
   16  0.006  0.000  0.000  0.006
   17  0.005  0.000  0.000  0.005
   18  0.005  0.000  0.000  0.005
   19  0.008  0.000  0.000  0.008
   20  0.015  0.000  0.001  0.016
   21  0.015  0.000  0.001  0.016
   22  0.008  0.000  0.000  0.008
   23  0.015  0.000  0.001  0.016
   24  0.008  0.000  0.000  0.008
   25  0.008  0.000  0.000  0.008
   26  0.008  0.000  0.000  0.008
   27  0.008  0.000  0.000  0.008
   28  0.003  0.000  0.000  0.003
   29  0.007  0.000  0.001  0.009
   30  0.007  0.000  0.001  0.009
   31  0.007  0.000  0.001  0.009
   32  0.007  0.000  0.001  0.009
   33  0.007  0.000  0.001  0.009
   34  0.007  0.000  0.001  0.009
   35  0.003  0.000  0.000  0.003
   36  0.074  0.026  0.065  0.165
   37  0.273  0.012  0.000  0.284
tot    0.552  0.043  0.076  0.670
 
band     2 # energy   -8.57139123 # occ.  2.00000000
 
ion      s      p      d    tot
    1  0.006  0.000  0.000  0.007
    2  0.006  0.000  0.000  0.007
    3  0.006  0.000  0.000  0.007
    4  0.006  0.000  0.000  0.007
    5  0.006  0.000  0.000  0.007
    6  0.006  0.000  0.000  0.007
    7  0.006  0.000  0.000  0.007
    8  0.006  0.000  0.000  0.007
    9  0.006  0.000  0.000  0.007
   10  0.022  0.000  0.000  0.022
   11  0.023  0.000  0.000  0.023
   12  0.022  0.000  0.000  0.022
   13  0.023  0.000  0.000  0.023
   14  0.023  0.000  0.000  0.023
   15  0.023  0.000  0.000  0.023
   16  0.022  0.000  0.000  0.022
   17  0.023  0.000  0.000  0.023
   18  0.023  0.000  0.000  0.023
   19  0.014  0.000  0.000  0.015
   20  0.012  0.001  0.001  0.013
   21  0.012  0.001  0.001  0.013
   22  0.016  0.000  0.000  0.016
   23  0.012  0.001  0.001  0.013
   24  0.016  0.000  0.000  0.016
   25  0.014  0.000  0.000  0.015
   26  0.014  0.000  0.000  0.015
   27  0.016  0.000  0.000  0.016
   28  0.002  0.000  0.000  0.002
   29  0.000  0.001  0.001  0.002
   30  0.000  0.001  0.001  0.002
   31  0.000  0.001  0.001  0.002
   32  0.000  0.001  0.001  0.002
   33  0.000  0.001  0.001  0.002
   34  0.000  0.001  0.001  0.002
   35  0.002  0.000  0.000  0.002
   36  0.018  0.020  0.032  0.069
   37  0.135  0.005  0.000  0.140
tot    0.546  0.037  0.044  0.627
 
band     3 # energy   -7.44036023 # occ.  2.00000000
 
ion      s      p      d    tot
    1  0.017  0.000  0.001  0.019
    2  0.017  0.000  0.001  0.018
    3  0.017  0.000  0.001  0.018
    4  0.017  0.000  0.001  0.018
    5  0.016  0.000  0.001  0.018
    6  0.017  0.000  0.001  0.018
    7  0.017  0.000  0.001  0.018
    8  0.017  0.000  0.001  0.018
    9  0.016  0.000  0.001  0.018
   10  0.009  0.002  0.002  0.013
   11  0.008  0.002  0.003  0.013
   12  0.009  0.002  0.002  0.013
   13  0.008  0.002  0.003  0.013
   14  0.008  0.002  0.003  0.013
   15  0.008  0.002  0.003  0.012
   16  0.009  0.002  0.002  0.013
   17  0.008  0.002  0.003  0.012
   18  0.008  0.002  0.003  0.012
   19  0.017  0.001  0.005  0.022
   20  0.015  0.001  0.006  0.022
   21  0.015  0.001  0.006  0.022
   22  0.019  0.001  0.004  0.024
   23  0.015  0.001  0.006  0.022
   24  0.019  0.001  0.004  0.024
   25  0.017  0.001  0.005  0.022
   26  0.017  0.001  0.005  0.022
   27  0.019  0.001  0.004  0.024
   28  0.012  0.001  0.000  0.013
   29  0.009  0.001  0.001  0.011
   30  0.009  0.001  0.001  0.011
   31  0.009  0.001  0.001  0.011
   32  0.009  0.001  0.001  0.011
   33  0.009  0.001  0.001  0.011
   34  0.009  0.001  0.001  0.011
   35  0.012  0.001  0.000  0.013
   36  0.000  0.005  0.007  0.012
   37  0.020  0.000  0.000  0.021
tot    0.480  0.037  0.092  0.609
 
band     4 # energy   -6.57656036 # occ.  2.00000000
 
ion      s      p      d    tot
    1  0.001  0.000  0.012  0.013
    2  0.007  0.000  0.009  0.016
    3  0.007  0.000  0.009  0.016
    4  0.007  0.000  0.009  0.016
    5  0.001  0.000  0.006  0.007
    6  0.007  0.000  0.009  0.016
    7  0.007  0.000  0.009  0.016
    8  0.007  0.000  0.009  0.016
    9  0.031  0.001  0.002  0.034
   10  0.009  0.001  0.022  0.031
   11  0.019  0.003  0.009  0.030
   12  0.009  0.001  0.022  0.031
   13  0.019  0.003  0.009  0.030
   14  0.018  0.003  0.009  0.030
   15  0.009  0.001  0.018  0.029
   16  0.009  0.001  0.022  0.031
   17  0.009  0.001  0.018  0.029
   18  0.009  0.001  0.018  0.029
   19  0.001  0.001  0.017  0.018
   20  0.022  0.002  0.012  0.036
   21  0.021  0.002  0.012  0.035
   22  0.010  0.002  0.004  0.016
   23  0.021  0.002  0.012  0.035
   24  0.010  0.002  0.004  0.016
   25  0.001  0.001  0.017  0.018
   26  0.001  0.001  0.017  0.018
   27  0.010  0.002  0.004  0.016
   28  0.006  0.000  0.000  0.006
   29  0.002  0.000  0.005  0.007
   30  0.002  0.000  0.005  0.007
   31  0.002  0.000  0.005  0.007
   32  0.002  0.000  0.005  0.007
   33  0.002  0.000  0.005  0.007
   34  0.002  0.000  0.005  0.007
   35  0.010  0.000  0.000  0.011
   36  0.001  0.002  0.001  0.004
   37  0.000  0.000  0.000  0.000
tot    0.310  0.035  0.350  0.695
 
band     5 # energy   -6.55974168 # occ.  2.00000000
 
ion      s      p      d    tot
    1  0.000  0.000  0.006  0.007
    2  0.002  0.000  0.003  0.005
    3  0.002  0.001  0.003  0.006
    4  0.002  0.001  0.003  0.005
    5  0.000  0.001  0.008  0.009
    6  0.007  0.001  0.003  0.012
    7  0.002  0.001  0.003  0.006
    8  0.007  0.001  0.003  0.012
    9  0.000  0.000  0.001  0.002
   10  0.023  0.002  0.005  0.030
   11  0.014  0.002  0.027  0.043
   12  0.006  0.001  0.024  0.031
   13  0.015  0.002  0.026  0.043
   14  0.058  0.001  0.009  0.068
   15  0.002  0.003  0.005  0.010
   16  0.006  0.001  0.025  0.031
   17  0.002  0.003  0.005  0.010
   18  0.008  0.000  0.014  0.022
   19  0.001  0.003  0.005  0.009
   20  0.057  0.001  0.011  0.069
   21  0.015  0.003  0.025  0.042
   22  0.007  0.001  0.026  0.034
   23  0.014  0.003  0.025  0.041
   24  0.028  0.002  0.003  0.033
   25  0.003  0.000  0.013  0.016
   26  0.001  0.003  0.005  0.009
   27  0.007  0.000  0.027  0.034
   28  0.000  0.000  0.001  0.001
   29  0.007  0.001  0.004  0.012
   30  0.001  0.001  0.003  0.005
   31  0.007  0.001  0.004  0.012
   32  0.003  0.001  0.002  0.006
   33  0.001  0.000  0.003  0.004
   34  0.003  0.001  0.002  0.006
   35  0.000  0.000  0.005  0.006
   36  0.000  0.002  0.002  0.003
   37  0.000  0.000  0.000  0.000
tot    0.308  0.043  0.342  0.693
 
band     6 # energy   -6.55972565 # occ.  2.00000000
 
ion      s      p      d    tot
    1  0.000  0.000  0.006  0.007
    2  0.005  0.001  0.004  0.010
    3  0.005  0.001  0.003  0.009
    4  0.005  0.001  0.004  0.010
    5  0.000  0.001  0.008  0.009
    6  0.000  0.000  0.003  0.003
    7  0.005  0.001  0.003  0.009
    8  0.000  0.000  0.003  0.003
    9  0.000  0.000  0.001  0.002
   10  0.000  0.000  0.031  0.031
   11  0.044  0.001  0.015  0.060
   12  0.017  0.001  0.012  0.030
   13  0.043  0.002  0.015  0.059
   14  0.000  0.002  0.032  0.035
   15  0.006  0.001  0.011  0.018
   16  0.017  0.001  0.011  0.030
   17  0.006  0.001  0.011  0.018
   18  0.000  0.004  0.002  0.006
   19  0.002  0.001  0.010  0.014
   20  0.000  0.003  0.029  0.032
   21  0.042  0.002  0.016  0.059
   22  0.021  0.001  0.012  0.034
   23  0.043  0.002  0.015  0.060
   24  0.000  0.000  0.035  0.035
   25  0.000  0.004  0.003  0.007
   26  0.002  0.001  0.010  0.014
   27  0.021  0.001  0.011  0.034
   28  0.000  0.000  0.001  0.001
   29  0.000  0.000  0.002  0.003
   30  0.006  0.001  0.003  0.010
   31  0.000  0.000  0.002  0.003
   32  0.004  0.001  0.004  0.009
   33  0.007  0.001  0.003  0.010
   34  0.004  0.001  0.004  0.009
   35  0.000  0.000  0.005  0.006
   36  0.000  0.002  0.002  0.003
   37  0.000  0.000  0.000  0.000
tot    0.308  0.043  0.342  0.693
 
band     7 # energy   -6.55221393 # occ.  2.00000000
 
ion      s      p      d    tot
    1  0.021  0.000  0.011  0.031
    2  0.014  0.000  0.016  0.029
    3  0.014  0.000  0.016  0.029
    4  0.014  0.000  0.016  0.029
    5  0.022  0.000  0.014  0.036
    6  0.014  0.000  0.016  0.030
    7  0.014  0.000  0.016  0.029
    8  0.014  0.000  0.016  0.030
    9  0.004  0.001  0.019  0.023
   10  0.003  0.000  0.031  0.034
   11  0.001  0.001  0.026  0.027
   12  0.003  0.000  0.031  0.034
   13  0.001  0.001  0.026  0.027
   14  0.001  0.001  0.026  0.027
   15  0.026  0.001  0.017  0.044
   16  0.003  0.000  0.031  0.034
   17  0.026  0.001  0.017  0.044
   18  0.027  0.001  0.017  0.044
   19  0.000  0.000  0.013  0.013
   20  0.012  0.000  0.008  0.021
   21  0.012  0.000  0.008  0.021
   22  0.001  0.001  0.009  0.011
   23  0.012  0.000  0.008  0.021
   24  0.001  0.001  0.009  0.011
   25  0.000  0.000  0.013  0.013
   26  0.000  0.000  0.013  0.013
   27  0.001  0.001  0.009  0.011
   28  0.000  0.000  0.000  0.000
   29  0.000  0.000  0.001  0.002
   30  0.000  0.000  0.001  0.002
   31  0.000  0.000  0.001  0.002
   32  0.000  0.000  0.001  0.002
   33  0.000  0.000  0.001  0.002
   34  0.000  0.000  0.001  0.002
   35  0.001  0.000  0.000  0.001
   36  0.001  0.001  0.000  0.002
   37  0.001  0.000  0.000  0.001
tot    0.261  0.016  0.454  0.731
 
band     8 # energy   -6.53155150 # occ.  2.00000000
 
ion      s      p      d    tot
    1  0.011  0.001  0.001  0.013
    2  0.000  0.001  0.006  0.006
    3  0.000  0.001  0.006  0.006
    4  0.000  0.001  0.006  0.006
    5  0.012  0.002  0.002  0.015
    6  0.000  0.001  0.006  0.006
    7  0.000  0.001  0.006  0.006
    8  0.000  0.001  0.006  0.006
    9  0.000  0.000  0.001  0.001
   10  0.026  0.003  0.003  0.032
   11  0.019  0.000  0.023  0.043
   12  0.026  0.003  0.003  0.032
   13  0.019  0.000  0.023  0.043
   14  0.019  0.000  0.023  0.043
   15  0.000  0.001  0.020  0.022
   16  0.026  0.003  0.003  0.032
   17  0.000  0.001  0.020  0.022
   18  0.000  0.001  0.020  0.022
   19  0.028  0.003  0.003  0.033
   20  0.002  0.002  0.022  0.026
   21  0.002  0.002  0.022  0.025
   22  0.011  0.000  0.026  0.038
   23  0.002  0.002  0.022  0.025
   24  0.011  0.000  0.026  0.038
   25  0.028  0.003  0.003  0.033
   26  0.028  0.003  0.003  0.033
   27  0.011  0.000  0.026  0.038
   28  0.009  0.001  0.001  0.011
   29  0.000  0.000  0.004  0.004
   30  0.000  0.000  0.004  0.004
   31  0.000  0.000  0.004  0.004
   32  0.000  0.000  0.004  0.004
   33  0.000  0.000  0.004  0.004
   34  0.000  0.000  0.004  0.004
   35  0.006  0.001  0.002  0.009
   36  0.000  0.000  0.000  0.000
   37  0.000  0.000  0.000  0.000
tot    0.299  0.041  0.355  0.695
 
band     9 # energy   -6.50543981 # occ.  2.00000000
 
ion      s      p      d    tot
    1  0.000  0.001  0.005  0.006
    2  0.003  0.001  0.004  0.008
    3  0.003  0.001  0.003  0.007
    4  0.008  0.001  0.004  0.014
    5  0.000  0.000  0.003  0.003
    6  0.001  0.001  0.003  0.005
    7  0.008  0.001  0.004  0.014
    8  0.001  0.000  0.004  0.005
    9  0.000  0.001  0.011  0.012
   10  0.033  0.001  0.014  0.048
   11  0.001  0.001  0.013  0.015
   12  0.001  0.004  0.010  0.015
   13  0.000  0.002  0.015  0.018
   14  0.001  0.001  0.012  0.014
   15  0.036  0.001  0.020  0.056
   16  0.025  0.002  0.013  0.040
   17  0.001  0.000  0.046  0.047
   18  0.048  0.002  0.010  0.060
   19  0.030  0.002  0.016  0.047
   20  0.004  0.001  0.011  0.016
   21  0.000  0.001  0.018  0.020
   22  0.000  0.004  0.010  0.014
   23  0.003  0.001  0.013  0.017
   24  0.022  0.001  0.013  0.036
   25  0.041  0.002  0.009  0.051
   26  0.001  0.001  0.036  0.037
   27  0.016  0.002  0.013  0.030
   28  0.000  0.001  0.006  0.007
   29  0.001  0.000  0.002  0.003
   30  0.004  0.001  0.002  0.007
   31  0.001  0.000  0.002  0.002
   32  0.004  0.001  0.003  0.008
   33  0.002  0.000  0.002  0.004
   34  0.002  0.000  0.003  0.005
   35  0.000  0.001  0.002  0.003
   36  0.000  0.000  0.001  0.001
   37  0.000  0.000  0.000  0.000
tot    0.299  0.042  0.353  0.694
 
band    10 # energy   -6.50543893 # occ.  2.00000000
 
ion      s      p      d    tot
    1  0.000  0.001  0.005  0.006
    2  0.005  0.001  0.003  0.010
    3  0.005  0.001  0.004  0.010
    4  0.000  0.000  0.003  0.004
    5  0.000  0.000  0.003  0.003
    6  0.007  0.001  0.004  0.012
    7  0.000  0.000  0.003  0.004
    8  0.007  0.001  0.004  0.012
    9  0.000  0.001  0.011  0.012
   10  0.006  0.004  0.011  0.020
   11  0.001  0.002  0.014  0.016
   12  0.039  0.000  0.015  0.054
   13  0.001  0.001  0.011  0.013
   14  0.000  0.002  0.015  0.017
   15  0.021  0.001  0.031  0.052
   16  0.014  0.003  0.012  0.029
   17  0.055  0.002  0.004  0.062
   18  0.008  0.001  0.040  0.049
   19  0.018  0.001  0.024  0.043
   20  0.001  0.001  0.017  0.019
   21  0.005  0.001  0.010  0.015
   22  0.025  0.000  0.014  0.039
   23  0.002  0.001  0.015  0.018
   24  0.004  0.004  0.010  0.018
   25  0.007  0.001  0.031  0.039
   26  0.047  0.002  0.004  0.053
   27  0.009  0.003  0.011  0.023
   28  0.000  0.001  0.006  0.007
   29  0.004  0.001  0.002  0.006
   30  0.000  0.000  0.002  0.002
   31  0.004  0.001  0.003  0.007
   32  0.000  0.000  0.002  0.002
   33  0.003  0.001  0.003  0.006
   34  0.003  0.001  0.002  0.005
   35  0.000  0.001  0.002  0.003
   36  0.000  0.000  0.001  0.001
   37  0.000  0.000  0.000  0.000
tot    0.299  0.042  0.353  0.694
 
band    11 # energy   -6.34885940 # occ.  2.00000000
 
ion      s      p      d    tot
    1  0.002  0.000  0.000  0.002
    2  0.001  0.000  0.001  0.002
    3  0.001  0.000  0.001  0.002
    4  0.001  0.000  0.001  0.002
    5  0.003  0.000  0.000  0.004
    6  0.001  0.000  0.001  0.002
    7  0.001  0.000  0.001  0.002
    8  0.001  0.000  0.001  0.002
    9  0.000  0.000  0.001  0.002
   10  0.000  0.000  0.005  0.005
   11  0.001  0.001  0.001  0.003
   12  0.000  0.000  0.005  0.005
   13  0.001  0.001  0.001  0.003
   14  0.001  0.001  0.001  0.003
   15  0.005  0.001  0.004  0.009
   16  0.000  0.000  0.005  0.005
   17  0.005  0.001  0.004  0.009
   18  0.005  0.001  0.004  0.009
   19  0.002  0.001  0.014  0.018
   20  0.002  0.000  0.028  0.030
   21  0.002  0.000  0.028  0.030
   22  0.008  0.002  0.022  0.032
   23  0.002  0.000  0.028  0.030
   24  0.008  0.002  0.022  0.032
   25  0.002  0.001  0.014  0.018
   26  0.002  0.001  0.014  0.018
   27  0.008  0.002  0.022  0.032
   28  0.033  0.000  0.020  0.053
   29  0.024  0.000  0.022  0.046
   30  0.024  0.000  0.022  0.046
   31  0.024  0.000  0.022  0.046
   32  0.024  0.000  0.022  0.046
   33  0.024  0.000  0.022  0.046
   34  0.024  0.000  0.022  0.046
   35  0.029  0.000  0.022  0.052
   36  0.000  0.001  0.016  0.017
   37  0.009  0.000  0.000  0.010
tot    0.280  0.017  0.421  0.718
 
band    12 # energy   -6.07957797 # occ.  2.00000000
 
ion      s      p      d    tot
    1  0.014  0.002  0.002  0.018
    2  0.000  0.001  0.008  0.009
    3  0.000  0.001  0.008  0.009
    4  0.000  0.001  0.008  0.009
    5  0.000  0.000  0.002  0.002
    6  0.000  0.001  0.008  0.009
    7  0.000  0.001  0.008  0.009
    8  0.000  0.001  0.008  0.009
    9  0.017  0.002  0.000  0.019
   10  0.011  0.001  0.015  0.027
   11  0.002  0.000  0.045  0.048
   12  0.011  0.001  0.015  0.027
   13  0.002  0.000  0.045  0.048
   14  0.002  0.000  0.045  0.047
   15  0.004  0.001  0.022  0.027
   16  0.011  0.001  0.015  0.027
   17  0.004  0.001  0.022  0.027
   18  0.004  0.001  0.022  0.027
   19  0.004  0.001  0.013  0.018
   20  0.001  0.000  0.052  0.053
   21  0.001  0.000  0.052  0.053
   22  0.010  0.001  0.018  0.030
   23  0.001  0.000  0.052  0.053
   24  0.010  0.001  0.018  0.030
   25  0.004  0.001  0.013  0.018
   26  0.004  0.001  0.013  0.018
   27  0.010  0.001  0.018  0.030
   28  0.009  0.001  0.001  0.011
   29  0.000  0.000  0.005  0.006
   30  0.000  0.000  0.005  0.006
   31  0.000  0.000  0.005  0.006
   32  0.000  0.000  0.005  0.006
   33  0.000  0.000  0.005  0.006
   34  0.000  0.000  0.005  0.006
   35  0.008  0.001  0.002  0.011
   36  0.000  0.000  0.001  0.001
   37  0.000  0.000  0.000  0.000
tot    0.147  0.027  0.582  0.756
 
band    13 # energy   -6.07173720 # occ.  2.00000000
 
ion      s      p      d    tot
    1  0.000  0.001  0.004  0.005
    2  0.001  0.001  0.005  0.006
    3  0.009  0.001  0.005  0.015
    4  0.001  0.001  0.005  0.006
    5  0.000  0.001  0.011  0.012
    6  0.005  0.001  0.004  0.009
    7  0.009  0.001  0.005  0.015
    8  0.005  0.001  0.004  0.009
    9  0.000  0.000  0.008  0.009
   10  0.000  0.001  0.050  0.051
   11  0.017  0.001  0.021  0.038
   12  0.007  0.002  0.019  0.027
   13  0.017  0.001  0.021  0.038
   14  0.000  0.000  0.051  0.051
   15  0.002  0.000  0.020  0.022
   16  0.007  0.002  0.019  0.027
   17  0.002  0.000  0.020  0.022
   18  0.000  0.001  0.010  0.012
   19  0.006  0.000  0.018  0.024
   20  0.000  0.000  0.072  0.072
   21  0.017  0.001  0.023  0.040
   22  0.003  0.001  0.019  0.023
   23  0.017  0.001  0.023  0.040
   24  0.000  0.001  0.033  0.034
   25  0.000  0.001  0.013  0.014
   26  0.006  0.000  0.018  0.024
   27  0.003  0.001  0.019  0.023
   28  0.000  0.000  0.008  0.008
   29  0.002  0.001  0.004  0.007
   30  0.010  0.001  0.004  0.015
   31  0.002  0.001  0.004  0.007
   32  0.003  0.001  0.004  0.008
   33  0.010  0.001  0.004  0.015
   34  0.003  0.001  0.004  0.008
   35  0.000  0.000  0.003  0.003
   36  0.000  0.002  0.002  0.004
   37  0.000  0.000  0.000  0.000
tot    0.161  0.032  0.553  0.746
 
band    14 # energy   -6.07171706 # occ.  2.00000000
 
ion      s      p      d    tot
    1  0.000  0.001  0.004  0.005
    2  0.009  0.001  0.004  0.014
    3  0.001  0.000  0.004  0.005
    4  0.009  0.001  0.004  0.014
    5  0.000  0.001  0.011  0.012
    6  0.005  0.001  0.005  0.011
    7  0.001  0.000  0.004  0.005
    8  0.005  0.001  0.005  0.011
    9  0.000  0.000  0.008  0.009
   10  0.010  0.002  0.008  0.020
   11  0.006  0.000  0.041  0.047
   12  0.002  0.001  0.040  0.043
   13  0.006  0.000  0.041  0.047
   14  0.022  0.001  0.011  0.034
   15  0.001  0.001  0.013  0.015
   16  0.002  0.001  0.040  0.043
   17  0.001  0.001  0.013  0.015
   18  0.002  0.000  0.023  0.025
   19  0.002  0.001  0.015  0.017
   20  0.022  0.002  0.006  0.030
   21  0.006  0.000  0.055  0.061
   22  0.001  0.001  0.028  0.030
   23  0.006  0.000  0.056  0.061
   24  0.003  0.001  0.014  0.019
   25  0.008  0.000  0.020  0.028
   26  0.002  0.001  0.015  0.017
   27  0.001  0.001  0.028  0.030
   28  0.000  0.000  0.008  0.008
   29  0.008  0.001  0.004  0.013
   30  0.000  0.000  0.004  0.005
   31  0.008  0.001  0.004  0.013
   32  0.007  0.001  0.004  0.012
   33  0.000  0.000  0.004  0.005
   34  0.007  0.001  0.004  0.012
   35  0.000  0.000  0.003  0.003
   36  0.000  0.002  0.002  0.004
   37  0.000  0.000  0.000  0.000
tot    0.161  0.032  0.553  0.746
 
band    15 # energy   -6.01915728 # occ.  2.00000000
 
ion      s      p      d    tot
    1  0.010  0.000  0.001  0.011
    2  0.000  0.001  0.009  0.009
    3  0.000  0.001  0.009  0.009
    4  0.000  0.001  0.009  0.009
    5  0.018  0.002  0.001  0.020
    6  0.000  0.001  0.009  0.009
    7  0.000  0.001  0.009  0.009
    8  0.000  0.001  0.009  0.009
    9  0.002  0.000  0.002  0.004
   10  0.000  0.000  0.040  0.041
   11  0.007  0.001  0.011  0.019
   12  0.000  0.000  0.040  0.041
   13  0.007  0.001  0.011  0.019
   14  0.007  0.001  0.011  0.019
   15  0.006  0.001  0.028  0.034
   16  0.000  0.000  0.040  0.041
   17  0.006  0.001  0.028  0.034
   18  0.006  0.001  0.028  0.034
   19  0.010  0.000  0.042  0.053
   20  0.009  0.002  0.006  0.017
   21  0.009  0.002  0.006  0.017
   22  0.001  0.000  0.037  0.038
   23  0.009  0.002  0.006  0.017
   24  0.001  0.000  0.037  0.038
   25  0.010  0.000  0.043  0.053
   26  0.010  0.000  0.042  0.053
   27  0.001  0.000  0.037  0.038
   28  0.000  0.001  0.008  0.009
   29  0.001  0.000  0.006  0.007
   30  0.001  0.000  0.006  0.007
   31  0.001  0.000  0.006  0.007
   32  0.001  0.000  0.006  0.007
   33  0.001  0.000  0.006  0.007
   34  0.001  0.000  0.006  0.007
   35  0.001  0.000  0.001  0.002
   36  0.004  0.004  0.000  0.008
   37  0.004  0.000  0.000  0.004
tot    0.140  0.028  0.594  0.761
 
band    16 # energy   -6.01471089 # occ.  2.00000000
 
ion      s      p      d    tot
    1  0.000  0.001  0.014  0.015
    2  0.010  0.001  0.005  0.016
    3  0.002  0.000  0.005  0.007
    4  0.010  0.001  0.005  0.016
    5  0.000  0.000  0.005  0.005
    6  0.003  0.001  0.005  0.010
    7  0.002  0.000  0.005  0.007
    8  0.004  0.001  0.005  0.010
    9  0.000  0.001  0.007  0.008
   10  0.000  0.001  0.029  0.030
   11  0.001  0.001  0.020  0.022
   12  0.007  0.000  0.022  0.030
   13  0.001  0.001  0.020  0.022
   14  0.000  0.001  0.019  0.021
   15  0.011  0.002  0.021  0.034
   16  0.007  0.000  0.022  0.030
   17  0.011  0.002  0.020  0.034
   18  0.000  0.000  0.065  0.065
   19  0.013  0.001  0.020  0.034
   20  0.000  0.002  0.020  0.022
   21  0.000  0.001  0.023  0.023
   22  0.018  0.001  0.021  0.039
   23  0.000  0.001  0.023  0.023
   24  0.000  0.000  0.033  0.034
   25  0.000  0.000  0.066  0.067
   26  0.013  0.001  0.020  0.034
   27  0.018  0.001  0.021  0.039
   28  0.000  0.001  0.005  0.005
   29  0.005  0.001  0.004  0.010
   30  0.000  0.000  0.004  0.005
   31  0.005  0.001  0.004  0.010
   32  0.003  0.001  0.002  0.006
   33  0.000  0.000  0.004  0.005
   34  0.003  0.001  0.002  0.006
   35  0.000  0.001  0.007  0.008
   36  0.000  0.000  0.000  0.001
   37  0.000  0.000  0.000  0.000
tot    0.148  0.029  0.576  0.752
 
band    17 # energy   -6.01470119 # occ.  2.00000000
 
ion      s      p      d    tot
    1  0.000  0.001  0.014  0.015
    2  0.000  0.000  0.005  0.006
    3  0.008  0.001  0.005  0.015
    4  0.000  0.000  0.005  0.006
    5  0.000  0.000  0.005  0.005
    6  0.007  0.001  0.005  0.012
    7  0.008  0.001  0.005  0.015
    8  0.007  0.001  0.005  0.012
    9  0.000  0.001  0.007  0.008
   10  0.010  0.000  0.020  0.030
   11  0.000  0.001  0.020  0.021
   12  0.002  0.001  0.027  0.030
   13  0.000  0.001  0.020  0.021
   14  0.001  0.001  0.020  0.022
   15  0.004  0.001  0.050  0.054
   16  0.002  0.001  0.027  0.030
   17  0.004  0.001  0.050  0.055
   18  0.015  0.002  0.006  0.023
   19  0.004  0.001  0.051  0.056
   20  0.000  0.000  0.023  0.024
   21  0.000  0.001  0.021  0.022
   22  0.006  0.001  0.029  0.035
   23  0.000  0.001  0.021  0.022
   24  0.024  0.001  0.017  0.041
   25  0.017  0.001  0.004  0.023
   26  0.004  0.001  0.051  0.056
   27  0.006  0.001  0.029  0.035
   28  0.000  0.001  0.005  0.005
   29  0.001  0.000  0.003  0.004
   30  0.006  0.001  0.003  0.009
   31  0.001  0.000  0.003  0.004
   32  0.002  0.001  0.005  0.008
   33  0.006  0.001  0.003  0.009
   34  0.002  0.001  0.005  0.008
   35  0.000  0.001  0.007  0.008
   36  0.000  0.000  0.000  0.001
   37  0.000  0.000  0.000  0.000
tot    0.148  0.028  0.576  0.752
 
band    18 # energy   -5.69090582 # occ.  2.00000000
 
ion      s      p      d    tot
    1  0.000  0.000  0.014  0.015
    2  0.000  0.000  0.010  0.011
    3  0.005  0.000  0.014  0.019
    4  0.000  0.000  0.010  0.011
    5  0.000  0.000  0.026  0.027
    6  0.007  0.001  0.009  0.016
    7  0.005  0.000  0.014  0.019
    8  0.007  0.001  0.009  0.016
    9  0.000  0.001  0.006  0.007
   10  0.000  0.000  0.017  0.017
   11  0.000  0.000  0.050  0.050
   12  0.000  0.000  0.010  0.011
   13  0.000  0.000  0.050  0.050
   14  0.000  0.000  0.047  0.047
   15  0.000  0.000  0.024  0.024
   16  0.000  0.000  0.010  0.011
   17  0.000  0.000  0.024  0.024
   18  0.000  0.000  0.041  0.042
   19  0.000  0.000  0.011  0.011
   20  0.001  0.000  0.059  0.060
   21  0.000  0.000  0.043  0.044
   22  0.000  0.000  0.035  0.035
   23  0.000  0.000  0.044  0.044
   24  0.000  0.000  0.032  0.033
   25  0.001  0.000  0.013  0.013
   26  0.000  0.000  0.011  0.011
   27  0.000  0.000  0.035  0.035
   28  0.000  0.000  0.012  0.013
   29  0.008  0.001  0.012  0.021
   30  0.000  0.001  0.009  0.009
   31  0.008  0.001  0.012  0.021
   32  0.009  0.001  0.006  0.016
   33  0.000  0.001  0.009  0.010
   34  0.009  0.001  0.006  0.016
   35  0.000  0.000  0.017  0.018
   36  0.000  0.002  0.001  0.003
   37  0.000  0.000  0.000  0.000
tot    0.062  0.015  0.751  0.828
 
band    19 # energy   -5.69089849 # occ.  2.00000000
 
ion      s      p      d    tot
    1  0.000  0.000  0.014  0.015
    2  0.008  0.000  0.012  0.020
    3  0.003  0.001  0.008  0.011
    4  0.008  0.000  0.012  0.020
    5  0.000  0.000  0.026  0.027
    6  0.001  0.000  0.013  0.014
    7  0.003  0.001  0.008  0.011
    8  0.001  0.000  0.013  0.014
    9  0.000  0.001  0.006  0.007
   10  0.000  0.000  0.008  0.009
   11  0.000  0.000  0.048  0.048
   12  0.000  0.000  0.015  0.015
   13  0.000  0.000  0.048  0.048
   14  0.000  0.000  0.051  0.051
   15  0.000  0.000  0.036  0.036
   16  0.000  0.000  0.014  0.015
   17  0.000  0.000  0.036  0.036
   18  0.000  0.000  0.018  0.018
   19  0.000  0.000  0.012  0.013
   20  0.000  0.000  0.039  0.039
   21  0.001  0.000  0.054  0.054
   22  0.000  0.000  0.033  0.034
   23  0.001  0.000  0.053  0.054
   24  0.000  0.000  0.036  0.036
   25  0.000  0.000  0.010  0.010
   26  0.000  0.000  0.012  0.013
   27  0.000  0.000  0.033  0.034
   28  0.000  0.000  0.012  0.013
   29  0.003  0.001  0.006  0.010
   30  0.011  0.001  0.009  0.021
   31  0.003  0.001  0.006  0.010
   32  0.002  0.001  0.012  0.015
   33  0.011  0.001  0.009  0.021
   34  0.002  0.001  0.012  0.015
   35  0.000  0.000  0.017  0.018
   36  0.000  0.002  0.001  0.003
   37  0.000  0.000  0.000  0.000
tot    0.062  0.015  0.751  0.828
 
band    20 # energy   -5.66874469 # occ.  2.00000000
 
ion      s      p      d    tot
    1  0.013  0.000  0.005  0.019
    2  0.000  0.001  0.011  0.012
    3  0.000  0.001  0.011  0.012
    4  0.000  0.001  0.011  0.012
    5  0.000  0.000  0.013  0.014
    6  0.000  0.001  0.011  0.012
    7  0.000  0.001  0.011  0.012
    8  0.000  0.001  0.011  0.012
    9  0.010  0.001  0.001  0.012
   10  0.000  0.000  0.028  0.028
   11  0.000  0.000  0.049  0.050
   12  0.000  0.000  0.027  0.028
   13  0.000  0.000  0.049  0.050
   14  0.000  0.000  0.049  0.049
   15  0.000  0.000  0.033  0.034
   16  0.000  0.000  0.027  0.028
   17  0.000  0.000  0.033  0.034
   18  0.000  0.000  0.033  0.034
   19  0.000  0.000  0.022  0.022
   20  0.001  0.000  0.043  0.044
   21  0.001  0.000  0.043  0.044
   22  0.001  0.000  0.029  0.030
   23  0.001  0.000  0.043  0.044
   24  0.001  0.000  0.029  0.030
   25  0.000  0.000  0.022  0.022
   26  0.000  0.000  0.022  0.022
   27  0.001  0.000  0.029  0.030
   28  0.007  0.001  0.000  0.008
   29  0.000  0.001  0.011  0.011
   30  0.000  0.001  0.011  0.011
   31  0.000  0.001  0.011  0.011
   32  0.000  0.001  0.011  0.011
   33  0.000  0.001  0.011  0.011
   34  0.000  0.001  0.011  0.011
   35  0.011  0.001  0.002  0.014
   36  0.000  0.000  0.003  0.004
   37  0.000  0.000  0.000  0.000
tot    0.049  0.014  0.770  0.832
 
band    21 # energy   -5.65634705 # occ.  2.00000000
 
ion      s      p      d    tot
    1  0.003  0.001  0.006  0.009
    2  0.000  0.001  0.019  0.020
    3  0.000  0.001  0.019  0.020
    4  0.000  0.001  0.019  0.020
    5  0.027  0.001  0.001  0.029
    6  0.000  0.001  0.019  0.020
    7  0.000  0.001  0.019  0.020
    8  0.000  0.001  0.019  0.020
    9  0.012  0.000  0.012  0.025
   10  0.000  0.000  0.043  0.043
   11  0.000  0.001  0.030  0.031
   12  0.000  0.000  0.043  0.044
   13  0.000  0.001  0.030  0.031
   14  0.000  0.001  0.030  0.031
   15  0.000  0.000  0.035  0.036
   16  0.000  0.000  0.043  0.044
   17  0.000  0.000  0.035  0.036
   18  0.000  0.000  0.035  0.036
   19  0.001  0.000  0.026  0.027
   20  0.000  0.000  0.026  0.026
   21  0.000  0.000  0.026  0.026
   22  0.001  0.000  0.018  0.019
   23  0.000  0.000  0.026  0.026
   24  0.001  0.000  0.018  0.019
   25  0.001  0.000  0.026  0.027
   26  0.001  0.000  0.026  0.027
   27  0.001  0.000  0.018  0.019
   28  0.007  0.000  0.005  0.013
   29  0.000  0.000  0.012  0.012
   30  0.000  0.000  0.012  0.012
   31  0.000  0.000  0.012  0.012
   32  0.000  0.000  0.012  0.012
   33  0.000  0.000  0.012  0.012
   34  0.000  0.000  0.012  0.012
   35  0.001  0.000  0.005  0.005
   36  0.002  0.001  0.001  0.004