PROCAR new format
# of k-points:   10         # of bands:  252         # of ions:   37

 k-point     1 :    0.00000000 0.00000000 0.00000000     weight = 0.01562500

band     1 # energy  -54.19400083 # occ.  2.00000000
 
ion      s      p      d    tot
    1  0.000  0.000  0.000  0.000
    2  0.000  0.000  0.000  0.000
    3  0.000  0.000  0.000  0.000
    4  0.000  0.000  0.000  0.000
    5  0.000  0.000  0.000  0.000
    6  0.000  0.000  0.000  0.000
    7  0.000  0.000  0.000  0.000
    8  0.000  0.000  0.000  0.000
    9  0.000  0.000  0.000  0.000
   10  0.000  0.000  0.000  0.000
   11  0.000  0.000  0.000  0.000
   12  0.000  0.000  0.000  0.000
   13  0.000  0.000  0.000  0.000
   14  0.000  0.000  0.000  0.000
   15  0.000  0.000  0.000  0.000
   16  0.000  0.000  0.000  0.000
   17  0.000  0.000  0.000  0.000
   18  0.000  0.000  0.000  0.000
   19  0.000  0.000  0.000  0.000
   20  0.000  0.000  0.000  0.000
   21  0.000  0.000  0.000  0.000
   22  0.000  0.000  0.000  0.000
   23  0.000  0.000  0.000  0.000
   24  0.000  0.000  0.000  0.000
   25  0.000  0.000  0.000  0.000
   26  0.000  0.000  0.000  0.000
   27  0.000  0.000  0.000  0.000
   28  0.000  0.000  0.000  0.000
   29  0.000  0.000  0.000  0.000
   30  0.000  0.000  0.000  0.000
   31  0.000  0.000  0.000  0.000
   32  0.000  0.000  0.000  0.000
   33  0.000  0.000  0.000  0.000
   34  0.000  0.000  0.000  0.000
   35  0.000  0.000  0.000  0.000
   36  0.992  0.000  0.000  0.992
   37  0.001  0.001  0.000  0.001
tot    0.992  0.001  0.000  0.993
 
band     2 # energy  -30.46735525 # occ.  2.00000000
 
ion      s      p      d    tot
    1  0.000  0.000  0.000  0.000
    2  0.000  0.000  0.000  0.000
    3  0.000  0.000  0.000  0.000
    4  0.000  0.000  0.000  0.000
    5  0.000  0.000  0.000  0.000
    6  0.000  0.000  0.000  0.000
    7  0.000  0.000  0.000  0.000
    8  0.000  0.000  0.000  0.000
    9  0.000  0.000  0.000  0.000
   10  0.000  0.000  0.000  0.000
   11  0.000  0.000  0.000  0.000
   12  0.000  0.000  0.000  0.000
   13  0.000  0.000  0.000  0.000
   14  0.000  0.000  0.000  0.000
   15  0.000  0.000  0.000  0.000
   16  0.000  0.000  0.000  0.000
   17  0.000  0.000  0.000  0.000
   18  0.000  0.000  0.000  0.000
   19  0.000  0.000  0.000  0.000
   20  0.000  0.000  0.000  0.000
   21  0.000  0.000  0.000  0.000
   22  0.000  0.000  0.000  0.000
   23  0.000  0.000  0.000  0.000
   24  0.000  0.000  0.000  0.000
   25  0.000  0.000  0.000  0.000
   26  0.000  0.000  0.000  0.000
   27  0.000  0.000  0.000  0.000
   28  0.000  0.000  0.000  0.000
   29  0.000  0.000  0.000  0.000
   30  0.000  0.000  0.000  0.000
   31  0.000  0.000  0.000  0.000
   32  0.000  0.000  0.000  0.000
   33  0.000  0.000  0.000  0.000
   34  0.000  0.000  0.000  0.000
   35  0.000  0.000  0.000  0.000
   36  0.000  0.972  0.000  0.972
   37  0.000  0.000  0.000  0.000
tot    0.000  0.973  0.001  0.974
 
band     3 # energy  -30.46734847 # occ.  2.00000000
 
ion      s      p      d    tot
    1  0.000  0.000  0.000  0.000
    2  0.000  0.000  0.000  0.000
    3  0.000  0.000  0.000  0.000
    4  0.000  0.000  0.000  0.000
    5  0.000  0.000  0.000  0.000
    6  0.000  0.000  0.000  0.000
    7  0.000  0.000  0.000  0.000
    8  0.000  0.000  0.000  0.000
    9  0.000  0.000  0.000  0.000
   10  0.000  0.000  0.000  0.000
   11  0.000  0.000  0.000  0.000
   12  0.000  0.000  0.000  0.000
   13  0.000  0.000  0.000  0.000
   14  0.000  0.000  0.000  0.000
   15  0.000  0.000  0.000  0.000
   16  0.000  0.000  0.000  0.000
   17  0.000  0.000  0.000  0.000
   18  0.000  0.000  0.000  0.000
   19  0.000  0.000  0.000  0.000
   20  0.000  0.000  0.000  0.000
   21  0.000  0.000  0.000  0.000
   22  0.000  0.000  0.000  0.000
   23  0.000  0.000  0.000  0.000
   24  0.000  0.000  0.000  0.000
   25  0.000  0.000  0.000  0.000
   26  0.000  0.000  0.000  0.000
   27  0.000  0.000  0.000  0.000
   28  0.000  0.000  0.000  0.000
   29  0.000  0.000  0.000  0.000
   30  0.000  0.000  0.000  0.000
   31  0.000  0.000  0.000  0.000
   32  0.000  0.000  0.000  0.000
   33  0.000  0.000  0.000  0.000
   34  0.000  0.000  0.000  0.000
   35  0.000  0.000  0.000  0.000
   36  0.000  0.972  0.000  0.972
   37  0.000  0.000  0.000  0.000
tot    0.000  0.973  0.001  0.974
 
band     4 # energy  -30.27824382 # occ.  2.00000000
 
ion      s      p      d    tot
    1  0.000  0.000  0.000  0.000
    2  0.000  0.000  0.000  0.000
    3  0.000  0.000  0.000  0.000
    4  0.000  0.000  0.000  0.000
    5  0.000  0.000  0.000  0.000
    6  0.000  0.000  0.000  0.000
    7  0.000  0.000  0.000  0.000
    8  0.000  0.000  0.000  0.000
    9  0.000  0.000  0.000  0.000
   10  0.000  0.000  0.000  0.000
   11  0.000  0.000  0.000  0.000
   12  0.000  0.000  0.000  0.000
   13  0.000  0.000  0.000  0.000
   14  0.000  0.000  0.000  0.000
   15  0.000  0.000  0.000  0.000
   16  0.000  0.000  0.000  0.000
   17  0.000  0.000  0.000  0.000
   18  0.000  0.000  0.000  0.000
   19  0.000  0.000  0.000  0.000
   20  0.000  0.000  0.000  0.000
   21  0.000  0.000  0.000  0.000
   22  0.000  0.000  0.000  0.000
   23  0.000  0.000  0.000  0.000
   24  0.000  0.000  0.000  0.000
   25  0.000  0.000  0.000  0.000
   26  0.000  0.000  0.000  0.000
   27  0.000  0.000  0.000  0.000
   28  0.000  0.000  0.000  0.000
   29  0.000  0.000  0.000  0.000
   30  0.000  0.000  0.000  0.000
   31  0.000  0.000  0.000  0.000
   32  0.000  0.000  0.000  0.000
   33  0.000  0.000  0.000  0.000
   34  0.000  0.000  0.000  0.000
   35  0.000  0.000  0.000  0.000
   36  0.000  0.957  0.001  0.958
   37  0.009  0.009  0.000  0.017
tot    0.009  0.966  0.001  0.977
 
band     5 # energy   -7.61966368 # occ.  2.00000000
 
ion      s      p      d    tot
    1  0.000  0.000  0.000  0.000
    2  0.000  0.000  0.000  0.000
    3  0.000  0.000  0.000  0.000
    4  0.000  0.000  0.000  0.000
    5  0.000  0.000  0.000  0.000
    6  0.000  0.000  0.000  0.000
    7  0.000  0.000  0.000  0.000
    8  0.000  0.000  0.000  0.000
    9  0.000  0.000  0.000  0.000
   10  0.000  0.000  0.000  0.001
   11  0.000  0.000  0.000  0.000
   12  0.000  0.000  0.000  0.001
   13  0.000  0.000  0.000  0.000
   14  0.000  0.000  0.000  0.000
   15  0.000  0.000  0.000  0.000
   16  0.000  0.000  0.000  0.001
   17  0.000  0.000  0.000  0.000
   18  0.000  0.000  0.000  0.000
   19  0.001  0.000  0.000  0.001
   20  0.005  0.001  0.004  0.010
   21  0.005  0.001  0.004  0.010
   22  0.001  0.000  0.000  0.001
   23  0.005  0.001  0.004  0.010
   24  0.001  0.000  0.000  0.001
   25  0.001  0.000  0.000  0.001
   26  0.001  0.000  0.000  0.001
   27  0.001  0.000  0.000  0.001
   28  0.000  0.000  0.000  0.001
   29  0.002  0.000  0.001  0.003
   30  0.002  0.000  0.001  0.003
   31  0.002  0.000  0.001  0.003
   32  0.002  0.000  0.001  0.003
   33  0.002  0.000  0.001  0.003
   34  0.002  0.000  0.001  0.003
   35  0.000  0.000  0.000  0.001
   36  0.041  0.021  0.092  0.155
   37  0.411  0.008  0.000  0.419
tot    0.488  0.033  0.112  0.634
 
band     6 # energy   -6.78182087 # occ.  2.00000000
 
ion      s      p      d    tot
    1  0.006  0.001  0.000  0.007
    2  0.007  0.001  0.000  0.007
    3  0.007  0.001  0.000  0.007
    4  0.007  0.001  0.000  0.007
    5  0.007  0.001  0.000  0.007
    6  0.007  0.001  0.000  0.007
    7  0.007  0.001  0.000  0.007
    8  0.007  0.001  0.000  0.007
    9  0.007  0.001  0.000  0.007
   10  0.024  0.000  0.001  0.024
   11  0.025  0.000  0.000  0.025
   12  0.024  0.000  0.001  0.024
   13  0.025  0.000  0.000  0.025
   14  0.025  0.000  0.000  0.025
   15  0.024  0.000  0.000  0.024
   16  0.024  0.000  0.001  0.024
   17  0.024  0.000  0.000  0.024
   18  0.024  0.000  0.000  0.024
   19  0.021  0.000  0.000  0.022
   20  0.020  0.000  0.001  0.021
   21  0.020  0.000  0.001  0.021
   22  0.021  0.000  0.000  0.022
   23  0.020  0.000  0.001  0.021
   24  0.021  0.000  0.000  0.022
   25  0.021  0.000  0.000  0.022
   26  0.021  0.000  0.000  0.021
   27  0.021  0.000  0.000  0.022
   28  0.005  0.001  0.000  0.005
   29  0.004  0.001  0.000  0.004
   30  0.004  0.001  0.000  0.004
   31  0.004  0.001  0.000  0.004
   32  0.004  0.001  0.000  0.004
   33  0.004  0.001  0.000  0.004
   34  0.004  0.001  0.000  0.004
   35  0.005  0.001  0.000  0.005
   36  0.000  0.003  0.005  0.008
   37  0.022  0.000  0.000  0.022
tot    0.516  0.016  0.015  0.547
 
band     7 # energy   -5.94257427 # occ.  2.00000000
 
ion      s      p      d    tot
    1  0.008  0.000  0.000  0.008
    2  0.007  0.000  0.000  0.007
    3  0.007  0.000  0.000  0.007
    4  0.007  0.000  0.000  0.007
    5  0.006  0.000  0.000  0.007
    6  0.007  0.000  0.000  0.007
    7  0.007  0.000  0.000  0.007
    8  0.007  0.000  0.000  0.007
    9  0.006  0.000  0.000  0.007
   10  0.011  0.001  0.015  0.027
   11  0.009  0.001  0.017  0.028
   12  0.011  0.001  0.015  0.027
   13  0.009  0.001  0.017  0.028
   14  0.009  0.001  0.017  0.028
   15  0.009  0.001  0.014  0.024
   16  0.011  0.001  0.015  0.027
   17  0.009  0.001  0.014  0.024
   18  0.009  0.001  0.014  0.024
   19  0.013  0.001  0.018  0.032
   20  0.011  0.001  0.027  0.039
   21  0.011  0.001  0.027  0.039
   22  0.014  0.001  0.017  0.032
   23  0.011  0.001  0.027  0.039
   24  0.014  0.001  0.017  0.032
   25  0.013  0.001  0.018  0.032
   26  0.013  0.001  0.018  0.032
   27  0.014  0.001  0.017  0.032
   28  0.007  0.000  0.000  0.007
   29  0.005  0.000  0.000  0.006
   30  0.005  0.000  0.000  0.006
   31  0.005  0.000  0.000  0.006
   32  0.005  0.000  0.000  0.006
   33  0.005  0.000  0.000  0.006
   34  0.005  0.000  0.000  0.006
   35  0.007  0.000  0.000  0.007
   36  0.000  0.001  0.002  0.003
   37  0.005  0.000  0.000  0.005
tot    0.314  0.023  0.334  0.671
 
band     8 # energy   -5.68587347 # occ.  2.00000000
 
ion      s      p      d    tot
    1  0.015  0.000  0.020  0.034
    2  0.012  0.000  0.018  0.030
    3  0.012  0.000  0.018  0.030
    4  0.012  0.000  0.018  0.030
    5  0.011  0.000  0.017  0.028
    6  0.012  0.000  0.018  0.030
    7  0.012  0.000  0.018  0.030
    8  0.012  0.000  0.018  0.030
    9  0.012  0.000  0.017  0.029
   10  0.000  0.000  0.022  0.022
   11  0.000  0.000  0.013  0.014
   12  0.000  0.000  0.022  0.022
   13  0.000  0.000  0.013  0.014
   14  0.000  0.000  0.013  0.014
   15  0.000  0.001  0.011  0.012
   16  0.000  0.000  0.022  0.022
   17  0.000  0.001  0.011  0.012
   18  0.000  0.001  0.011  0.012
   19  0.000  0.000  0.012  0.012
   20  0.000  0.000  0.026  0.026
   21  0.000  0.000  0.026  0.026
   22  0.000  0.000  0.009  0.010
   23  0.000  0.000  0.026  0.026
   24  0.000  0.000  0.009  0.010
   25  0.000  0.000  0.012  0.012
   26  0.000  0.000  0.012  0.012
   27  0.000  0.000  0.009  0.010
   28  0.010  0.000  0.010  0.020
   29  0.010  0.000  0.012  0.022
   30  0.010  0.000  0.012  0.022
   31  0.010  0.000  0.012  0.022
   32  0.010  0.000  0.012  0.022
   33  0.010  0.000  0.012  0.022
   34  0.010  0.000  0.012  0.022
   35  0.013  0.000  0.011  0.024
   36  0.002  0.000  0.007  0.009
   37  0.001  0.000  0.000  0.001
tot    0.201  0.007  0.544  0.752
 
band     9 # energy   -5.57196038 # occ.  2.00000000
 
ion      s      p      d    tot
    1  0.000  0.000  0.008  0.008
    2  0.001  0.000  0.002  0.003
    3  0.001  0.000  0.003  0.004
    4  0.001  0.000  0.002  0.003
    5  0.000  0.000  0.004  0.004
    6  0.000  0.000  0.003  0.003
    7  0.001  0.000  0.002  0.004
    8  0.000  0.000  0.002  0.002
    9  0.000  0.000  0.002  0.002
   10  0.000  0.001  0.019  0.020
   11  0.001  0.000  0.024  0.026
   12  0.008  0.001  0.017  0.025
   13  0.001  0.000  0.026  0.027
   14  0.000  0.001  0.022  0.023
   15  0.003  0.000  0.012  0.015
   16  0.007  0.001  0.017  0.024
   17  0.003  0.000  0.010  0.014
   18  0.000  0.000  0.018  0.018
   19  0.017  0.001  0.038  0.056
   20  0.000  0.000  0.166  0.166
   21  0.020  0.000  0.047  0.068
   22  0.000  0.000  0.038  0.039
   23  0.018  0.000  0.047  0.065
   24  0.000  0.001  0.046  0.047
   25  0.000  0.001  0.024  0.025
   26  0.015  0.001  0.032  0.048
   27  0.000  0.001  0.034  0.035
   28  0.000  0.000  0.005  0.005
   29  0.000  0.000  0.006  0.007
   30  0.000  0.000  0.003  0.003
   31  0.000  0.000  0.007  0.008
   32  0.001  0.001  0.006  0.007
   33  0.000  0.000  0.003  0.003
   34  0.001  0.001  0.005  0.006
   35  0.000  0.000  0.000  0.000
   36  0.000  0.000  0.002  0.003
   37  0.000  0.000  0.000  0.000
tot    0.099  0.013  0.703  0.816
 
band    10 # energy   -5.57194513 # occ.  2.00000000
 
ion      s      p      d    tot
    1  0.000  0.000  0.006  0.006
    2  0.003  0.000  0.006  0.008
    3  0.002  0.000  0.008  0.011
    4  0.003  0.000  0.006  0.008
    5  0.006  0.000  0.007  0.012
    6  0.001  0.000  0.009  0.010
    7  0.002  0.000  0.009  0.011
    8  0.001  0.000  0.009  0.010
    9  0.003  0.000  0.002  0.005
   10  0.000  0.000  0.009  0.009
   11  0.001  0.000  0.031  0.032
   12  0.003  0.001  0.009  0.013
   13  0.001  0.001  0.029  0.031
   14  0.002  0.001  0.020  0.023
   15  0.002  0.000  0.014  0.016
   16  0.004  0.001  0.009  0.014
   17  0.002  0.000  0.016  0.018
   18  0.000  0.000  0.023  0.024
   19  0.001  0.001  0.018  0.019
   20  0.001  0.000  0.096  0.097
   21  0.009  0.000  0.105  0.114
   22  0.008  0.000  0.023  0.032
   23  0.012  0.000  0.100  0.112
   24  0.008  0.001  0.005  0.013
   25  0.010  0.001  0.049  0.059
   26  0.001  0.001  0.023  0.025
   27  0.008  0.000  0.026  0.035
   28  0.000  0.000  0.000  0.001
   29  0.001  0.000  0.004  0.005
   30  0.000  0.000  0.009  0.009
   31  0.001  0.000  0.003  0.004
   32  0.001  0.000  0.004  0.004
   33  0.000  0.000  0.009  0.009
   34  0.000  0.000  0.004  0.005
   35  0.003  0.001  0.001  0.005
   36  0.000  0.001  0.002  0.003
   37  0.002  0.000  0.000  0.002
tot    0.102  0.012  0.701  0.814
 
band    11 # energy   -5.57193252 # occ.  2.00000000
 
ion      s      p      d    tot
    1  0.000  0.000  0.008  0.008
    2  0.000  0.000  0.005  0.005
    3  0.000  0.000  0.002  0.002
    4  0.000  0.000  0.005  0.005
    5  0.001  0.000  0.004  0.005
    6  0.002  0.000  0.002  0.004
    7  0.000  0.000  0.002  0.002
    8  0.002  0.000  0.002  0.004
    9  0.000  0.000  0.002  0.002
   10  0.012  0.001  0.015  0.028
   11  0.001  0.001  0.020  0.022
   12  0.001  0.000  0.017  0.019
   13  0.001  0.001  0.020  0.022
   14  0.000  0.000  0.033  0.033
   15  0.000  0.000  0.019  0.019
   16  0.001  0.000  0.017  0.019
   17  0.000  0.000  0.019  0.019
   18  0.005  0.000  0.004  0.009
   19  0.007  0.001  0.036  0.045
   20  0.031  0.001  0.013  0.045
   21  0.003  0.000  0.123  0.126
   22  0.001  0.001  0.034  0.035
   23  0.002  0.000  0.128  0.130
   24  0.001  0.000  0.044  0.045
   25  0.015  0.001  0.020  0.036
   26  0.008  0.001  0.038  0.047
   27  0.001  0.001  0.034  0.036
   28  0.000  0.000  0.004  0.005
   29  0.000  0.000  0.005  0.006
   30  0.001  0.000  0.004  0.005
   31  0.000  0.000  0.005  0.006
   32  0.000  0.000  0.006  0.006
   33  0.001  0.000  0.004  0.005
   34  0.000  0.000  0.006  0.006
   35  0.000  0.000  0.001  0.001
   36  0.000  0.000  0.002  0.003
   37  0.000  0.000  0.000  0.000
tot    0.100  0.013  0.702  0.815
 
band    12 # energy   -5.55710910 # occ.  2.00000000
 
ion      s      p      d    tot
    1  0.000  0.000  0.004  0.004
    2  0.001  0.001  0.007  0.009
    3  0.001  0.000  0.003  0.004
    4  0.001  0.001  0.007  0.009
    5  0.000  0.000  0.009  0.009
    6  0.000  0.000  0.004  0.004
    7  0.001  0.000  0.003  0.003
    8  0.000  0.000  0.004  0.004
    9  0.000  0.000  0.002  0.002
   10  0.000  0.000  0.090  0.091
   11  0.024  0.001  0.031  0.055
   12  0.004  0.001  0.036  0.041
   13  0.023  0.001  0.033  0.057
   14  0.000  0.001  0.087  0.087
   15  0.006  0.001  0.030  0.037
   16  0.004  0.001  0.034  0.039
   17  0.006  0.001  0.029  0.036
   18  0.000  0.002  0.006  0.008
   19  0.001  0.000  0.019  0.020
   20  0.000  0.001  0.027  0.029
   21  0.007  0.001  0.036  0.044
   22  0.010  0.001  0.015  0.026
   23  0.007  0.001  0.036  0.044
   24  0.000  0.000  0.032  0.033
   25  0.000  0.000  0.034  0.035
   26  0.001  0.000  0.019  0.021
   27  0.011  0.001  0.015  0.026
   28  0.000  0.000  0.001  0.001
   29  0.000  0.000  0.002  0.002
   30  0.001  0.000  0.003  0.004
   31  0.000  0.000  0.002  0.002
   32  0.001  0.000  0.004  0.005
   33  0.001  0.000  0.003  0.004
   34  0.001  0.000  0.004  0.005
   35  0.000  0.000  0.006  0.006
   36  0.000  0.000  0.002  0.002
   37  0.000  0.000  0.000  0.000
tot    0.113  0.015  0.680  0.808
 
band    13 # energy   -5.55709900 # occ.  2.00000000
 
ion      s      p      d    tot
    1  0.000  0.000  0.004  0.004
    2  0.000  0.000  0.002  0.002
    3  0.001  0.000  0.006  0.007
    4  0.000  0.000  0.002  0.002
    5  0.000  0.000  0.009  0.009
    6  0.001  0.001  0.005  0.007
    7  0.001  0.000  0.006  0.007
    8  0.001  0.001  0.005  0.007
    9  0.000  0.000  0.002  0.002
   10  0.006  0.001  0.017  0.024
   11  0.007  0.001  0.070  0.078
   12  0.002  0.000  0.071  0.073
   13  0.008  0.001  0.068  0.077
   14  0.031  0.001  0.014  0.045
   15  0.002  0.001  0.013  0.017
   16  0.001  0.000  0.073  0.074
   17  0.002  0.001  0.014  0.018
   18  0.008  0.000  0.037  0.046
   19  0.000  0.000  0.030  0.030
   20  0.010  0.001  0.039  0.049
   21  0.002  0.001  0.030  0.034
   22  0.004  0.000  0.026  0.030
   23  0.002  0.001  0.030  0.033
   24  0.014  0.001  0.009  0.024
   25  0.001  0.000  0.014  0.016
   26  0.000  0.000  0.029  0.030
   27  0.003  0.000  0.027  0.031
   28  0.000  0.000  0.001  0.001
   29  0.001  0.000  0.004  0.006
   30  0.001  0.000  0.003  0.004
   31  0.001  0.000  0.004  0.006
   32  0.000  0.000  0.003  0.003
   33  0.000  0.000  0.003  0.003
   34  0.000  0.000  0.003  0.003
   35  0.000  0.000  0.006  0.006
   36  0.000  0.000  0.002  0.002
   37  0.000  0.000  0.000  0.000
tot    0.113  0.015  0.680  0.808
 
band    14 # energy   -5.54657690 # occ.  2.00000000
 
ion      s      p      d    tot
    1  0.001  0.000  0.001  0.002
    2  0.000  0.000  0.006  0.006
    3  0.000  0.000  0.006  0.006
    4  0.000  0.000  0.006  0.006
    5  0.005  0.001  0.003  0.009
    6  0.000  0.000  0.006  0.006
    7  0.000  0.000  0.006  0.006
    8  0.000  0.000  0.006  0.006
    9  0.001  0.000  0.003  0.004
   10  0.009  0.001  0.004  0.014
   11  0.012  0.000  0.046  0.059
   12  0.009  0.001  0.004  0.014
   13  0.012  0.000  0.046  0.059
   14  0.012  0.000  0.046  0.059
   15  0.000  0.000  0.044  0.045
   16  0.009  0.001  0.004  0.014
   17  0.000  0.000  0.044  0.045
   18  0.000  0.000  0.044  0.044
   19  0.013  0.001  0.026  0.040
   20  0.004  0.001  0.021  0.026
   21  0.004  0.001  0.021  0.026
   22  0.001  0.000  0.051  0.052
   23  0.004  0.001  0.021  0.026
   24  0.001  0.000  0.051  0.052
   25  0.013  0.001  0.026  0.040
   26  0.013  0.001  0.026  0.040
   27  0.001  0.000  0.051  0.052
   28  0.003  0.001  0.004  0.008
   29  0.000  0.000  0.004  0.004
   30  0.000  0.000  0.004  0.004
   31  0.000  0.000  0.004  0.004
   32  0.000  0.000  0.004  0.004
   33  0.000  0.000  0.004  0.004
   34  0.000  0.000  0.004  0.004
   35  0.002  0.000  0.003  0.005
   36  0.000  0.000  0.000  0.000
   37  0.000  0.000  0.000  0.000
tot    0.132  0.018  0.646  0.797
 
band    15 # energy   -5.53316510 # occ.  2.00000000
 
ion      s      p      d    tot
    1  0.000  0.001  0.019  0.020
    2  0.000  0.000  0.007  0.007
    3  0.000  0.000  0.007  0.007
    4  0.000  0.000  0.007  0.007
    5  0.001  0.000  0.001  0.002
    6  0.000  0.000  0.007  0.007
    7  0.000  0.000  0.007  0.007
    8  0.000  0.000  0.007  0.007
    9  0.007  0.001  0.002  0.011
   10  0.004  0.000  0.090  0.094
   11  0.002  0.001  0.042  0.045
   12  0.004  0.000  0.090  0.094
   13  0.002  0.001  0.042  0.045
   14  0.002  0.001  0.042  0.045
   15  0.012  0.001  0.011  0.024
   16  0.004  0.000  0.090  0.094
   17  0.012  0.001  0.011  0.024
   18  0.012  0.001  0.011  0.024
   19  0.000  0.000  0.017  0.018
   20  0.003  0.000  0.021  0.024
   21  0.003  0.000  0.021  0.024
   22  0.000  0.000  0.017  0.017
   23  0.003  0.000  0.021  0.024
   24  0.000  0.000  0.017  0.017
   25  0.001  0.000  0.017  0.018
   26  0.000  0.000  0.017  0.018
   27  0.000  0.000  0.017  0.017
   28  0.008  0.000  0.002  0.010
   29  0.000  0.000  0.012  0.012
   30  0.000  0.000  0.012  0.012
   31  0.000  0.000  0.012  0.012
   32  0.000  0.000  0.012  0.012
   33  0.000  0.000  0.012  0.012
   34  0.000  0.000  0.012  0.012
   35  0.000  0.000  0.004  0.004
   36  0.001  0.000  0.000  0.001
   37  0.000  0.000  0.000  0.000
tot    0.085  0.010  0.735  0.830
 
band    16 # energy   -5.52290295 # occ.  2.00000000
 
ion      s      p      d    tot
    1  0.003  0.000  0.007  0.010
    2  0.004  0.000  0.013  0.018
    3  0.004  0.000  0.013  0.018
    4  0.004  0.000  0.013  0.018
    5  0.004  0.000  0.008  0.012
    6  0.004  0.000  0.013  0.018
    7  0.004  0.000  0.013  0.018
    8  0.004  0.000  0.013  0.018
    9  0.005  0.000  0.026  0.031
   10  0.001  0.000  0.022  0.024
   11  0.000  0.000  0.003  0.003
   12  0.001  0.000  0.022  0.023
   13  0.000  0.000  0.003  0.003
   14  0.000  0.000  0.003  0.003
   15  0.005  0.000  0.035  0.040
   16  0.001  0.000  0.022  0.023
   17  0.005  0.000  0.034  0.039
   18  0.005  0.000  0.034  0.039
   19  0.000  0.001  0.004  0.005
   20  0.001  0.000  0.028  0.030
   21  0.001  0.000  0.028  0.029
   22  0.002  0.001  0.031  0.034
   23  0.001  0.000  0.028  0.029
   24  0.002  0.001  0.031  0.034
   25  0.000  0.001  0.004  0.005
   26  0.000  0.001  0.004  0.005
   27  0.002  0.001  0.031  0.034
   28  0.009  0.000  0.007  0.016
   29  0.008  0.000  0.020  0.028
   30  0.008  0.000  0.020  0.028
   31  0.008  0.000  0.020  0.028
   32  0.008  0.000  0.020  0.028
   33  0.008  0.000  0.020  0.028
   34  0.008  0.000  0.020  0.028
   35  0.011  0.000  0.035  0.046
   36  0.001  0.000  0.005  0.005
   37  0.001  0.000  0.000  0.001
tot    0.136  0.008  0.653  0.796
 
band    17 # energy   -5.51320271 # occ.  2.00000000
 
ion      s      p      d    tot
    1  0.000  0.001  0.011  0.011
    2  0.001  0.000  0.006  0.008
    3  0.001  0.001  0.010  0.011
    4  0.001  0.000  0.006  0.008
    5  0.000  0.000  0.010  0.010
    6  0.004  0.001  0.006  0.011
    7  0.001  0.001  0.010  0.011
    8  0.004  0.001  0.006  0.011
    9  0.000  0.000  0.010  0.010
   10  0.000  0.001  0.057  0.058
   11  0.000  0.000  0.031  0.032
   12  0.016  0.000  0.026  0.042
   13  0.000  0.000  0.033  0.033
   14  0.000  0.001  0.015  0.015
   15  0.011  0.000  0.031  0.042
   16  0.015  0.000  0.028  0.043
   17  0.012  0.000  0.027  0.039
   18  0.000  0.000  0.092  0.092
   19  0.002  0.000  0.025  0.027
   20  0.000  0.000  0.021  0.021
   21  0.002  0.000  0.023  0.025
   22  0.009  0.000  0.018  0.027
   23  0.002  0.000  0.023  0.025
   24  0.000  0.000  0.041  0.041
   25  0.000  0.000  0.040  0.040
   26  0.002  0.000  0.024  0.027
   27  0.008  0.000  0.019  0.028
   28  0.000  0.000  0.014  0.014
   29  0.003  0.000  0.005  0.008
   30  0.003  0.001  0.006  0.010
   31  0.003  0.000  0.005  0.008
   32  0.000  0.000  0.006  0.006
   33  0.003  0.001  0.006  0.010
   34  0.000  0.000  0.006  0.006
   35  0.000  0.000  0.005  0.005
   36  0.000  0.000  0.001  0.001
   37  0.000  0.000  0.000  0.000
tot    0.105  0.012  0.698  0.816
 
band    18 # energy   -5.51319109 # occ.  2.00000000
 
ion      s      p      d    tot
    1  0.000  0.001  0.011  0.011
    2  0.003  0.001  0.008  0.012
    3  0.003  0.001  0.005  0.009
    4  0.003  0.001  0.008  0.012
    5  0.000  0.000  0.010  0.010
    6  0.000  0.000  0.009  0.009
    7  0.003  0.001  0.005  0.009
    8  0.000  0.000  0.009  0.009
    9  0.000  0.000  0.010  0.010
   10  0.021  0.000  0.017  0.037
   11  0.000  0.000  0.021  0.021
   12  0.005  0.000  0.048  0.053
   13  0.000  0.000  0.020  0.020
   14  0.000  0.000  0.038  0.038
   15  0.004  0.000  0.069  0.073
   16  0.006  0.000  0.046  0.052
   17  0.003  0.000  0.072  0.076
   18  0.015  0.000  0.008  0.023
   19  0.001  0.000  0.034  0.035
   20  0.002  0.000  0.024  0.027
   21  0.001  0.000  0.022  0.023
   22  0.003  0.000  0.034  0.037
   23  0.001  0.000  0.022  0.023
   24  0.012  0.000  0.011  0.023
   25  0.003  0.000  0.019  0.023
   26  0.001  0.000  0.035  0.036
   27  0.003  0.000  0.033  0.036
   28  0.000  0.000  0.014  0.014
   29  0.001  0.000  0.007  0.008
   30  0.001  0.000  0.005  0.006
   31  0.001  0.000  0.007  0.008
   32  0.004  0.001  0.005  0.010
   33  0.001  0.000  0.005  0.006
   34  0.004  0.001  0.005  0.010
   35  0.000  0.000  0.005  0.005
   36  0.000  0.000  0.001  0.001
   37  0.000  0.000  0.000  0.000
tot    0.105  0.012  0.699  0.816
 
band    19 # energy   -5.50502678 # occ.  2.00000000
 
ion      s      p      d    tot
    1  0.000  0.000  0.007  0.007
    2  0.001  0.000  0.008  0.009
    3  0.000  0.000  0.007  0.008
    4  0.001  0.000  0.008  0.009
    5  0.000  0.000  0.004  0.004
    6  0.002  0.000  0.005  0.007
    7  0.000  0.000  0.007  0.008
    8  0.002  0.000  0.005  0.007
    9  0.000  0.000  0.017  0.017
   10  0.000  0.000  0.040  0.041
   11  0.001  0.000  0.049  0.050
   12  0.000  0.000  0.015  0.016
   13  0.001  0.000  0.048  0.049
   14  0.004  0.000  0.010  0.014
   15  0.001  0.000  0.052  0.054
   16  0.000  0.000  0.014  0.015
   17  0.001  0.000  0.052  0.053
   18  0.005  0.000  0.027  0.032
   19  0.001  0.000  0.070  0.071
   20  0.000  0.000  0.047  0.047
   21  0.000  0.000  0.022  0.022
   22  0.002  0.000  0.048  0.050
   23  0.000  0.000  0.021  0.022
   24  0.007  0.000  0.033  0.040
   25  0.006  0.000  0.007  0.013
   26  0.002  0.000  0.067  0.069
   27  0.002  0.000  0.049  0.050
   28  0.000  0.000  0.006  0.007
   29  0.001  0.000  0.008  0.009
   30  0.002  0.000  0.004  0.006
   31  0.001  0.000  0.008  0.009
   32  0.000  0.000  0.008  0.009
   33  0.001  0.000  0.004  0.006
   34  0.000  0.000  0.008  0.009
   35  0.000  0.000  0.014  0.014
   36  0.000  0.000  0.001  0.001
   37  0.000  0.000  0.000  0.000
tot    0.044  0.006  0.799  0.850
 
band    20 # energy   -5.50497887 # occ.  2.00000000
 
ion      s      p      d    tot
    1  0.000  0.000  0.007  0.007
    2  0.001  0.000  0.005  0.007
    3  0.002  0.000  0.006  0.008
    4  0.001  0.000  0.006  0.007
    5  0.000  0.000  0.004  0.004
    6  0.000  0.000  0.008  0.009
    7  0.002  0.000  0.006  0.008
    8  0.000  0.000  0.009  0.009
    9  0.000  0.000  0.017  0.017
   10  0.000  0.000  0.006  0.006
   11  0.003  0.000  0.022  0.025
   12  0.000  0.000  0.032  0.032
   13  0.003  0.000  0.023  0.026
   14  0.000  0.000  0.061  0.061
   15  0.004  0.000  0.035  0.039
   16  0.000  0.000  0.032  0.033
   17  0.004  0.000  0.036  0.039
   18  0.000  0.000  0.060  0.060
   19  0.005  0.000  0.026  0.031
   20  0.000  0.000  0.013  0.013
   21  0.000  0.000  0.038  0.038
   22  0.005  0.000  0.038  0.044
   23  0.000  0.000  0.039  0.039
   24  0.000  0.000  0.054  0.054
   25  0.000  0.000  0.089  0.089
   26  0.005  0.000  0.028  0.033
   27  0.006  0.000  0.038  0.044
   28  0.000  0.000  0.006  0.007
   29  0.001  0.000  0.006  0.007
   30  0.000  0.000  0.009  0.010
   31  0.001  0.000  0.005  0.006
   32  0.002  0.000  0.005  0.007
   33  0.000  0.000  0.009  0.010
   34  0.002  0.000  0.005  0.007
   35  0.000  0.000  0.014  0.014
   36  0.000  0.000  0.001  0.001
   37  0.000  0.000  0.000  0.000
tot    0.044  0.006  0.799  0.850
 
band    21 # energy   -5.48588682 # occ.  2.00000000
 
ion      s      p      d    tot
    1  0.011  0.001  0.001  0.013
    2  0.001  0.000  0.011  0.012
    3  0.001  0.000  0.011  0.012
    4  0.001  0.000  0.011  0.012
    5  0.000  0.000  0.013  0.014
    6  0.001  0.000  0.011  0.012
    7  0.001  0.000  0.011  0.012
    8  0.001  0.000  0.011  0.012
    9  0.001  0.000  0.000  0.001
   10  0.002  0.000  0.016  0.018
   11  0.003  0.000  0.031  0.034
   12  0.002  0.000  0.016  0.018
   13  0.003  0.000  0.031  0.034
   14  0.003  0.000  0.031  0.034
   15  0.001  0.000  0.031  0.033
   16  0.002  0.000  0.016  0.018
   17  0.001  0.000  0.031  0.033
   18  0.001  0.000  0.031  0.033
   19  0.002  0.000  0.060  0.062
   20  0.004  0.000  0.008  0.012
   21  0.004  0.000  0.008  0.012
   22  0.002  0.000  0.027  0.030
   23  0.004  0.000  0.008  0.012
   24  0.002  0.000  0.028  0.030
   25  0.002  0.000  0.060  0.062
   26  0.002  0.000  0.060  0.062
   27  0.002  0.000  0.027  0.030
   28  0.004  0.000  0.033  0.037
   29  0.003  0.000  0.015  0.019
   30  0.003  0.000  0.015  0.018
   31  0.003  0.000  0.015  0.019
   32  0.003  0.000  0.015  0.019
   33  0.003  0.000  0.015  0.018
   34  0.003  0.000  0.015  0.019
   35  0.000  0.000  0.002  0.002
   36  0.003  0.002  0.002  0.007