PROCAR new format
# of k-points:   10         # of bands:  252         # of ions:   37

 k-point     1 :    0.00000000 0.00000000 0.00000000     weight = 0.01562500

band     1 # energy  -17.94143719 # occ.  2.00000000
 
ion      s      p      d    tot
    1  0.000  0.000  0.000  0.000
    2  0.000  0.000  0.000  0.000
    3  0.000  0.000  0.000  0.000
    4  0.000  0.000  0.000  0.000
    5  0.000  0.000  0.000  0.000
    6  0.000  0.000  0.000  0.000
    7  0.000  0.000  0.000  0.000
    8  0.000  0.000  0.000  0.000
    9  0.000  0.000  0.000  0.000
   10  0.000  0.000  0.000  0.000
   11  0.000  0.000  0.000  0.000
   12  0.000  0.000  0.000  0.000
   13  0.000  0.000  0.000  0.000
   14  0.000  0.000  0.000  0.000
   15  0.000  0.000  0.000  0.000
   16  0.000  0.000  0.000  0.000
   17  0.000  0.000  0.000  0.000
   18  0.000  0.000  0.000  0.000
   19  0.000  0.000  0.000  0.000
   20  0.000  0.000  0.000  0.000
   21  0.000  0.000  0.000  0.000
   22  0.000  0.000  0.000  0.000
   23  0.000  0.000  0.000  0.000
   24  0.000  0.000  0.000  0.000
   25  0.000  0.000  0.000  0.000
   26  0.000  0.000  0.000  0.000
   27  0.000  0.000  0.000  0.000
   28  0.000  0.000  0.000  0.000
   29  0.000  0.000  0.000  0.000
   30  0.000  0.000  0.000  0.000
   31  0.000  0.000  0.000  0.000
   32  0.000  0.000  0.000  0.000
   33  0.000  0.000  0.000  0.000
   34  0.000  0.000  0.000  0.000
   35  0.000  0.000  0.000  0.000
   36  0.034  0.044  0.062  0.140
   37  0.778  0.012  0.000  0.790
tot    0.813  0.057  0.062  0.931
 
band     2 # energy   -8.17563841 # occ.  2.00000000
 
ion      s      p      d    tot
    1  0.007  0.001  0.000  0.007
    2  0.007  0.001  0.000  0.007
    3  0.007  0.001  0.000  0.007
    4  0.007  0.001  0.000  0.007
    5  0.007  0.001  0.000  0.007
    6  0.007  0.001  0.000  0.007
    7  0.007  0.001  0.000  0.007
    8  0.007  0.001  0.000  0.007
    9  0.007  0.001  0.000  0.007
   10  0.027  0.000  0.000  0.027
   11  0.028  0.000  0.000  0.028
   12  0.027  0.000  0.000  0.027
   13  0.028  0.000  0.000  0.028
   14  0.028  0.000  0.000  0.028
   15  0.027  0.000  0.000  0.027
   16  0.027  0.000  0.000  0.027
   17  0.027  0.000  0.000  0.027
   18  0.027  0.000  0.000  0.027
   19  0.023  0.000  0.000  0.024
   20  0.027  0.000  0.000  0.027
   21  0.027  0.000  0.000  0.027
   22  0.025  0.000  0.000  0.025
   23  0.027  0.000  0.000  0.027
   24  0.025  0.000  0.000  0.025
   25  0.023  0.000  0.000  0.024
   26  0.023  0.000  0.000  0.024
   27  0.025  0.000  0.000  0.025
   28  0.004  0.000  0.000  0.005
   29  0.005  0.000  0.000  0.005
   30  0.005  0.000  0.000  0.005
   31  0.005  0.000  0.000  0.005
   32  0.005  0.000  0.000  0.005
   33  0.005  0.000  0.000  0.005
   34  0.005  0.000  0.000  0.005
   35  0.004  0.000  0.000  0.005
   36  0.003  0.001  0.000  0.004
   37  0.000  0.000  0.000  0.001
tot    0.564  0.012  0.004  0.580
 
band     3 # energy   -6.97535602 # occ.  2.00000000
 
ion      s      p      d    tot
    1  0.017  0.000  0.001  0.019
    2  0.017  0.000  0.001  0.019
    3  0.017  0.000  0.001  0.019
    4  0.017  0.000  0.001  0.019
    5  0.017  0.000  0.001  0.018
    6  0.017  0.000  0.001  0.019
    7  0.017  0.000  0.001  0.019
    8  0.017  0.000  0.001  0.019
    9  0.017  0.000  0.001  0.019
   10  0.010  0.002  0.003  0.015
   11  0.009  0.002  0.003  0.014
   12  0.010  0.002  0.003  0.015
   13  0.009  0.002  0.003  0.014
   14  0.009  0.002  0.003  0.014
   15  0.010  0.002  0.003  0.014
   16  0.010  0.002  0.003  0.015
   17  0.010  0.002  0.003  0.014
   18  0.010  0.002  0.003  0.014
   19  0.014  0.001  0.004  0.019
   20  0.017  0.001  0.004  0.023
   21  0.017  0.001  0.004  0.023
   22  0.015  0.001  0.004  0.020
   23  0.017  0.001  0.004  0.023
   24  0.015  0.001  0.004  0.020
   25  0.014  0.001  0.004  0.019
   26  0.014  0.001  0.004  0.019
   27  0.015  0.001  0.004  0.020
   28  0.012  0.000  0.000  0.013
   29  0.012  0.001  0.000  0.013
   30  0.012  0.001  0.000  0.013
   31  0.012  0.001  0.000  0.013
   32  0.012  0.001  0.000  0.013
   33  0.012  0.001  0.000  0.013
   34  0.012  0.001  0.000  0.013
   35  0.012  0.001  0.000  0.013
   36  0.006  0.001  0.000  0.007
   37  0.001  0.001  0.000  0.001
tot    0.489  0.033  0.075  0.598
 
band     4 # energy   -6.06803188 # occ.  2.00000000
 
ion      s      p      d    tot
    1  0.002  0.001  0.003  0.006
    2  0.000  0.000  0.005  0.006
    3  0.000  0.000  0.005  0.006
    4  0.000  0.000  0.005  0.006
    5  0.000  0.000  0.000  0.001
    6  0.000  0.000  0.005  0.006
    7  0.000  0.000  0.005  0.006
    8  0.000  0.000  0.005  0.006
    9  0.017  0.001  0.000  0.018
   10  0.008  0.000  0.025  0.033
   11  0.009  0.003  0.009  0.021
   12  0.008  0.000  0.025  0.032
   13  0.009  0.003  0.009  0.021
   14  0.009  0.003  0.009  0.021
   15  0.023  0.002  0.009  0.034
   16  0.008  0.000  0.025  0.032
   17  0.023  0.002  0.009  0.034
   18  0.023  0.002  0.009  0.034
   19  0.000  0.001  0.023  0.024
   20  0.028  0.002  0.022  0.052
   21  0.028  0.002  0.022  0.051
   22  0.018  0.003  0.004  0.025
   23  0.028  0.002  0.022  0.051
   24  0.018  0.003  0.004  0.025
   25  0.000  0.001  0.023  0.024
   26  0.000  0.001  0.023  0.024
   27  0.018  0.003  0.004  0.025
   28  0.003  0.000  0.000  0.003
   29  0.001  0.000  0.005  0.006
   30  0.001  0.000  0.005  0.006
   31  0.001  0.000  0.005  0.006
   32  0.001  0.000  0.005  0.006
   33  0.001  0.000  0.005  0.006
   34  0.001  0.000  0.005  0.006
   35  0.010  0.001  0.000  0.011
   36  0.006  0.002  0.006  0.014
   37  0.001  0.004  0.000  0.005
tot    0.306  0.045  0.346  0.698
 
band     5 # energy   -6.04001961 # occ.  2.00000000
 
ion      s      p      d    tot
    1  0.026  0.000  0.018  0.044
    2  0.020  0.000  0.020  0.040
    3  0.020  0.000  0.020  0.040
    4  0.020  0.000  0.020  0.040
    5  0.018  0.000  0.021  0.039
    6  0.020  0.000  0.020  0.040
    7  0.020  0.000  0.020  0.040
    8  0.020  0.000  0.020  0.040
    9  0.017  0.000  0.020  0.037
   10  0.004  0.000  0.028  0.033
   11  0.009  0.001  0.025  0.034
   12  0.004  0.000  0.028  0.033
   13  0.009  0.001  0.025  0.034
   14  0.009  0.001  0.025  0.034
   15  0.012  0.001  0.023  0.036
   16  0.004  0.000  0.028  0.033
   17  0.012  0.001  0.023  0.036
   18  0.012  0.001  0.023  0.036
   19  0.001  0.000  0.004  0.005
   20  0.001  0.000  0.005  0.007
   21  0.001  0.000  0.005  0.007
   22  0.000  0.001  0.004  0.005
   23  0.001  0.000  0.005  0.007
   24  0.000  0.001  0.004  0.005
   25  0.001  0.000  0.004  0.005
   26  0.001  0.000  0.004  0.005
   27  0.000  0.001  0.004  0.005
   28  0.001  0.000  0.000  0.001
   29  0.001  0.000  0.000  0.001
   30  0.001  0.000  0.000  0.001
   31  0.001  0.000  0.000  0.001
   32  0.001  0.000  0.000  0.001
   33  0.001  0.000  0.000  0.001
   34  0.001  0.000  0.000  0.001
   35  0.000  0.000  0.000  0.000
   36  0.001  0.000  0.000  0.001
   37  0.000  0.000  0.000  0.000
tot    0.270  0.010  0.448  0.728
 
band     6 # energy   -6.03041200 # occ.  2.00000000
 
ion      s      p      d    tot
    1  0.000  0.000  0.007  0.007
    2  0.002  0.001  0.003  0.005
    3  0.002  0.001  0.003  0.006
    4  0.002  0.001  0.003  0.005
    5  0.000  0.001  0.008  0.009
    6  0.007  0.001  0.003  0.012
    7  0.002  0.001  0.003  0.006
    8  0.007  0.001  0.003  0.012
    9  0.000  0.000  0.001  0.002
   10  0.024  0.002  0.005  0.031
   11  0.014  0.002  0.027  0.043
   12  0.006  0.001  0.025  0.032
   13  0.015  0.002  0.026  0.043
   14  0.058  0.001  0.009  0.069
   15  0.002  0.003  0.005  0.010
   16  0.006  0.001  0.026  0.032
   17  0.002  0.003  0.005  0.010
   18  0.007  0.000  0.014  0.022
   19  0.001  0.003  0.005  0.009
   20  0.057  0.001  0.011  0.068
   21  0.015  0.003  0.025  0.042
   22  0.007  0.001  0.026  0.033
   23  0.014  0.003  0.025  0.041
   24  0.027  0.002  0.004  0.032
   25  0.004  0.000  0.013  0.017
   26  0.001  0.003  0.005  0.009
   27  0.007  0.001  0.026  0.033
   28  0.000  0.000  0.001  0.001
   29  0.007  0.001  0.003  0.011
   30  0.001  0.000  0.003  0.004
   31  0.007  0.001  0.003  0.011
   32  0.003  0.001  0.002  0.005
   33  0.001  0.000  0.003  0.004
   34  0.003  0.001  0.002  0.005
   35  0.000  0.000  0.005  0.005
   36  0.000  0.001  0.002  0.004
   37  0.000  0.000  0.000  0.000
tot    0.308  0.043  0.342  0.693
 
band     7 # energy   -6.03039464 # occ.  2.00000000
 
ion      s      p      d    tot
    1  0.000  0.000  0.007  0.007
    2  0.005  0.001  0.004  0.010
    3  0.006  0.001  0.003  0.009
    4  0.005  0.001  0.004  0.010
    5  0.000  0.001  0.008  0.009
    6  0.000  0.000  0.003  0.003
    7  0.005  0.001  0.003  0.009
    8  0.000  0.000  0.003  0.003
    9  0.000  0.000  0.001  0.002
   10  0.000  0.000  0.032  0.032
   11  0.044  0.001  0.015  0.060
   12  0.018  0.001  0.012  0.032
   13  0.043  0.002  0.015  0.060
   14  0.000  0.003  0.032  0.035
   15  0.005  0.001  0.011  0.018
   16  0.018  0.001  0.012  0.031
   17  0.005  0.001  0.011  0.018
   18  0.000  0.004  0.002  0.006
   19  0.003  0.001  0.010  0.014
   20  0.000  0.003  0.029  0.033
   21  0.042  0.002  0.016  0.059
   22  0.020  0.001  0.011  0.033
   23  0.043  0.002  0.015  0.060
   24  0.000  0.000  0.034  0.034
   25  0.000  0.004  0.003  0.007
   26  0.003  0.001  0.010  0.014
   27  0.021  0.001  0.011  0.033
   28  0.000  0.000  0.001  0.001
   29  0.000  0.000  0.002  0.003
   30  0.006  0.001  0.003  0.010
   31  0.000  0.000  0.002  0.003
   32  0.004  0.001  0.004  0.009
   33  0.006  0.001  0.003  0.010
   34  0.004  0.001  0.004  0.009
   35  0.000  0.000  0.005  0.005
   36  0.000  0.001  0.002  0.004
   37  0.000  0.000  0.000  0.000
tot    0.308  0.043  0.342  0.693
 
band     8 # energy   -6.00562633 # occ.  2.00000000
 
ion      s      p      d    tot
    1  0.007  0.001  0.001  0.010
    2  0.000  0.001  0.006  0.007
    3  0.000  0.001  0.006  0.007
    4  0.000  0.001  0.006  0.007
    5  0.017  0.002  0.001  0.020
    6  0.000  0.001  0.006  0.007
    7  0.000  0.001  0.006  0.007
    8  0.000  0.001  0.006  0.007
    9  0.000  0.000  0.002  0.002
   10  0.026  0.003  0.002  0.031
   11  0.021  0.001  0.023  0.044
   12  0.026  0.003  0.002  0.031
   13  0.021  0.001  0.023  0.044
   14  0.021  0.001  0.023  0.044
   15  0.000  0.001  0.024  0.025
   16  0.026  0.003  0.002  0.031
   17  0.000  0.001  0.024  0.025
   18  0.000  0.001  0.024  0.025
   19  0.026  0.002  0.005  0.033
   20  0.005  0.002  0.018  0.025
   21  0.005  0.002  0.018  0.025
   22  0.008  0.000  0.026  0.034
   23  0.005  0.002  0.018  0.025
   24  0.008  0.000  0.026  0.035
   25  0.026  0.002  0.005  0.033
   26  0.026  0.002  0.005  0.033
   27  0.008  0.000  0.026  0.034
   28  0.010  0.001  0.001  0.012
   29  0.000  0.000  0.004  0.004
   30  0.000  0.000  0.004  0.004
   31  0.000  0.000  0.004  0.004
   32  0.000  0.000  0.004  0.004
   33  0.000  0.000  0.004  0.004
   34  0.000  0.000  0.004  0.004
   35  0.004  0.001  0.002  0.007
   36  0.000  0.000  0.000  0.000
   37  0.000  0.000  0.000  0.000
tot    0.299  0.040  0.357  0.696
 
band     9 # energy   -5.98161699 # occ.  2.00000000
 
ion      s      p      d    tot
    1  0.000  0.001  0.005  0.006
    2  0.002  0.001  0.004  0.006
    3  0.002  0.001  0.003  0.006
    4  0.009  0.001  0.004  0.014
    5  0.000  0.000  0.003  0.003
    6  0.003  0.001  0.003  0.007
    7  0.008  0.001  0.004  0.014
    8  0.002  0.001  0.004  0.007
    9  0.000  0.001  0.011  0.012
   10  0.028  0.001  0.014  0.043
   11  0.001  0.001  0.012  0.015
   12  0.000  0.004  0.009  0.014
   13  0.000  0.002  0.016  0.019
   14  0.001  0.001  0.012  0.015
   15  0.045  0.002  0.013  0.060
   16  0.030  0.001  0.014  0.046
   17  0.000  0.000  0.047  0.048
   18  0.041  0.001  0.016  0.059
   19  0.036  0.002  0.011  0.048
   20  0.003  0.001  0.012  0.016
   21  0.000  0.001  0.017  0.019
   22  0.000  0.004  0.010  0.015
   23  0.003  0.001  0.012  0.016
   24  0.018  0.001  0.013  0.032
   25  0.033  0.002  0.013  0.047
   26  0.000  0.001  0.035  0.036
   27  0.020  0.001  0.013  0.034
   28  0.000  0.001  0.006  0.006
   29  0.001  0.000  0.002  0.004
   30  0.004  0.001  0.002  0.007
   31  0.001  0.000  0.001  0.003
   32  0.004  0.001  0.002  0.007
   33  0.001  0.000  0.001  0.003
   34  0.001  0.000  0.002  0.004
   35  0.000  0.001  0.002  0.003
   36  0.000  0.000  0.001  0.001
   37  0.000  0.000  0.000  0.000
tot    0.299  0.042  0.354  0.694
 
band    10 # energy   -5.98161630 # occ.  2.00000000
 
ion      s      p      d    tot
    1  0.000  0.001  0.005  0.006
    2  0.007  0.001  0.004  0.012
    3  0.006  0.001  0.004  0.012
    4  0.000  0.000  0.003  0.004
    5  0.000  0.000  0.003  0.003
    6  0.006  0.001  0.004  0.011
    7  0.000  0.000  0.003  0.004
    8  0.006  0.001  0.004  0.011
    9  0.000  0.001  0.011  0.012
   10  0.011  0.003  0.011  0.025
   11  0.000  0.002  0.015  0.018
   12  0.039  0.000  0.015  0.054
   13  0.002  0.001  0.011  0.013
   14  0.001  0.002  0.015  0.017
   15  0.013  0.001  0.038  0.051
   16  0.008  0.004  0.011  0.023
   17  0.058  0.002  0.004  0.063
   18  0.016  0.001  0.035  0.052
   19  0.010  0.001  0.028  0.040
   20  0.001  0.001  0.015  0.018
   21  0.004  0.001  0.010  0.015
   22  0.025  0.000  0.014  0.039
   23  0.001  0.001  0.016  0.018
   24  0.007  0.003  0.011  0.022
   25  0.013  0.001  0.026  0.041
   26  0.046  0.002  0.004  0.052
   27  0.006  0.003  0.011  0.020
   28  0.000  0.001  0.006  0.007
   29  0.003  0.001  0.002  0.005
   30  0.000  0.000  0.002  0.002
   31  0.003  0.001  0.003  0.006
   32  0.000  0.000  0.002  0.002
   33  0.003  0.001  0.003  0.007
   34  0.003  0.001  0.002  0.005
   35  0.000  0.001  0.002  0.003
   36  0.000  0.000  0.001  0.001
   37  0.000  0.000  0.000  0.000
tot    0.299  0.042  0.354  0.694
 
band    11 # energy   -5.85102077 # occ.  2.00000000
 
ion      s      p      d    tot
    1  0.001  0.000  0.000  0.001
    2  0.001  0.000  0.001  0.001
    3  0.001  0.000  0.001  0.001
    4  0.001  0.000  0.001  0.001
    5  0.002  0.000  0.000  0.002
    6  0.001  0.000  0.001  0.001
    7  0.001  0.000  0.001  0.001
    8  0.001  0.000  0.001  0.001
    9  0.000  0.000  0.001  0.001
   10  0.000  0.000  0.003  0.003
   11  0.001  0.000  0.002  0.003
   12  0.000  0.000  0.003  0.003
   13  0.001  0.000  0.002  0.003
   14  0.001  0.000  0.002  0.003
   15  0.002  0.000  0.003  0.005
   16  0.000  0.000  0.003  0.003
   17  0.002  0.000  0.003  0.005
   18  0.002  0.000  0.003  0.005
   19  0.004  0.001  0.018  0.023
   20  0.003  0.000  0.029  0.033
   21  0.003  0.000  0.029  0.033
   22  0.008  0.001  0.023  0.033
   23  0.003  0.000  0.029  0.033
   24  0.008  0.001  0.023  0.033
   25  0.004  0.001  0.018  0.023
   26  0.004  0.001  0.018  0.023
   27  0.008  0.001  0.023  0.033
   28  0.029  0.000  0.020  0.050
   29  0.027  0.000  0.022  0.048
   30  0.027  0.000  0.022  0.048
   31  0.027  0.000  0.022  0.048
   32  0.027  0.000  0.022  0.048
   33  0.027  0.000  0.022  0.048
   34  0.027  0.000  0.022  0.048
   35  0.029  0.000  0.022  0.051
   36  0.005  0.000  0.012  0.017
   37  0.000  0.000  0.000  0.001
tot    0.280  0.013  0.421  0.714
 
band    12 # energy   -5.55480078 # occ.  2.00000000
 
ion      s      p      d    tot
    1  0.012  0.002  0.003  0.016
    2  0.000  0.001  0.009  0.009
    3  0.000  0.001  0.009  0.009
    4  0.000  0.001  0.009  0.009
    5  0.001  0.000  0.002  0.003
    6  0.000  0.001  0.009  0.009
    7  0.000  0.001  0.009  0.009
    8  0.000  0.001  0.009  0.009
    9  0.020  0.002  0.000  0.022
   10  0.011  0.001  0.017  0.029
   11  0.001  0.000  0.047  0.048
   12  0.010  0.001  0.017  0.029
   13  0.001  0.000  0.047  0.048
   14  0.001  0.000  0.046  0.048
   15  0.005  0.001  0.019  0.025
   16  0.010  0.001  0.017  0.029
   17  0.005  0.001  0.019  0.025
   18  0.005  0.001  0.019  0.025
   19  0.003  0.001  0.015  0.018
   20  0.002  0.000  0.052  0.054
   21  0.002  0.000  0.052  0.054
   22  0.011  0.001  0.016  0.028
   23  0.002  0.000  0.052  0.054
   24  0.011  0.001  0.016  0.028
   25  0.003  0.001  0.015  0.018
   26  0.003  0.001  0.015  0.018
   27  0.011  0.001  0.016  0.028
   28  0.009  0.001  0.000  0.010
   29  0.000  0.000  0.005  0.005
   30  0.000  0.000  0.005  0.005
   31  0.000  0.000  0.005  0.005
   32  0.000  0.000  0.005  0.005
   33  0.000  0.000  0.005  0.005
   34  0.000  0.000  0.005  0.005
   35  0.007  0.001  0.003  0.011
   36  0.000  0.000  0.003  0.003
   37  0.000  0.001  0.000  0.001
tot    0.146  0.028  0.584  0.758
 
band    13 # energy   -5.54271129 # occ.  2.00000000
 
ion      s      p      d    tot
    1  0.000  0.001  0.004  0.005
    2  0.001  0.001  0.005  0.006
    3  0.009  0.001  0.005  0.015
    4  0.001  0.001  0.005  0.006
    5  0.000  0.001  0.011  0.012
    6  0.005  0.001  0.004  0.010
    7  0.009  0.001  0.005  0.015
    8  0.005  0.001  0.004  0.010
    9  0.000  0.000  0.009  0.009
   10  0.000  0.001  0.050  0.051
   11  0.016  0.001  0.021  0.038
   12  0.007  0.002  0.019  0.028
   13  0.016  0.001  0.021  0.038
   14  0.000  0.000  0.051  0.051
   15  0.002  0.000  0.020  0.022
   16  0.007  0.002  0.019  0.028
   17  0.002  0.000  0.020  0.022
   18  0.000  0.001  0.011  0.012
   19  0.006  0.000  0.018  0.024
   20  0.000  0.000  0.073  0.073
   21  0.017  0.001  0.023  0.041
   22  0.003  0.001  0.019  0.023
   23  0.017  0.001  0.023  0.041
   24  0.000  0.001  0.034  0.035
   25  0.000  0.001  0.012  0.013
   26  0.006  0.000  0.018  0.024
   27  0.003  0.001  0.019  0.023
   28  0.000  0.000  0.007  0.008
   29  0.002  0.001  0.004  0.007
   30  0.010  0.001  0.003  0.015
   31  0.002  0.001  0.004  0.006
   32  0.003  0.001  0.004  0.008
   33  0.010  0.001  0.003  0.015
   34  0.003  0.001  0.004  0.008
   35  0.000  0.000  0.003  0.003
   36  0.000  0.002  0.002  0.004
   37  0.000  0.000  0.000  0.000
tot    0.160  0.031  0.556  0.747
 
band    14 # energy   -5.54269343 # occ.  2.00000000
 
ion      s      p      d    tot
    1  0.000  0.001  0.004  0.005
    2  0.009  0.001  0.004  0.014
    3  0.001  0.000  0.004  0.006
    4  0.009  0.001  0.004  0.014
    5  0.000  0.001  0.011  0.012
    6  0.005  0.001  0.005  0.011
    7  0.001  0.000  0.004  0.006
    8  0.005  0.001  0.005  0.011
    9  0.000  0.000  0.009  0.009
   10  0.009  0.002  0.009  0.020
   11  0.005  0.000  0.041  0.047
   12  0.002  0.001  0.040  0.043
   13  0.005  0.000  0.041  0.047
   14  0.021  0.001  0.011  0.034
   15  0.001  0.001  0.014  0.015
   16  0.002  0.001  0.040  0.043
   17  0.001  0.001  0.014  0.015
   18  0.002  0.000  0.023  0.026
   19  0.002  0.001  0.014  0.017
   20  0.023  0.002  0.006  0.031
   21  0.006  0.000  0.056  0.062
   22  0.001  0.001  0.029  0.031
   23  0.006  0.000  0.056  0.062
   24  0.003  0.001  0.014  0.018
   25  0.008  0.000  0.020  0.028
   26  0.002  0.001  0.014  0.017
   27  0.001  0.001  0.029  0.031
   28  0.000  0.000  0.007  0.008
   29  0.008  0.001  0.003  0.013
   30  0.000  0.000  0.004  0.004
   31  0.008  0.001  0.003  0.013
   32  0.007  0.001  0.004  0.012
   33  0.000  0.000  0.004  0.004
   34  0.007  0.001  0.004  0.012
   35  0.000  0.000  0.003  0.003
   36  0.000  0.002  0.002  0.004
   37  0.000  0.000  0.000  0.000
tot    0.160  0.031  0.556  0.747
 
band    15 # energy   -5.53254207 # occ.  2.00000000
 
ion      s      p      d    tot
    1  0.009  0.000  0.000  0.009
    2  0.000  0.001  0.008  0.008
    3  0.000  0.001  0.008  0.008
    4  0.000  0.001  0.008  0.008
    5  0.016  0.002  0.001  0.018
    6  0.000  0.001  0.008  0.008
    7  0.000  0.001  0.008  0.008
    8  0.000  0.001  0.008  0.008
    9  0.002  0.000  0.002  0.004
   10  0.000  0.000  0.038  0.039
   11  0.008  0.002  0.005  0.015
   12  0.000  0.000  0.038  0.039
   13  0.008  0.002  0.005  0.015
   14  0.008  0.002  0.005  0.015
   15  0.007  0.001  0.030  0.038
   16  0.000  0.000  0.038  0.039
   17  0.007  0.001  0.030  0.038
   18  0.007  0.001  0.030  0.038
   19  0.013  0.001  0.032  0.045
   20  0.007  0.002  0.014  0.023
   21  0.007  0.002  0.014  0.023
   22  0.000  0.000  0.040  0.040
   23  0.007  0.002  0.014  0.023
   24  0.000  0.000  0.040  0.040
   25  0.013  0.001  0.032  0.046
   26  0.013  0.001  0.032  0.045
   27  0.000  0.000  0.040  0.040
   28  0.002  0.001  0.006  0.009
   29  0.000  0.000  0.005  0.006
   30  0.000  0.000  0.005  0.006
   31  0.000  0.000  0.005  0.006
   32  0.000  0.000  0.005  0.006
   33  0.000  0.000  0.005  0.006
   34  0.000  0.000  0.005  0.006
   35  0.000  0.000  0.000  0.001
   36  0.013  0.001  0.004  0.018
   37  0.001  0.008  0.000  0.009
tot    0.151  0.038  0.566  0.755
 
band    16 # energy   -5.48639269 # occ.  2.00000000
 
ion      s      p      d    tot
    1  0.000  0.001  0.015  0.016
    2  0.010  0.001  0.005  0.016
    3  0.002  0.000  0.005  0.007
    4  0.010  0.001  0.005  0.016
    5  0.000  0.000  0.005  0.005
    6  0.003  0.001  0.005  0.010
    7  0.002  0.000  0.005  0.008
    8  0.003  0.001  0.005  0.010
    9  0.000  0.001  0.007  0.009
   10  0.000  0.001  0.030  0.030
   11  0.001  0.001  0.020  0.022
   12  0.007  0.000  0.023  0.030
   13  0.001  0.001  0.020  0.022
   14  0.000  0.001  0.019  0.020
   15  0.011  0.002  0.021  0.034
   16  0.007  0.000  0.023  0.030
   17  0.011  0.002  0.021  0.033
   18  0.000  0.000  0.065  0.065
   19  0.013  0.001  0.020  0.034
   20  0.000  0.002  0.020  0.022
   21  0.000  0.001  0.022  0.023
   22  0.018  0.001  0.021  0.040
   23  0.000  0.001  0.022  0.023
   24  0.000  0.000  0.032  0.033
   25  0.000  0.000  0.067  0.067
   26  0.013  0.001  0.020  0.034
   27  0.018  0.001  0.021  0.039
   28  0.000  0.001  0.004  0.005
   29  0.005  0.001  0.004  0.010
   30  0.000  0.000  0.004  0.005
   31  0.005  0.001  0.004  0.010
   32  0.003  0.001  0.002  0.006
   33  0.000  0.000  0.004  0.005
   34  0.003  0.001  0.002  0.006
   35  0.000  0.001  0.007  0.008
   36  0.000  0.000  0.000  0.000
   37  0.000  0.000  0.000  0.000
tot    0.147  0.028  0.578  0.753
 
band    17 # energy   -5.48637965 # occ.  2.00000000
 
ion      s      p      d    tot
    1  0.000  0.001  0.015  0.016
    2  0.000  0.000  0.006  0.006
    3  0.008  0.001  0.005  0.015
    4  0.000  0.000  0.006  0.006
    5  0.000  0.000  0.005  0.005
    6  0.007  0.001  0.005  0.012
    7  0.008  0.001  0.005  0.015
    8  0.007  0.001  0.005  0.012
    9  0.000  0.001  0.007  0.009
   10  0.009  0.000  0.020  0.030
   11  0.000  0.001  0.019  0.021
   12  0.002  0.001  0.028  0.030
   13  0.000  0.001  0.019  0.021
   14  0.001  0.001  0.021  0.023
   15  0.004  0.001  0.050  0.055
   16  0.002  0.001  0.027  0.030
   17  0.003  0.001  0.051  0.055
   18  0.014  0.002  0.006  0.023
   19  0.005  0.001  0.051  0.056
   20  0.000  0.000  0.023  0.024
   21  0.000  0.001  0.021  0.022
   22  0.006  0.001  0.028  0.035
   23  0.000  0.001  0.021  0.022
   24  0.024  0.001  0.017  0.042
   25  0.018  0.001  0.004  0.023
   26  0.004  0.001  0.051  0.056
   27  0.006  0.001  0.028  0.035
   28  0.000  0.001  0.004  0.005
   29  0.001  0.000  0.003  0.004
   30  0.005  0.001  0.003  0.009
   31  0.001  0.000  0.003  0.004
   32  0.002  0.001  0.005  0.008
   33  0.005  0.001  0.003  0.009
   34  0.002  0.001  0.005  0.008
   35  0.000  0.001  0.007  0.008
   36  0.000  0.000  0.000  0.000
   37  0.000  0.000  0.000  0.000
tot    0.147  0.028  0.578  0.753
 
band    18 # energy   -5.15987458 # occ.  2.00000000
 
ion      s      p      d    tot
    1  0.000  0.000  0.015  0.015
    2  0.000  0.001  0.011  0.011
    3  0.005  0.000  0.014  0.020
    4  0.000  0.001  0.011  0.011
    5  0.000  0.000  0.027  0.027
    6  0.007  0.001  0.009  0.017
    7  0.005  0.000  0.014  0.020
    8  0.007  0.001  0.009  0.017
    9  0.000  0.001  0.006  0.007
   10  0.000  0.000  0.018  0.018
   11  0.000  0.000  0.051  0.052
   12  0.000  0.000  0.010  0.010
   13  0.000  0.000  0.051  0.052
   14  0.000  0.000  0.046  0.046
   15  0.000  0.000  0.027  0.027
   16  0.000  0.000  0.010  0.010
   17  0.000  0.000  0.027  0.027
   18  0.000  0.000  0.044  0.044
   19  0.000  0.000  0.010  0.011
   20  0.001  0.000  0.056  0.058
   21  0.000  0.000  0.040  0.041
   22  0.000  0.000  0.034  0.035
   23  0.000  0.000  0.041  0.041
   24  0.000  0.000  0.032  0.033
   25  0.001  0.000  0.012  0.013
   26  0.000  0.000  0.010  0.011
   27  0.000  0.000  0.034  0.035
   28  0.000  0.000  0.011  0.011
   29  0.008  0.001  0.011  0.020
   30  0.000  0.001  0.008  0.009
   31  0.008  0.001  0.011  0.020
   32  0.009  0.001  0.005  0.015
   33  0.000  0.001  0.008  0.009
   34  0.009  0.001  0.005  0.015
   35  0.000  0.000  0.016  0.016
   36  0.000  0.002  0.001  0.003
   37  0.000  0.001  0.000  0.001
tot    0.062  0.017  0.748  0.827
 
band    19 # energy   -5.15986475 # occ.  2.00000000
 
ion      s      p      d    tot
    1  0.000  0.000  0.015  0.015
    2  0.008  0.000  0.012  0.021
    3  0.003  0.001  0.008  0.012
    4  0.008  0.000  0.012  0.021
    5  0.000  0.000  0.027  0.027
    6  0.001  0.000  0.014  0.015
    7  0.003  0.001  0.008  0.012
    8  0.001  0.000  0.014  0.015
    9  0.000  0.001  0.006  0.007
   10  0.000  0.000  0.008  0.008
   11  0.000  0.000  0.048  0.048
   12  0.000  0.000  0.015  0.016
   13  0.000  0.000  0.048  0.048
   14  0.000  0.000  0.053  0.053
   15  0.000  0.000  0.038  0.039
   16  0.000  0.000  0.015  0.016
   17  0.000  0.000  0.038  0.039
   18  0.000  0.000  0.021  0.021
   19  0.001  0.000  0.012  0.012
   20  0.000  0.000  0.035  0.036
   21  0.001  0.000  0.051  0.052
   22  0.000  0.000  0.033  0.033
   23  0.001  0.000  0.051  0.052
   24  0.000  0.000  0.035  0.035
   25  0.000  0.000  0.010  0.010
   26  0.001  0.000  0.012  0.012
   27  0.000  0.000  0.033  0.033
   28  0.000  0.000  0.011  0.011
   29  0.003  0.001  0.005  0.009
   30  0.011  0.001  0.008  0.020
   31  0.003  0.001  0.005  0.009
   32  0.002  0.001  0.011  0.014
   33  0.011  0.001  0.008  0.020
   34  0.002  0.001  0.011  0.014
   35  0.000  0.000  0.016  0.016
   36  0.000  0.002  0.001  0.003
   37  0.000  0.001  0.000  0.001
tot    0.062  0.017  0.748  0.827
 
band    20 # energy   -5.15688362 # occ.  2.00000000
 
ion      s      p      d    tot
    1  0.006  0.000  0.002  0.009
    2  0.000  0.000  0.005  0.006
    3  0.000  0.000  0.005  0.006
    4  0.000  0.000  0.005  0.006
    5  0.000  0.000  0.013  0.013
    6  0.000  0.000  0.005  0.006
    7  0.000  0.000  0.005  0.006
    8  0.000  0.000  0.005  0.006
    9  0.006  0.001  0.003  0.009
   10  0.000  0.000  0.021  0.021
   11  0.000  0.001  0.057  0.057
   12  0.000  0.000  0.020  0.020
   13  0.000  0.001  0.056  0.057
   14  0.000  0.001  0.057  0.057
   15  0.000  0.001  0.035  0.035
   16  0.000  0.000  0.020  0.020
   17  0.000  0.001  0.035  0.035
   18  0.000  0.001  0.034  0.035
   19  0.000  0.000  0.019  0.019
   20  0.001  0.000  0.055  0.057
   21  0.001  0.000  0.055  0.056
   22  0.001  0.000  0.033  0.034
   23  0.001  0.000  0.055  0.056
   24  0.001  0.000  0.033  0.034
   25  0.000  0.000  0.019  0.019
   26  0.000  0.000  0.019  0.019
   27  0.001  0.000  0.033  0.034
   28  0.007  0.001  0.000  0.008
   29  0.000  0.001  0.010  0.010
   30  0.000  0.001  0.010  0.010
   31  0.000  0.001  0.010  0.010
   32  0.000  0.001  0.010  0.010
   33  0.000  0.001  0.010  0.010
   34  0.000  0.001  0.010  0.010
   35  0.010  0.000  0.002  0.012
   36  0.001  0.000  0.016  0.017
   37  0.001  0.010  0.000  0.011
tot    0.038  0.024  0.779  0.841
 
band    21 # energy   -5.13452534 # occ.  2.00000000
 
ion      s      p      d    tot
    1  0.000  0.000  0.009  0.009
    2  0.000  0.001  0.019  0.020
    3  0.000  0.001  0.019  0.020
    4  0.000  0.001  0.019  0.020
    5  0.020  0.001  0.000  0.021
    6  0.000  0.001  0.019  0.020
    7  0.000  0.001  0.019  0.020
    8  0.000  0.001  0.019  0.020
    9  0.018  0.000  0.012  0.030
   10  0.000  0.000  0.043  0.043
   11  0.000  0.001  0.029  0.029
   12  0.000  0.000  0.043  0.043
   13  0.000  0.001  0.029  0.029
   14  0.000  0.001  0.029  0.029
   15  0.000  0.000  0.037  0.038
   16  0.000  0.000  0.043  0.043
   17  0.000  0.000  0.037  0.038
   18  0.000  0.000  0.037  0.038
   19  0.001  0.000  0.026  0.027
   20  0.000  0.000  0.031  0.031
   21  0.000  0.000  0.031  0.032
   22  0.001  0.000  0.018  0.019
   23  0.000  0.000  0.031  0.032
   24  0.001  0.000  0.018  0.019
   25  0.001  0.000  0.026  0.027
   26  0.001  0.000  0.026  0.027
   27  0.001  0.000  0.018  0.019
   28  0.005  0.000  0.005  0.011
   29  0.000  0.000  0.010  0.010
   30  0.000  0.000  0.010  0.010
   31  0.000  0.000  0.010  0.010
   32  0.000  0.000  0.010  0.010
   33  0.000  0.000  0.010  0.010
   34  0.000  0.000  0.010  0.010
   35  0.000  0.000  0.003  0.003
   36  0.005  0.000  0.000  0.006