PROCAR new format
# of k-points:   10         # of bands:  252         # of ions:   37

 k-point     1 :    0.00000000 0.00000000 0.00000000     weight = 0.01562500

band     1 # energy  -18.43155143 # occ.  2.00000000
 
ion      s      p      d    tot
    1  0.000  0.000  0.000  0.000
    2  0.000  0.000  0.000  0.000
    3  0.000  0.000  0.000  0.000
    4  0.000  0.000  0.000  0.000
    5  0.000  0.000  0.000  0.000
    6  0.000  0.000  0.000  0.000
    7  0.000  0.000  0.000  0.000
    8  0.000  0.000  0.000  0.000
    9  0.000  0.000  0.000  0.000
   10  0.000  0.000  0.000  0.000
   11  0.000  0.000  0.000  0.000
   12  0.000  0.000  0.000  0.000
   13  0.000  0.000  0.000  0.000
   14  0.000  0.000  0.000  0.000
   15  0.000  0.000  0.000  0.000
   16  0.000  0.000  0.000  0.000
   17  0.000  0.000  0.000  0.000
   18  0.000  0.000  0.000  0.000
   19  0.000  0.000  0.000  0.000
   20  0.000  0.000  0.000  0.000
   21  0.000  0.000  0.000  0.000
   22  0.000  0.000  0.000  0.000
   23  0.000  0.000  0.000  0.000
   24  0.000  0.000  0.000  0.000
   25  0.000  0.000  0.000  0.000
   26  0.000  0.000  0.000  0.000
   27  0.000  0.000  0.000  0.000
   28  0.000  0.000  0.000  0.000
   29  0.000  0.000  0.000  0.000
   30  0.000  0.000  0.000  0.000
   31  0.000  0.000  0.000  0.000
   32  0.000  0.000  0.000  0.000
   33  0.000  0.000  0.000  0.000
   34  0.000  0.000  0.000  0.000
   35  0.000  0.000  0.000  0.000
   36  0.047  0.050  0.102  0.199
   37  0.761  0.018  0.000  0.779
tot    0.809  0.069  0.102  0.980
 
band     2 # energy   -8.14551462 # occ.  2.00000000
 
ion      s      p      d    tot
    1  0.006  0.001  0.000  0.007
    2  0.006  0.000  0.000  0.006
    3  0.006  0.000  0.000  0.006
    4  0.006  0.000  0.000  0.006
    5  0.006  0.001  0.000  0.007
    6  0.006  0.000  0.000  0.006
    7  0.006  0.000  0.000  0.006
    8  0.006  0.000  0.000  0.006
    9  0.006  0.000  0.000  0.006
   10  0.025  0.000  0.000  0.025
   11  0.026  0.000  0.000  0.027
   12  0.025  0.000  0.000  0.025
   13  0.026  0.000  0.000  0.027
   14  0.026  0.000  0.000  0.027
   15  0.024  0.000  0.000  0.025
   16  0.025  0.000  0.000  0.025
   17  0.024  0.000  0.000  0.025
   18  0.024  0.000  0.000  0.025
   19  0.022  0.000  0.000  0.023
   20  0.031  0.000  0.000  0.031
   21  0.031  0.000  0.000  0.031
   22  0.024  0.000  0.000  0.024
   23  0.031  0.000  0.000  0.031
   24  0.024  0.000  0.000  0.024
   25  0.022  0.000  0.000  0.023
   26  0.022  0.000  0.000  0.023
   27  0.024  0.000  0.000  0.024
   28  0.005  0.000  0.000  0.005
   29  0.005  0.000  0.000  0.006
   30  0.005  0.000  0.000  0.006
   31  0.005  0.000  0.000  0.006
   32  0.005  0.000  0.000  0.006
   33  0.005  0.000  0.000  0.006
   34  0.005  0.000  0.000  0.006
   35  0.005  0.000  0.000  0.005
   36  0.011  0.002  0.000  0.013
   37  0.001  0.001  0.000  0.002
tot    0.565  0.014  0.004  0.583
 
band     3 # energy   -6.99574131 # occ.  2.00000000
 
ion      s      p      d    tot
    1  0.016  0.000  0.001  0.018
    2  0.016  0.000  0.001  0.018
    3  0.016  0.000  0.001  0.018
    4  0.016  0.000  0.001  0.018
    5  0.016  0.000  0.001  0.017
    6  0.016  0.000  0.001  0.018
    7  0.016  0.000  0.001  0.018
    8  0.016  0.000  0.001  0.018
    9  0.017  0.001  0.001  0.018
   10  0.012  0.001  0.003  0.016
   11  0.011  0.001  0.003  0.015
   12  0.012  0.001  0.003  0.016
   13  0.011  0.001  0.003  0.015
   14  0.011  0.001  0.003  0.015
   15  0.013  0.001  0.002  0.016
   16  0.012  0.001  0.003  0.016
   17  0.013  0.001  0.002  0.016
   18  0.013  0.001  0.002  0.016
   19  0.009  0.001  0.003  0.014
   20  0.018  0.002  0.003  0.023
   21  0.018  0.002  0.003  0.023
   22  0.010  0.001  0.003  0.014
   23  0.018  0.002  0.003  0.023
   24  0.010  0.001  0.003  0.014
   25  0.009  0.001  0.003  0.014
   26  0.009  0.001  0.003  0.014
   27  0.010  0.001  0.003  0.014
   28  0.011  0.000  0.001  0.012
   29  0.014  0.001  0.001  0.016
   30  0.014  0.001  0.001  0.016
   31  0.014  0.001  0.001  0.016
   32  0.014  0.001  0.001  0.016
   33  0.014  0.001  0.001  0.016
   34  0.014  0.001  0.001  0.016
   35  0.011  0.000  0.000  0.012
   36  0.028  0.002  0.000  0.030
   37  0.002  0.003  0.000  0.005
tot    0.499  0.037  0.068  0.604
 
band     4 # energy   -6.15101616 # occ.  2.00000000
 
ion      s      p      d    tot
    1  0.005  0.001  0.001  0.006
    2  0.000  0.000  0.002  0.002
    3  0.000  0.000  0.002  0.002
    4  0.000  0.000  0.002  0.002
    5  0.000  0.000  0.000  0.001
    6  0.000  0.000  0.002  0.002
    7  0.000  0.000  0.002  0.002
    8  0.000  0.000  0.002  0.002
    9  0.004  0.001  0.001  0.006
   10  0.005  0.000  0.016  0.021
   11  0.002  0.001  0.007  0.010
   12  0.005  0.000  0.016  0.021
   13  0.002  0.001  0.007  0.010
   14  0.002  0.001  0.007  0.010
   15  0.015  0.001  0.003  0.019
   16  0.005  0.000  0.016  0.021
   17  0.015  0.001  0.003  0.019
   18  0.015  0.001  0.003  0.019
   19  0.001  0.001  0.020  0.022
   20  0.026  0.002  0.045  0.073
   21  0.026  0.002  0.045  0.073
   22  0.019  0.002  0.002  0.022
   23  0.026  0.002  0.045  0.073
   24  0.019  0.002  0.002  0.022
   25  0.001  0.001  0.020  0.022
   26  0.001  0.001  0.020  0.022
   27  0.019  0.002  0.002  0.022
   28  0.007  0.000  0.000  0.007
   29  0.003  0.000  0.005  0.008
   30  0.003  0.000  0.005  0.008
   31  0.003  0.000  0.005  0.008
   32  0.003  0.000  0.005  0.008
   33  0.003  0.000  0.005  0.008
   34  0.003  0.000  0.005  0.008
   35  0.016  0.001  0.000  0.018
   36  0.023  0.004  0.051  0.078
   37  0.006  0.045  0.000  0.051
tot    0.285  0.079  0.372  0.736
 
band     5 # energy   -6.03419695 # occ.  2.00000000
 
ion      s      p      d    tot
    1  0.000  0.000  0.007  0.008
    2  0.003  0.001  0.003  0.006
    3  0.005  0.001  0.002  0.009
    4  0.003  0.001  0.003  0.006
    5  0.000  0.001  0.005  0.006
    6  0.000  0.000  0.002  0.003
    7  0.005  0.001  0.002  0.009
    8  0.000  0.000  0.002  0.003
    9  0.000  0.000  0.001  0.001
   10  0.000  0.000  0.029  0.029
   11  0.031  0.002  0.014  0.046
   12  0.028  0.002  0.012  0.042
   13  0.032  0.001  0.014  0.047
   14  0.000  0.004  0.022  0.026
   15  0.000  0.001  0.008  0.009
   16  0.028  0.002  0.012  0.042
   17  0.000  0.001  0.008  0.010
   18  0.000  0.003  0.006  0.008
   19  0.009  0.001  0.010  0.021
   20  0.000  0.002  0.040  0.042
   21  0.055  0.001  0.021  0.076
   22  0.010  0.001  0.010  0.021
   23  0.054  0.001  0.021  0.076
   24  0.000  0.001  0.024  0.025
   25  0.000  0.004  0.003  0.007
   26  0.009  0.001  0.010  0.021
   27  0.009  0.001  0.010  0.021
   28  0.000  0.000  0.001  0.002
   29  0.000  0.000  0.003  0.003
   30  0.004  0.001  0.005  0.010
   31  0.000  0.000  0.003  0.003
   32  0.005  0.001  0.004  0.010
   33  0.004  0.001  0.005  0.010
   34  0.005  0.001  0.004  0.010
   35  0.000  0.000  0.003  0.003
   36  0.000  0.002  0.023  0.026
   37  0.000  0.004  0.000  0.004
tot    0.299  0.046  0.354  0.698
 
band     6 # energy   -6.03417557 # occ.  2.00000000
 
ion      s      p      d    tot
    1  0.000  0.000  0.007  0.008
    2  0.003  0.001  0.002  0.006
    3  0.000  0.000  0.003  0.003
    4  0.003  0.001  0.002  0.006
    5  0.000  0.001  0.005  0.006
    6  0.005  0.001  0.003  0.009
    7  0.000  0.000  0.003  0.003
    8  0.005  0.001  0.003  0.009
    9  0.000  0.000  0.001  0.001
   10  0.037  0.002  0.006  0.046
   11  0.011  0.003  0.019  0.033
   12  0.009  0.001  0.024  0.033
   13  0.010  0.003  0.019  0.033
   14  0.042  0.001  0.011  0.054
   15  0.000  0.002  0.007  0.009
   16  0.010  0.001  0.023  0.034
   17  0.000  0.002  0.006  0.009
   18  0.000  0.000  0.009  0.010
   19  0.003  0.003  0.006  0.012
   20  0.072  0.001  0.014  0.087
   21  0.018  0.002  0.034  0.053
   22  0.003  0.001  0.020  0.023
   23  0.018  0.002  0.033  0.054
   24  0.013  0.001  0.005  0.019
   25  0.013  0.000  0.013  0.026
   26  0.003  0.003  0.006  0.012
   27  0.003  0.001  0.019  0.023
   28  0.000  0.000  0.001  0.002
   29  0.006  0.001  0.005  0.012
   30  0.002  0.001  0.003  0.005
   31  0.006  0.001  0.005  0.012
   32  0.001  0.000  0.004  0.005
   33  0.002  0.001  0.003  0.005
   34  0.001  0.000  0.004  0.005
   35  0.000  0.000  0.003  0.003
   36  0.000  0.002  0.023  0.026
   37  0.000  0.004  0.000  0.004
tot    0.299  0.046  0.354  0.698
 
band     7 # energy   -6.02378399 # occ.  2.00000000
 
ion      s      p      d    tot
    1  0.008  0.000  0.003  0.011
    2  0.006  0.000  0.004  0.011
    3  0.007  0.000  0.004  0.011
    4  0.006  0.000  0.004  0.011
    5  0.011  0.000  0.004  0.014
    6  0.007  0.000  0.004  0.011
    7  0.007  0.000  0.004  0.011
    8  0.007  0.000  0.004  0.011
    9  0.002  0.000  0.006  0.008
   10  0.000  0.001  0.003  0.005
   11  0.000  0.001  0.001  0.002
   12  0.000  0.001  0.003  0.005
   13  0.000  0.001  0.001  0.002
   14  0.000  0.001  0.001  0.002
   15  0.005  0.001  0.001  0.007
   16  0.000  0.001  0.003  0.005
   17  0.005  0.001  0.001  0.007
   18  0.005  0.001  0.001  0.007
   19  0.011  0.001  0.010  0.021
   20  0.001  0.001  0.028  0.029
   21  0.001  0.001  0.028  0.029
   22  0.008  0.001  0.010  0.020
   23  0.001  0.001  0.028  0.029
   24  0.008  0.001  0.010  0.020
   25  0.011  0.001  0.010  0.021
   26  0.011  0.001  0.010  0.021
   27  0.008  0.001  0.010  0.020
   28  0.009  0.000  0.014  0.024
   29  0.021  0.001  0.017  0.039
   30  0.021  0.001  0.017  0.039
   31  0.021  0.001  0.017  0.039
   32  0.021  0.001  0.017  0.039
   33  0.021  0.001  0.017  0.039
   34  0.021  0.001  0.017  0.039
   35  0.012  0.000  0.012  0.024
   36  0.033  0.000  0.036  0.069
   37  0.000  0.002  0.000  0.002
tot    0.318  0.023  0.367  0.708
 
band     8 # energy   -5.98218206 # occ.  2.00000000
 
ion      s      p      d    tot
    1  0.018  0.000  0.018  0.036
    2  0.016  0.000  0.017  0.033
    3  0.016  0.000  0.017  0.033
    4  0.016  0.000  0.017  0.033
    5  0.009  0.000  0.018  0.027
    6  0.016  0.000  0.017  0.033
    7  0.016  0.000  0.017  0.033
    8  0.016  0.000  0.017  0.033
    9  0.022  0.000  0.013  0.036
   10  0.005  0.000  0.029  0.034
   11  0.017  0.001  0.022  0.040
   12  0.005  0.000  0.029  0.034
   13  0.017  0.001  0.022  0.040
   14  0.017  0.001  0.022  0.040
   15  0.003  0.000  0.028  0.031
   16  0.005  0.000  0.029  0.034
   17  0.003  0.000  0.028  0.031
   18  0.003  0.000  0.028  0.031
   19  0.005  0.000  0.006  0.012
   20  0.000  0.000  0.017  0.018
   21  0.000  0.000  0.017  0.018
   22  0.001  0.000  0.009  0.010
   23  0.000  0.000  0.017  0.018
   24  0.001  0.000  0.009  0.010
   25  0.005  0.000  0.006  0.012
   26  0.005  0.000  0.006  0.012
   27  0.001  0.000  0.009  0.010
   28  0.000  0.000  0.001  0.002
   29  0.000  0.000  0.001  0.002
   30  0.000  0.000  0.001  0.002
   31  0.000  0.000  0.001  0.002
   32  0.000  0.000  0.001  0.002
   33  0.000  0.000  0.001  0.002
   34  0.000  0.000  0.001  0.002
   35  0.000  0.000  0.000  0.001
   36  0.001  0.000  0.005  0.005
   37  0.000  0.001  0.000  0.001
tot    0.242  0.009  0.496  0.746
 
band     9 # energy   -5.92575921 # occ.  2.00000000
 
ion      s      p      d    tot
    1  0.007  0.001  0.002  0.010
    2  0.000  0.001  0.006  0.007
    3  0.000  0.001  0.006  0.007
    4  0.000  0.001  0.006  0.007
    5  0.018  0.002  0.000  0.020
    6  0.000  0.001  0.006  0.007
    7  0.000  0.001  0.006  0.007
    8  0.000  0.001  0.006  0.007
    9  0.000  0.000  0.002  0.002
   10  0.026  0.003  0.001  0.029
   11  0.019  0.001  0.025  0.044
   12  0.026  0.003  0.001  0.029
   13  0.019  0.001  0.025  0.044
   14  0.019  0.001  0.025  0.044
   15  0.000  0.001  0.023  0.024
   16  0.026  0.003  0.001  0.029
   17  0.000  0.001  0.023  0.024
   18  0.001  0.001  0.023  0.024
   19  0.018  0.002  0.008  0.028
   20  0.007  0.003  0.018  0.028
   21  0.007  0.003  0.018  0.028
   22  0.010  0.000  0.025  0.035
   23  0.007  0.003  0.018  0.028
   24  0.010  0.000  0.025  0.035
   25  0.018  0.002  0.008  0.028
   26  0.018  0.002  0.008  0.028
   27  0.010  0.000  0.025  0.035
   28  0.016  0.001  0.000  0.017
   29  0.001  0.000  0.004  0.006
   30  0.001  0.000  0.004  0.006
   31  0.001  0.000  0.004  0.006
   32  0.001  0.000  0.004  0.006
   33  0.001  0.000  0.004  0.006
   34  0.001  0.000  0.004  0.006
   35  0.001  0.001  0.005  0.007
   36  0.000  0.000  0.000  0.000
   37  0.000  0.000  0.000  0.000
tot    0.291  0.037  0.370  0.698
 
band    10 # energy   -5.91407977 # occ.  2.00000000
 
ion      s      p      d    tot
    1  0.000  0.001  0.003  0.004
    2  0.003  0.001  0.004  0.008
    3  0.008  0.001  0.004  0.014
    4  0.004  0.001  0.004  0.009
    5  0.000  0.000  0.005  0.006
    6  0.001  0.000  0.003  0.005
    7  0.008  0.001  0.004  0.014
    8  0.001  0.000  0.003  0.005
    9  0.000  0.001  0.011  0.012
   10  0.020  0.000  0.017  0.037
   11  0.003  0.001  0.024  0.029
   12  0.005  0.004  0.006  0.014
   13  0.003  0.001  0.024  0.029
   14  0.013  0.001  0.006  0.021
   15  0.017  0.001  0.031  0.050
   16  0.005  0.003  0.006  0.015
   17  0.016  0.001  0.032  0.049
   18  0.065  0.001  0.007  0.073
   19  0.009  0.001  0.026  0.036
   20  0.000  0.001  0.016  0.017
   21  0.000  0.002  0.012  0.014
   22  0.009  0.003  0.017  0.029
   23  0.000  0.002  0.012  0.014
   24  0.038  0.001  0.011  0.050
   25  0.035  0.002  0.003  0.040
   26  0.008  0.001  0.026  0.035
   27  0.010  0.003  0.017  0.030
   28  0.000  0.000  0.006  0.006
   29  0.001  0.000  0.002  0.002
   30  0.002  0.000  0.002  0.004
   31  0.000  0.000  0.002  0.002
   32  0.004  0.001  0.002  0.007
   33  0.002  0.000  0.002  0.004
   34  0.004  0.001  0.002  0.007
   35  0.000  0.001  0.004  0.005
   36  0.000  0.000  0.002  0.002
   37  0.000  0.001  0.000  0.001
tot    0.295  0.042  0.357  0.694
 
band    11 # energy   -5.91405244 # occ.  2.00000000
 
ion      s      p      d    tot
    1  0.000  0.001  0.003  0.004
    2  0.005  0.001  0.003  0.009
    3  0.000  0.000  0.004  0.004
    4  0.005  0.001  0.003  0.009
    5  0.000  0.000  0.005  0.006
    6  0.008  0.001  0.004  0.013
    7  0.000  0.000  0.004  0.004
    8  0.008  0.001  0.004  0.013
    9  0.000  0.001  0.011  0.012
   10  0.000  0.005  0.002  0.007
   11  0.010  0.001  0.012  0.024
   12  0.015  0.001  0.013  0.029
   13  0.010  0.001  0.012  0.023
   14  0.000  0.001  0.030  0.031
   15  0.048  0.001  0.015  0.065
   16  0.015  0.001  0.013  0.029
   17  0.049  0.001  0.015  0.065
   18  0.000  0.001  0.040  0.042
   19  0.026  0.002  0.011  0.039
   20  0.000  0.002  0.010  0.013
   21  0.000  0.001  0.015  0.016
   22  0.029  0.001  0.013  0.043
   23  0.000  0.001  0.015  0.016
   24  0.000  0.004  0.019  0.023
   25  0.000  0.000  0.034  0.034
   26  0.027  0.002  0.010  0.039
   27  0.028  0.002  0.013  0.043
   28  0.000  0.000  0.006  0.006
   29  0.004  0.001  0.002  0.007
   30  0.003  0.000  0.002  0.005
   31  0.004  0.001  0.002  0.007
   32  0.000  0.000  0.001  0.002
   33  0.003  0.000  0.002  0.005
   34  0.000  0.000  0.001  0.002
   35  0.000  0.001  0.004  0.005
   36  0.000  0.000  0.002  0.002
   37  0.000  0.001  0.000  0.001
tot    0.295  0.042  0.357  0.694
 
band    12 # energy   -5.61062825 # occ.  2.00000000
 
ion      s      p      d    tot
    1  0.000  0.000  0.001  0.001
    2  0.000  0.001  0.007  0.008
    3  0.000  0.001  0.007  0.008
    4  0.000  0.001  0.007  0.008
    5  0.010  0.001  0.000  0.010
    6  0.000  0.001  0.007  0.008
    7  0.000  0.001  0.007  0.008
    8  0.000  0.001  0.007  0.008
    9  0.013  0.002  0.002  0.016
   10  0.003  0.000  0.036  0.039
   11  0.007  0.002  0.006  0.014
   12  0.003  0.000  0.036  0.039
   13  0.007  0.002  0.006  0.014
   14  0.007  0.002  0.006  0.014
   15  0.023  0.002  0.015  0.040
   16  0.003  0.000  0.036  0.039
   17  0.023  0.002  0.015  0.040
   18  0.023  0.002  0.015  0.040
   19  0.011  0.001  0.010  0.022
   20  0.000  0.004  0.028  0.033
   21  0.000  0.004  0.028  0.033
   22  0.000  0.001  0.027  0.028
   23  0.000  0.004  0.028  0.033
   24  0.000  0.001  0.027  0.028
   25  0.011  0.001  0.010  0.022
   26  0.011  0.001  0.010  0.022
   27  0.000  0.001  0.027  0.028
   28  0.003  0.001  0.001  0.005
   29  0.000  0.000  0.004  0.005
   30  0.000  0.000  0.004  0.005
   31  0.000  0.000  0.004  0.005
   32  0.000  0.000  0.004  0.005
   33  0.000  0.000  0.004  0.005
   34  0.000  0.000  0.004  0.005
   35  0.000  0.000  0.000  0.000
   36  0.035  0.001  0.026  0.062
   37  0.006  0.048  0.000  0.055
tot    0.201  0.090  0.462  0.753
 
band    13 # energy   -5.54006506 # occ.  2.00000000
 
ion      s      p      d    tot
    1  0.000  0.001  0.005  0.005
    2  0.009  0.001  0.004  0.014
    3  0.000  0.000  0.004  0.005
    4  0.009  0.001  0.004  0.014
    5  0.000  0.002  0.010  0.011
    6  0.006  0.001  0.005  0.012
    7  0.000  0.000  0.004  0.005
    8  0.006  0.001  0.005  0.012
    9  0.000  0.000  0.008  0.008
   10  0.012  0.002  0.008  0.022
   11  0.006  0.000  0.037  0.044
   12  0.003  0.001  0.041  0.044
   13  0.007  0.000  0.036  0.043
   14  0.026  0.001  0.011  0.037
   15  0.000  0.001  0.015  0.017
   16  0.003  0.001  0.041  0.045
   17  0.000  0.001  0.015  0.017
   18  0.001  0.000  0.021  0.022
   19  0.000  0.000  0.010  0.011
   20  0.017  0.002  0.005  0.024
   21  0.004  0.000  0.066  0.070
   22  0.001  0.001  0.024  0.026
   23  0.004  0.000  0.067  0.071
   24  0.005  0.001  0.014  0.020
   25  0.002  0.000  0.017  0.019
   26  0.001  0.000  0.010  0.011
   27  0.001  0.001  0.025  0.026
   28  0.000  0.000  0.005  0.005
   29  0.003  0.001  0.005  0.009
   30  0.001  0.000  0.003  0.004
   31  0.003  0.001  0.005  0.009
   32  0.006  0.001  0.007  0.014
   33  0.001  0.000  0.003  0.004
   34  0.006  0.001  0.007  0.014
   35  0.000  0.000  0.001  0.002
   36  0.000  0.002  0.026  0.028
   37  0.000  0.008  0.000  0.008
tot    0.144  0.036  0.575  0.755
 
band    14 # energy   -5.54006045 # occ.  2.00000000
 
ion      s      p      d    tot
    1  0.000  0.001  0.005  0.005
    2  0.001  0.001  0.005  0.007
    3  0.010  0.002  0.005  0.016
    4  0.001  0.001  0.005  0.007
    5  0.000  0.002  0.010  0.011
    6  0.004  0.001  0.004  0.009
    7  0.010  0.002  0.005  0.016
    8  0.005  0.001  0.004  0.009
    9  0.000  0.000  0.008  0.008
   10  0.000  0.000  0.052  0.052
   11  0.020  0.001  0.019  0.039
   12  0.009  0.001  0.019  0.029
   13  0.019  0.001  0.020  0.040
   14  0.000  0.000  0.045  0.046
   15  0.001  0.000  0.019  0.020
   16  0.009  0.001  0.019  0.029
   17  0.001  0.000  0.019  0.020
   18  0.000  0.001  0.013  0.015
   19  0.002  0.000  0.015  0.017
   20  0.000  0.000  0.086  0.087
   21  0.013  0.001  0.026  0.040
   22  0.004  0.001  0.018  0.022
   23  0.013  0.001  0.025  0.039
   24  0.000  0.000  0.028  0.028
   25  0.000  0.001  0.008  0.009
   26  0.002  0.000  0.015  0.017
   27  0.004  0.001  0.017  0.022
   28  0.000  0.000  0.005  0.005
   29  0.004  0.001  0.005  0.009
   30  0.006  0.001  0.007  0.014
   31  0.003  0.001  0.005  0.009
   32  0.000  0.000  0.003  0.004
   33  0.006  0.001  0.007  0.014
   34  0.000  0.000  0.003  0.004
   35  0.000  0.000  0.001  0.002
   36  0.000  0.002  0.026  0.028
   37  0.000  0.008  0.000  0.008
tot    0.144  0.036  0.575  0.755
 
band    15 # energy   -5.51295365 # occ.  2.00000000
 
ion      s      p      d    tot
    1  0.014  0.002  0.002  0.018
    2  0.000  0.001  0.007  0.008
    3  0.000  0.001  0.007  0.008
    4  0.000  0.001  0.007  0.008
    5  0.000  0.000  0.002  0.002
    6  0.000  0.001  0.007  0.008
    7  0.000  0.001  0.007  0.008
    8  0.000  0.001  0.007  0.008
    9  0.013  0.001  0.000  0.014
   10  0.010  0.001  0.012  0.023
   11  0.003  0.000  0.042  0.046
   12  0.010  0.001  0.012  0.023
   13  0.003  0.000  0.042  0.046
   14  0.003  0.000  0.042  0.046
   15  0.002  0.001  0.023  0.026
   16  0.010  0.001  0.012  0.023
   17  0.002  0.001  0.023  0.026
   18  0.002  0.001  0.023  0.026
   19  0.004  0.001  0.008  0.013
   20  0.000  0.000  0.055  0.055
   21  0.000  0.000  0.055  0.055
   22  0.011  0.001  0.025  0.037
   23  0.000  0.000  0.055  0.055
   24  0.011  0.001  0.025  0.037
   25  0.004  0.001  0.008  0.013
   26  0.004  0.001  0.008  0.013
   27  0.011  0.001  0.025  0.037
   28  0.017  0.001  0.000  0.018
   29  0.000  0.000  0.007  0.008
   30  0.000  0.000  0.007  0.008
   31  0.000  0.000  0.007  0.008
   32  0.000  0.000  0.007  0.008
   33  0.000  0.000  0.007  0.008
   34  0.000  0.000  0.007  0.008
   35  0.002  0.001  0.005  0.008
   36  0.001  0.000  0.004  0.005
   37  0.000  0.001  0.000  0.001
tot    0.141  0.026  0.594  0.761
 
band    16 # energy   -5.43161149 # occ.  2.00000000
 
ion      s      p      d    tot
    1  0.000  0.001  0.014  0.015
    2  0.000  0.001  0.005  0.006
    3  0.008  0.001  0.004  0.014
    4  0.000  0.001  0.005  0.006
    5  0.000  0.000  0.006  0.006
    6  0.005  0.001  0.004  0.010
    7  0.009  0.001  0.004  0.014
    8  0.005  0.001  0.004  0.010
    9  0.000  0.001  0.006  0.007
   10  0.011  0.000  0.017  0.029
   11  0.000  0.001  0.017  0.018
   12  0.003  0.000  0.030  0.033
   13  0.000  0.001  0.017  0.018
   14  0.000  0.001  0.022  0.023
   15  0.003  0.001  0.047  0.051
   16  0.003  0.000  0.030  0.033
   17  0.003  0.001  0.046  0.050
   18  0.012  0.002  0.006  0.021
   19  0.005  0.000  0.052  0.057
   20  0.000  0.000  0.026  0.026
   21  0.000  0.001  0.025  0.027
   22  0.006  0.001  0.025  0.031
   23  0.000  0.001  0.025  0.027
   24  0.022  0.001  0.018  0.041
   25  0.021  0.001  0.004  0.026
   26  0.005  0.001  0.051  0.057
   27  0.005  0.001  0.025  0.031
   28  0.000  0.001  0.005  0.006
   29  0.002  0.000  0.004  0.006
   30  0.007  0.001  0.003  0.010
   31  0.002  0.000  0.004  0.006
   32  0.001  0.001  0.005  0.007
   33  0.007  0.001  0.003  0.010
   34  0.002  0.001  0.005  0.007
   35  0.000  0.001  0.008  0.009
   36  0.000  0.000  0.003  0.003
   37  0.000  0.000  0.000  0.000
tot    0.147  0.028  0.576  0.751
 
band    17 # energy   -5.43160892 # occ.  2.00000000
 
ion      s      p      d    tot
    1  0.000  0.001  0.014  0.015
    2  0.009  0.001  0.004  0.014
    3  0.001  0.000  0.005  0.006
    4  0.009  0.001  0.004  0.014
    5  0.000  0.000  0.006  0.006
    6  0.004  0.001  0.005  0.010
    7  0.001  0.000  0.005  0.006
    8  0.004  0.001  0.005  0.010
    9  0.000  0.001  0.006  0.007
   10  0.000  0.000  0.034  0.035
   11  0.000  0.001  0.020  0.021
   12  0.008  0.000  0.022  0.030
   13  0.000  0.001  0.020  0.021
   14  0.000  0.001  0.015  0.016
   15  0.009  0.002  0.019  0.030
   16  0.009  0.000  0.021  0.030
   17  0.009  0.002  0.020  0.031
   18  0.000  0.000  0.060  0.060
   19  0.016  0.001  0.019  0.036
   20  0.000  0.002  0.025  0.027
   21  0.000  0.001  0.026  0.026
   22  0.016  0.001  0.020  0.037
   23  0.000  0.001  0.026  0.026
   24  0.000  0.001  0.027  0.028
   25  0.000  0.000  0.067  0.067
   26  0.015  0.001  0.020  0.037
   27  0.017  0.001  0.020  0.038
   28  0.000  0.001  0.005  0.006
   29  0.005  0.001  0.004  0.009
   30  0.000  0.000  0.005  0.006
   31  0.005  0.001  0.003  0.009
   32  0.005  0.001  0.003  0.009
   33  0.000  0.000  0.005  0.006
   34  0.005  0.001  0.003  0.009
   35  0.000  0.001  0.008  0.009
   36  0.000  0.000  0.003  0.003
   37  0.000  0.000  0.000  0.000
tot    0.147  0.028  0.576  0.751
 
band    18 # energy   -5.22462432 # occ.  2.00000000
 
ion      s      p      d    tot
    1  0.002  0.000  0.000  0.003
    2  0.000  0.000  0.004  0.005
    3  0.000  0.000  0.004  0.005
    4  0.000  0.000  0.004  0.005
    5  0.013  0.001  0.003  0.017
    6  0.000  0.000  0.004  0.005
    7  0.000  0.000  0.004  0.005
    8  0.000  0.000  0.004  0.005
    9  0.002  0.000  0.003  0.005
   10  0.000  0.000  0.009  0.009
   11  0.000  0.002  0.051  0.053
   12  0.000  0.000  0.009  0.009
   13  0.000  0.002  0.051  0.053
   14  0.000  0.002  0.051  0.052
   15  0.000  0.000  0.017  0.018
   16  0.000  0.000  0.009  0.009
   17  0.000  0.000  0.017  0.018
   18  0.000  0.000  0.017  0.018
   19  0.000  0.000  0.015  0.015
   20  0.007  0.000  0.044  0.051
   21  0.007  0.000  0.044  0.051
   22  0.002  0.001  0.028  0.030
   23  0.007  0.000  0.044  0.051
   24  0.002  0.001  0.028  0.030
   25  0.000  0.000  0.015  0.015
   26  0.000  0.000  0.015  0.015
   27  0.002  0.001  0.028  0.030
   28  0.001  0.000  0.000  0.001
   29  0.000  0.001  0.013  0.013
   30  0.000  0.001  0.013  0.013
   31  0.000  0.001  0.013  0.013
   32  0.000  0.001  0.013  0.013
   33  0.000  0.001  0.013  0.013
   34  0.000  0.001  0.013  0.013
   35  0.019  0.001  0.002  0.021
   36  0.004  0.001  0.065  0.069
   37  0.006  0.071  0.000  0.077
tot    0.073  0.089  0.664  0.825
 
band    19 # energy   -5.16460425 # occ.  2.00000000
 
ion      s      p      d    tot
    1  0.000  0.000  0.008  0.008
    2  0.002  0.001  0.004  0.007
    3  0.001  0.000  0.006  0.008
    4  0.001  0.000  0.005  0.006
    5  0.000  0.001  0.011  0.011
    6  0.004  0.000  0.004  0.009
    7  0.001  0.000  0.007  0.007
    8  0.004  0.000  0.004  0.009
    9  0.000  0.000  0.001  0.001
   10  0.000  0.001  0.028  0.028
   11  0.000  0.000  0.053  0.053
   12  0.000  0.000  0.009  0.009
   13  0.000  0.000  0.054  0.055
   14  0.001  0.000  0.045  0.046
   15  0.000  0.000  0.016  0.016
   16  0.000  0.000  0.011  0.012
   17  0.000  0.000  0.015  0.015
   18  0.000  0.000  0.021  0.021
   19  0.000  0.000  0.006  0.006
   20  0.000  0.000  0.117  0.118
   21  0.000  0.000  0.063  0.063
   22  0.000  0.000  0.034  0.035
   23  0.000  0.000  0.070  0.071
   24  0.002  0.000  0.015  0.017
   25  0.001  0.000  0.013  0.014
   26  0.000  0.000  0.004  0.005
   27  0.001  0.000  0.032  0.033
   28  0.000  0.000  0.000  0.000
   29  0.000  0.000  0.011  0.011
   30  0.000  0.000  0.006  0.006
   31  0.000  0.000  0.010  0.010
   32  0.000  0.000  0.009  0.009
   33  0.000  0.000  0.006  0.006
   34  0.000  0.000  0.010  0.010
   35  0.000  0.000  0.001  0.001
   36  0.000  0.000  0.067  0.067
   37  0.000  0.046  0.000  0.046
tot    0.020  0.053  0.775  0.849
 
band    20 # energy   -5.16460393 # occ.  2.00000000
 
ion      s      p      d    tot
    1  0.000  0.000  0.008  0.008
    2  0.003  0.000  0.006  0.008
    3  0.004  0.001  0.004  0.008
    4  0.003  0.000  0.005  0.009
    5  0.000  0.001  0.011  0.011
    6  0.000  0.000  0.006  0.006
    7  0.004  0.001  0.003  0.008
    8  0.000  0.000  0.006  0.006
    9  0.000  0.000  0.001  0.001
   10  0.000  0.000  0.004  0.004
   11  0.000  0.000  0.049  0.049
   12  0.000  0.001  0.023  0.024
   13  0.000  0.000  0.047  0.048
   14  0.000  0.000  0.057  0.057
   15  0.000  0.000  0.019  0.019
   16  0.000  0.001  0.021  0.021
   17  0.000  0.000  0.019  0.020
   18  0.000  0.000  0.014  0.014
   19  0.000  0.000  0.010  0.010
   20  0.000  0.000  0.050  0.050
   21  0.000  0.000  0.104  0.104
   22  0.002  0.000  0.019  0.021
   23  0.000  0.000  0.097  0.097
   24  0.000  0.000  0.039  0.039
   25  0.000  0.000  0.002  0.002
   26  0.001  0.000  0.011  0.012
   27  0.002  0.000  0.022  0.024
   28  0.000  0.000  0.000  0.000
   29  0.000  0.000  0.006  0.007
   30  0.000  0.000  0.011  0.012
   31  0.000  0.000  0.007  0.007
   32  0.000  0.000  0.008  0.008
   33  0.000  0.000  0.011  0.012
   34  0.000  0.000  0.007  0.008
   35  0.000  0.000  0.001  0.001
   36  0.000  0.000  0.067  0.067
   37  0.000  0.046  0.000  0.046
tot    0.020  0.053  0.775  0.849
 
band    21 # energy   -5.14923699 # occ.  2.00000000
 
ion      s      p      d    tot
    1  0.013  0.000  0.007  0.020
    2  0.000  0.001  0.021  0.022
    3  0.000  0.001  0.021  0.022
    4  0.000  0.001  0.021  0.022
    5  0.001  0.000  0.000  0.002
    6  0.000  0.001  0.021  0.022
    7  0.000  0.001  0.021  0.022
    8  0.000  0.001  0.021  0.022
    9  0.024  0.001  0.005  0.030
   10  0.001  0.001  0.019  0.021
   11  0.000  0.000  0.012  0.012
   12  0.001  0.001  0.019  0.021
   13  0.000  0.000  0.012  0.012
   14  0.000  0.000  0.012  0.012
   15  0.000  0.000  0.035  0.036
   16  0.001  0.001  0.019  0.021
   17  0.000  0.000  0.035  0.036
   18  0.000  0.000  0.035  0.036
   19  0.000  0.000  0.032  0.032
   20  0.000  0.000  0.033  0.033
   21  0.000  0.000  0.033  0.033
   22  0.000  0.000  0.025  0.025
   23  0.000  0.000  0.033  0.033
   24  0.000  0.000  0.025  0.025
   25  0.000  0.000  0.032  0.032
   26  0.000  0.000  0.032  0.032
   27  0.000  0.000  0.025  0.025
   28  0.004  0.000  0.013  0.017
   29  0.000  0.001  0.018  0.019
   30  0.000  0.001  0.018  0.019
   31  0.000  0.001  0.018  0.019
   32  0.000  0.001  0.018  0.019
   33  0.000  0.001  0.018  0.019
   34  0.000  0.001  0.018  0.019
   35  0.009  0.000  0.000  0.010
   36  0.018  0.000  0.003  0.021