PROCAR new format
# of k-points:   10         # of bands:  252         # of ions:   37

 k-point     1 :    0.00000000 0.00000000 0.00000000     weight = 0.01562500

band     1 # energy  -10.45725824 # occ.  2.00000000
 
ion      s      p      d    tot
    1  0.000  0.000  0.000  0.000
    2  0.000  0.000  0.000  0.000
    3  0.000  0.000  0.000  0.000
    4  0.000  0.000  0.000  0.000
    5  0.000  0.000  0.000  0.000
    6  0.000  0.000  0.000  0.000
    7  0.000  0.000  0.000  0.000
    8  0.000  0.000  0.000  0.000
    9  0.000  0.000  0.000  0.000
   10  0.000  0.000  0.000  0.000
   11  0.000  0.000  0.000  0.000
   12  0.000  0.000  0.000  0.000
   13  0.000  0.000  0.000  0.000
   14  0.000  0.000  0.000  0.000
   15  0.000  0.000  0.000  0.000
   16  0.000  0.000  0.000  0.000
   17  0.000  0.000  0.000  0.000
   18  0.000  0.000  0.000  0.000
   19  0.000  0.000  0.000  0.000
   20  0.001  0.000  0.001  0.002
   21  0.001  0.000  0.001  0.002
   22  0.000  0.000  0.000  0.000
   23  0.001  0.000  0.001  0.002
   24  0.000  0.000  0.000  0.000
   25  0.000  0.000  0.000  0.000
   26  0.000  0.000  0.000  0.000
   27  0.000  0.000  0.000  0.000
   28  0.000  0.000  0.000  0.000
   29  0.001  0.000  0.000  0.001
   30  0.001  0.000  0.000  0.001
   31  0.001  0.000  0.000  0.001
   32  0.001  0.000  0.000  0.001
   33  0.001  0.000  0.000  0.001
   34  0.001  0.000  0.000  0.001
   35  0.000  0.000  0.000  0.000
   36  0.088  0.070  0.255  0.412
   37  0.409  0.034  0.000  0.444
tot    0.504  0.106  0.260  0.869
 
band     2 # energy   -8.54675450 # occ.  2.00000000
 
ion      s      p      d    tot
    1  0.007  0.001  0.000  0.007
    2  0.007  0.001  0.000  0.007
    3  0.007  0.001  0.000  0.007
    4  0.007  0.001  0.000  0.007
    5  0.007  0.001  0.000  0.007
    6  0.007  0.001  0.000  0.007
    7  0.007  0.001  0.000  0.007
    8  0.007  0.001  0.000  0.007
    9  0.007  0.001  0.000  0.007
   10  0.027  0.000  0.000  0.027
   11  0.027  0.000  0.000  0.027
   12  0.027  0.000  0.000  0.027
   13  0.027  0.000  0.000  0.027
   14  0.027  0.000  0.000  0.027
   15  0.027  0.000  0.000  0.027
   16  0.027  0.000  0.000  0.027
   17  0.027  0.000  0.000  0.027
   18  0.027  0.000  0.000  0.027
   19  0.024  0.000  0.000  0.025
   20  0.024  0.000  0.000  0.024
   21  0.024  0.000  0.000  0.024
   22  0.024  0.000  0.000  0.025
   23  0.024  0.000  0.000  0.024
   24  0.024  0.000  0.000  0.025
   25  0.024  0.000  0.000  0.025
   26  0.024  0.000  0.000  0.025
   27  0.024  0.000  0.000  0.025
   28  0.005  0.000  0.000  0.005
   29  0.005  0.000  0.000  0.005
   30  0.005  0.000  0.000  0.005
   31  0.005  0.000  0.000  0.005
   32  0.005  0.000  0.000  0.005
   33  0.005  0.000  0.000  0.005
   34  0.005  0.000  0.000  0.005
   35  0.005  0.000  0.000  0.005
   36  0.001  0.003  0.002  0.007
   37  0.003  0.000  0.000  0.003
tot    0.562  0.014  0.006  0.582
 
band     3 # energy   -7.38049128 # occ.  2.00000000
 
ion      s      p      d    tot
    1  0.017  0.000  0.001  0.019
    2  0.017  0.000  0.001  0.018
    3  0.017  0.000  0.001  0.018
    4  0.017  0.000  0.001  0.018
    5  0.017  0.000  0.001  0.018
    6  0.017  0.000  0.001  0.018
    7  0.017  0.000  0.001  0.018
    8  0.017  0.000  0.001  0.018
    9  0.016  0.000  0.001  0.018
   10  0.010  0.001  0.002  0.014
   11  0.010  0.001  0.002  0.014
   12  0.010  0.001  0.002  0.014
   13  0.010  0.001  0.002  0.014
   14  0.010  0.001  0.002  0.014
   15  0.009  0.002  0.002  0.013
   16  0.010  0.001  0.002  0.014
   17  0.009  0.002  0.002  0.013
   18  0.009  0.002  0.002  0.013
   19  0.015  0.001  0.003  0.019
   20  0.013  0.001  0.004  0.018
   21  0.013  0.001  0.004  0.018
   22  0.015  0.001  0.003  0.020
   23  0.013  0.001  0.004  0.018
   24  0.015  0.001  0.003  0.020
   25  0.015  0.001  0.003  0.019
   26  0.015  0.001  0.003  0.019
   27  0.015  0.001  0.003  0.020
   28  0.016  0.001  0.001  0.017
   29  0.014  0.001  0.001  0.015
   30  0.014  0.001  0.001  0.015
   31  0.014  0.001  0.001  0.015
   32  0.014  0.001  0.001  0.015
   33  0.014  0.001  0.001  0.015
   34  0.014  0.001  0.001  0.015
   35  0.016  0.001  0.001  0.017
   36  0.006  0.002  0.007  0.015
   37  0.002  0.000  0.000  0.002
tot    0.493  0.034  0.074  0.600
 
band     4 # energy   -6.45986298 # occ.  2.00000000
 
ion      s      p      d    tot
    1  0.005  0.000  0.014  0.019
    2  0.012  0.000  0.011  0.023
    3  0.012  0.000  0.011  0.023
    4  0.012  0.000  0.011  0.023
    5  0.010  0.000  0.009  0.019
    6  0.012  0.000  0.011  0.023
    7  0.012  0.000  0.011  0.023
    8  0.012  0.000  0.011  0.023
    9  0.026  0.000  0.008  0.033
   10  0.011  0.001  0.008  0.019
   11  0.006  0.001  0.008  0.016
   12  0.011  0.001  0.008  0.019
   13  0.006  0.001  0.008  0.016
   14  0.006  0.001  0.008  0.016
   15  0.000  0.001  0.009  0.011
   16  0.011  0.001  0.008  0.019
   17  0.000  0.001  0.009  0.011
   18  0.000  0.001  0.009  0.011
   19  0.002  0.001  0.009  0.012
   20  0.013  0.001  0.009  0.023
   21  0.013  0.001  0.009  0.023
   22  0.001  0.001  0.004  0.007
   23  0.013  0.001  0.009  0.023
   24  0.001  0.001  0.004  0.007
   25  0.002  0.001  0.009  0.012
   26  0.002  0.001  0.009  0.012
   27  0.001  0.001  0.004  0.007
   28  0.014  0.000  0.006  0.021
   29  0.013  0.000  0.009  0.022
   30  0.013  0.000  0.009  0.022
   31  0.013  0.000  0.009  0.022
   32  0.013  0.000  0.009  0.022
   33  0.013  0.000  0.009  0.022
   34  0.013  0.000  0.009  0.022
   35  0.024  0.000  0.007  0.031
   36  0.002  0.002  0.026  0.029
   37  0.001  0.001  0.000  0.002
tot    0.332  0.025  0.330  0.687
 
band     5 # energy   -6.41958438 # occ.  2.00000000
 
ion      s      p      d    tot
    1  0.021  0.000  0.007  0.029
    2  0.009  0.000  0.012  0.021
    3  0.009  0.000  0.012  0.021
    4  0.009  0.000  0.012  0.021
    5  0.009  0.000  0.013  0.022
    6  0.009  0.000  0.012  0.021
    7  0.009  0.000  0.012  0.021
    8  0.009  0.000  0.012  0.021
    9  0.002  0.001  0.013  0.016
   10  0.000  0.000  0.031  0.031
   11  0.004  0.000  0.024  0.028
   12  0.000  0.000  0.031  0.031
   13  0.004  0.000  0.024  0.028
   14  0.004  0.000  0.024  0.028
   15  0.022  0.001  0.015  0.038
   16  0.000  0.000  0.031  0.031
   17  0.022  0.001  0.015  0.038
   18  0.022  0.001  0.015  0.038
   19  0.004  0.000  0.016  0.021
   20  0.012  0.000  0.017  0.029
   21  0.012  0.000  0.017  0.029
   22  0.001  0.001  0.015  0.017
   23  0.012  0.000  0.017  0.029
   24  0.001  0.001  0.015  0.017
   25  0.005  0.000  0.016  0.021
   26  0.004  0.000  0.016  0.021
   27  0.001  0.001  0.015  0.017
   28  0.001  0.000  0.002  0.003
   29  0.002  0.000  0.004  0.006
   30  0.002  0.000  0.004  0.006
   31  0.002  0.000  0.004  0.006
   32  0.002  0.000  0.004  0.006
   33  0.002  0.000  0.004  0.006
   34  0.002  0.000  0.004  0.006
   35  0.008  0.000  0.002  0.009
   36  0.000  0.002  0.008  0.010
   37  0.001  0.000  0.000  0.002
tot    0.240  0.013  0.491  0.744
 
band     6 # energy   -6.41886614 # occ.  2.00000000
 
ion      s      p      d    tot
    1  0.000  0.001  0.010  0.010
    2  0.005  0.001  0.003  0.009
    3  0.000  0.000  0.003  0.003
    4  0.005  0.001  0.003  0.009
    5  0.000  0.001  0.005  0.006
    6  0.006  0.001  0.004  0.010
    7  0.000  0.000  0.003  0.003
    8  0.005  0.001  0.004  0.010
    9  0.000  0.000  0.002  0.002
   10  0.049  0.002  0.004  0.055
   11  0.009  0.003  0.013  0.026
   12  0.012  0.001  0.030  0.043
   13  0.010  0.003  0.013  0.026
   14  0.038  0.000  0.013  0.051
   15  0.000  0.002  0.011  0.013
   16  0.012  0.001  0.030  0.043
   17  0.000  0.002  0.011  0.013
   18  0.001  0.001  0.010  0.011
   19  0.006  0.003  0.008  0.018
   20  0.059  0.002  0.006  0.066
   21  0.015  0.001  0.031  0.047
   22  0.002  0.001  0.016  0.019
   23  0.014  0.001  0.031  0.047
   24  0.007  0.001  0.007  0.015
   25  0.023  0.000  0.014  0.037
   26  0.006  0.003  0.009  0.018
   27  0.002  0.001  0.016  0.019
   28  0.000  0.001  0.002  0.003
   29  0.005  0.001  0.003  0.010
   30  0.003  0.001  0.003  0.007
   31  0.005  0.001  0.003  0.009
   32  0.000  0.000  0.003  0.003
   33  0.003  0.001  0.003  0.007
   34  0.000  0.000  0.003  0.003
   35  0.000  0.000  0.003  0.003
   36  0.000  0.001  0.020  0.021
   37  0.000  0.001  0.000  0.001
tot    0.301  0.042  0.353  0.696
 
band     7 # energy   -6.41884636 # occ.  2.00000000
 
ion      s      p      d    tot
    1  0.000  0.001  0.010  0.010
    2  0.002  0.001  0.003  0.006
    3  0.007  0.001  0.003  0.011
    4  0.002  0.001  0.003  0.006
    5  0.000  0.001  0.005  0.006
    6  0.001  0.000  0.003  0.005
    7  0.007  0.001  0.003  0.011
    8  0.001  0.000  0.003  0.005
    9  0.000  0.000  0.002  0.002
   10  0.000  0.000  0.039  0.039
   11  0.029  0.001  0.013  0.043
   12  0.036  0.002  0.013  0.051
   13  0.028  0.001  0.013  0.043
   14  0.000  0.004  0.013  0.017
   15  0.000  0.001  0.010  0.012
   16  0.037  0.002  0.013  0.051
   17  0.000  0.001  0.010  0.012
   18  0.000  0.002  0.011  0.013
   19  0.017  0.001  0.012  0.031
   20  0.000  0.001  0.039  0.040
   21  0.044  0.001  0.015  0.060
   22  0.005  0.001  0.010  0.016
   23  0.044  0.001  0.014  0.060
   24  0.000  0.001  0.019  0.020
   25  0.000  0.004  0.007  0.011
   26  0.017  0.001  0.012  0.031
   27  0.005  0.001  0.010  0.016
   28  0.000  0.001  0.002  0.003
   29  0.001  0.000  0.003  0.004
   30  0.003  0.001  0.003  0.006
   31  0.001  0.000  0.003  0.004
   32  0.006  0.001  0.003  0.010
   33  0.003  0.001  0.003  0.006
   34  0.006  0.001  0.003  0.010
   35  0.000  0.000  0.003  0.003
   36  0.000  0.001  0.020  0.021
   37  0.000  0.001  0.000  0.001
tot    0.301  0.042  0.353  0.696
 
band     8 # energy   -6.39454924 # occ.  2.00000000
 
ion      s      p      d    tot
    1  0.007  0.001  0.001  0.009
    2  0.000  0.001  0.006  0.007
    3  0.000  0.001  0.006  0.007
    4  0.000  0.001  0.006  0.007
    5  0.016  0.002  0.001  0.019
    6  0.000  0.001  0.006  0.007
    7  0.000  0.001  0.006  0.007
    8  0.000  0.001  0.006  0.007
    9  0.000  0.000  0.002  0.002
   10  0.023  0.003  0.002  0.029
   11  0.022  0.001  0.021  0.043
   12  0.023  0.003  0.002  0.028
   13  0.022  0.001  0.021  0.043
   14  0.022  0.001  0.021  0.043
   15  0.001  0.001  0.025  0.026
   16  0.023  0.003  0.002  0.028
   17  0.001  0.001  0.025  0.026
   18  0.000  0.001  0.025  0.026
   19  0.023  0.002  0.009  0.034
   20  0.009  0.003  0.012  0.023
   21  0.009  0.003  0.012  0.023
   22  0.009  0.000  0.024  0.034
   23  0.009  0.003  0.012  0.023
   24  0.009  0.000  0.024  0.034
   25  0.023  0.002  0.009  0.034
   26  0.023  0.002  0.009  0.034
   27  0.009  0.000  0.024  0.034
   28  0.015  0.001  0.000  0.017
   29  0.000  0.000  0.005  0.006
   30  0.000  0.000  0.005  0.006
   31  0.000  0.000  0.005  0.006
   32  0.000  0.000  0.005  0.006
   33  0.000  0.000  0.005  0.006
   34  0.000  0.000  0.005  0.006
   35  0.002  0.001  0.003  0.006
   36  0.000  0.000  0.000  0.001
   37  0.000  0.000  0.000  0.000
tot    0.302  0.041  0.351  0.694
 
band     9 # energy   -6.38878038 # occ.  2.00000000
 
ion      s      p      d    tot
    1  0.000  0.001  0.002  0.002
    2  0.005  0.001  0.003  0.010
    3  0.000  0.000  0.003  0.004
    4  0.006  0.001  0.003  0.010
    5  0.000  0.000  0.006  0.007
    6  0.006  0.001  0.004  0.011
    7  0.000  0.000  0.003  0.004
    8  0.006  0.001  0.004  0.011
    9  0.000  0.001  0.009  0.011
   10  0.000  0.004  0.002  0.006
   11  0.015  0.001  0.012  0.028
   12  0.008  0.001  0.012  0.022
   13  0.015  0.001  0.012  0.028
   14  0.000  0.000  0.032  0.033
   15  0.046  0.001  0.014  0.062
   16  0.009  0.001  0.013  0.023
   17  0.045  0.001  0.015  0.061
   18  0.000  0.002  0.034  0.036
   19  0.024  0.002  0.011  0.037
   20  0.000  0.003  0.004  0.008
   21  0.001  0.001  0.012  0.014
   22  0.036  0.001  0.013  0.051
   23  0.001  0.001  0.012  0.014
   24  0.000  0.003  0.024  0.026
   25  0.000  0.000  0.036  0.036
   26  0.023  0.001  0.012  0.037
   27  0.037  0.001  0.013  0.052
   28  0.000  0.000  0.006  0.007
   29  0.005  0.001  0.003  0.009
   30  0.004  0.001  0.003  0.008
   31  0.005  0.001  0.003  0.009
   32  0.000  0.000  0.002  0.003
   33  0.004  0.001  0.003  0.007
   34  0.000  0.000  0.002  0.003
   35  0.000  0.001  0.006  0.007
   36  0.000  0.000  0.001  0.001
   37  0.000  0.000  0.000  0.000
tot    0.302  0.042  0.349  0.693
 
band    10 # energy   -6.38876494 # occ.  2.00000000
 
ion      s      p      d    tot
    1  0.000  0.001  0.002  0.002
    2  0.003  0.001  0.004  0.007
    3  0.008  0.001  0.004  0.013
    4  0.002  0.001  0.004  0.007
    5  0.000  0.000  0.006  0.007
    6  0.001  0.001  0.003  0.005
    7  0.008  0.001  0.004  0.013
    8  0.002  0.001  0.003  0.005
    9  0.000  0.001  0.009  0.011
   10  0.011  0.000  0.016  0.027
   11  0.005  0.001  0.026  0.031
   12  0.003  0.003  0.006  0.012
   13  0.005  0.001  0.025  0.031
   14  0.020  0.002  0.005  0.027
   15  0.014  0.002  0.028  0.044
   16  0.003  0.003  0.005  0.011
   17  0.016  0.002  0.027  0.045
   18  0.060  0.001  0.008  0.070
   19  0.007  0.000  0.028  0.036
   20  0.002  0.000  0.014  0.016
   21  0.000  0.003  0.007  0.010
   22  0.013  0.002  0.020  0.035
   23  0.000  0.003  0.007  0.010
   24  0.049  0.001  0.010  0.059
   25  0.032  0.002  0.003  0.037
   26  0.008  0.001  0.027  0.036
   27  0.011  0.002  0.020  0.034
   28  0.000  0.000  0.006  0.007
   29  0.001  0.000  0.003  0.004
   30  0.002  0.001  0.002  0.005
   31  0.001  0.000  0.003  0.004
   32  0.006  0.001  0.003  0.010
   33  0.002  0.001  0.002  0.005
   34  0.006  0.001  0.003  0.010
   35  0.000  0.001  0.006  0.007
   36  0.000  0.000  0.001  0.001
   37  0.000  0.000  0.000  0.000
tot    0.302  0.042  0.349  0.693
 
band    11 # energy   -6.33684218 # occ.  2.00000000
 
ion      s      p      d    tot
    1  0.004  0.000  0.001  0.006
    2  0.000  0.000  0.004  0.005
    3  0.000  0.000  0.004  0.005
    4  0.000  0.000  0.004  0.005
    5  0.003  0.000  0.000  0.003
    6  0.000  0.000  0.004  0.005
    7  0.000  0.000  0.004  0.005
    8  0.000  0.000  0.004  0.005
    9  0.010  0.001  0.001  0.012
   10  0.005  0.000  0.020  0.026
   11  0.008  0.002  0.006  0.016
   12  0.005  0.000  0.020  0.026
   13  0.008  0.002  0.006  0.016
   14  0.008  0.002  0.006  0.016
   15  0.018  0.002  0.011  0.030
   16  0.005  0.000  0.020  0.026
   17  0.018  0.002  0.011  0.030
   18  0.018  0.002  0.011  0.030
   19  0.003  0.001  0.020  0.024
   20  0.003  0.000  0.025  0.028
   21  0.003  0.000  0.025  0.028
   22  0.021  0.003  0.010  0.033
   23  0.003  0.000  0.025  0.028
   24  0.021  0.003  0.010  0.033
   25  0.003  0.001  0.020  0.024
   26  0.003  0.001  0.020  0.024
   27  0.021  0.003  0.010  0.033
   28  0.008  0.000  0.014  0.022
   29  0.010  0.000  0.010  0.021
   30  0.010  0.000  0.010  0.021
   31  0.010  0.000  0.010  0.021
   32  0.010  0.000  0.010  0.021
   33  0.010  0.000  0.010  0.021
   34  0.010  0.000  0.010  0.021
   35  0.004  0.000  0.011  0.015
   36  0.013  0.001  0.019  0.034
   37  0.000  0.000  0.000  0.001
tot    0.280  0.029  0.408  0.717
 
band    12 # energy   -5.94095758 # occ.  2.00000000
 
ion      s      p      d    tot
    1  0.000  0.001  0.004  0.005
    2  0.001  0.001  0.005  0.007
    3  0.010  0.001  0.005  0.016
    4  0.001  0.001  0.005  0.007
    5  0.000  0.002  0.010  0.012
    6  0.004  0.001  0.004  0.009
    7  0.010  0.001  0.005  0.016
    8  0.004  0.001  0.004  0.009
    9  0.000  0.000  0.010  0.010
   10  0.000  0.001  0.045  0.045
   11  0.017  0.001  0.020  0.038
   12  0.006  0.001  0.019  0.026
   13  0.017  0.001  0.020  0.038
   14  0.000  0.000  0.053  0.053
   15  0.003  0.000  0.019  0.022
   16  0.006  0.001  0.019  0.026
   17  0.003  0.000  0.019  0.022
   18  0.000  0.001  0.012  0.013
   19  0.004  0.000  0.018  0.022
   20  0.000  0.000  0.065  0.065
   21  0.017  0.001  0.020  0.038
   22  0.004  0.001  0.018  0.023
   23  0.017  0.001  0.020  0.038
   24  0.000  0.001  0.035  0.036
   25  0.000  0.001  0.010  0.011
   26  0.004  0.000  0.018  0.022
   27  0.004  0.001  0.018  0.023
   28  0.000  0.000  0.007  0.007
   29  0.003  0.001  0.004  0.007
   30  0.008  0.001  0.005  0.014
   31  0.003  0.001  0.004  0.007
   32  0.001  0.001  0.004  0.006
   33  0.008  0.001  0.005  0.014
   34  0.001  0.001  0.004  0.006
   35  0.000  0.000  0.003  0.003
   36  0.000  0.002  0.027  0.029
   37  0.000  0.001  0.000  0.001
tot    0.155  0.032  0.565  0.751
 
band    13 # energy   -5.94094116 # occ.  2.00000000
 
ion      s      p      d    tot
    1  0.000  0.001  0.004  0.005
    2  0.009  0.001  0.004  0.014
    3  0.000  0.000  0.005  0.005
    4  0.009  0.001  0.004  0.014
    5  0.000  0.002  0.010  0.012
    6  0.006  0.001  0.005  0.013
    7  0.000  0.000  0.005  0.005
    8  0.006  0.001  0.005  0.013
    9  0.000  0.000  0.010  0.010
   10  0.008  0.002  0.010  0.020
   11  0.006  0.000  0.042  0.048
   12  0.002  0.001  0.036  0.039
   13  0.006  0.000  0.042  0.048
   14  0.023  0.001  0.009  0.033
   15  0.001  0.001  0.014  0.016
   16  0.002  0.001  0.036  0.039
   17  0.001  0.001  0.014  0.016
   18  0.003  0.000  0.022  0.025
   19  0.001  0.001  0.013  0.015
   20  0.023  0.001  0.006  0.030
   21  0.006  0.000  0.050  0.056
   22  0.001  0.001  0.030  0.032
   23  0.006  0.000  0.050  0.056
   24  0.005  0.001  0.012  0.018
   25  0.005  0.000  0.021  0.026
   26  0.001  0.001  0.013  0.015
   27  0.001  0.001  0.030  0.032
   28  0.000  0.000  0.007  0.007
   29  0.005  0.001  0.005  0.011
   30  0.000  0.000  0.004  0.004
   31  0.005  0.001  0.005  0.011
   32  0.006  0.001  0.004  0.012
   33  0.000  0.000  0.004  0.004
   34  0.006  0.001  0.004  0.012
   35  0.000  0.000  0.003  0.003
   36  0.000  0.002  0.027  0.029
   37  0.000  0.001  0.000  0.001
tot    0.155  0.032  0.565  0.751
 
band    14 # energy   -5.91881307 # occ.  2.00000000
 
ion      s      p      d    tot
    1  0.009  0.001  0.002  0.012
    2  0.000  0.001  0.008  0.009
    3  0.000  0.001  0.008  0.009
    4  0.000  0.001  0.008  0.009
    5  0.001  0.000  0.001  0.003
    6  0.000  0.001  0.008  0.009
    7  0.000  0.001  0.008  0.009
    8  0.000  0.001  0.008  0.009
    9  0.018  0.002  0.000  0.020
   10  0.010  0.001  0.016  0.027
   11  0.001  0.000  0.043  0.044
   12  0.010  0.001  0.016  0.027
   13  0.001  0.000  0.043  0.044
   14  0.001  0.000  0.043  0.044
   15  0.004  0.001  0.017  0.023
   16  0.010  0.001  0.016  0.027
   17  0.004  0.001  0.017  0.023
   18  0.004  0.001  0.017  0.023
   19  0.002  0.001  0.024  0.027
   20  0.004  0.000  0.046  0.050
   21  0.004  0.000  0.046  0.050
   22  0.013  0.001  0.011  0.025
   23  0.004  0.000  0.046  0.050
   24  0.013  0.001  0.011  0.025
   25  0.002  0.001  0.024  0.027
   26  0.002  0.001  0.024  0.027
   27  0.013  0.001  0.011  0.025
   28  0.014  0.001  0.000  0.015
   29  0.000  0.001  0.007  0.008
   30  0.000  0.001  0.007  0.008
   31  0.000  0.001  0.007  0.008
   32  0.000  0.001  0.007  0.008
   33  0.000  0.001  0.007  0.008
   34  0.000  0.001  0.007  0.008
   35  0.009  0.002  0.003  0.014
   36  0.000  0.001  0.002  0.003
   37  0.001  0.000  0.000  0.001
tot    0.152  0.030  0.569  0.750
 
band    15 # energy   -5.90563552 # occ.  2.00000000
 
ion      s      p      d    tot
    1  0.000  0.001  0.013  0.014
    2  0.001  0.001  0.005  0.007
    3  0.010  0.001  0.005  0.016
    4  0.001  0.001  0.005  0.007
    5  0.000  0.000  0.006  0.006
    6  0.005  0.001  0.004  0.010
    7  0.010  0.001  0.005  0.016
    8  0.005  0.001  0.004  0.010
    9  0.000  0.001  0.006  0.007
   10  0.013  0.000  0.018  0.032
   11  0.000  0.001  0.017  0.018
   12  0.003  0.001  0.029  0.033
   13  0.000  0.001  0.017  0.018
   14  0.000  0.001  0.020  0.021
   15  0.004  0.001  0.047  0.052
   16  0.003  0.001  0.029  0.033
   17  0.004  0.001  0.047  0.052
   18  0.016  0.002  0.005  0.023
   19  0.005  0.001  0.050  0.055
   20  0.000  0.000  0.020  0.021
   21  0.000  0.001  0.019  0.021
   22  0.005  0.001  0.027  0.032
   23  0.000  0.001  0.019  0.021
   24  0.019  0.001  0.017  0.037
   25  0.019  0.002  0.005  0.025
   26  0.005  0.001  0.050  0.055
   27  0.005  0.001  0.027  0.032
   28  0.000  0.001  0.005  0.006
   29  0.002  0.000  0.004  0.006
   30  0.008  0.001  0.004  0.013
   31  0.002  0.000  0.004  0.006
   32  0.002  0.001  0.005  0.007
   33  0.008  0.001  0.004  0.013
   34  0.002  0.001  0.005  0.007
   35  0.000  0.001  0.009  0.010
   36  0.000  0.000  0.004  0.004
   37  0.000  0.000  0.000  0.000
tot    0.156  0.031  0.561  0.747
 
band    16 # energy   -5.90561601 # occ.  2.00000000
 
ion      s      p      d    tot
    1  0.000  0.001  0.013  0.014
    2  0.009  0.001  0.004  0.015
    3  0.000  0.000  0.005  0.006
    4  0.009  0.001  0.004  0.015
    5  0.000  0.000  0.006  0.006
    6  0.005  0.001  0.005  0.012
    7  0.000  0.000  0.005  0.006
    8  0.005  0.001  0.005  0.012
    9  0.000  0.001  0.006  0.007
   10  0.000  0.001  0.033  0.034
   11  0.000  0.001  0.019  0.020
   12  0.010  0.001  0.022  0.032
   13  0.000  0.001  0.019  0.020
   14  0.000  0.001  0.016  0.017
   15  0.012  0.002  0.019  0.033
   16  0.010  0.001  0.022  0.032
   17  0.012  0.002  0.019  0.033
   18  0.000  0.000  0.061  0.061
   19  0.014  0.001  0.020  0.035
   20  0.000  0.002  0.019  0.020
   21  0.000  0.001  0.020  0.021
   22  0.014  0.001  0.020  0.035
   23  0.000  0.001  0.020  0.021
   24  0.000  0.001  0.030  0.030
   25  0.000  0.000  0.065  0.065
   26  0.014  0.001  0.020  0.035
   27  0.014  0.001  0.020  0.035
   28  0.000  0.001  0.005  0.006
   29  0.006  0.001  0.004  0.012
   30  0.000  0.000  0.004  0.005
   31  0.006  0.001  0.004  0.011
   32  0.006  0.001  0.003  0.010
   33  0.000  0.000  0.004  0.005
   34  0.006  0.001  0.003  0.010
   35  0.000  0.001  0.009  0.010
   36  0.000  0.000  0.004  0.004
   37  0.000  0.000  0.000  0.000
tot    0.156  0.031  0.561  0.747
 
band    17 # energy   -5.88622474 # occ.  2.00000000
 
ion      s      p      d    tot
    1  0.015  0.001  0.000  0.016
    2  0.000  0.001  0.009  0.010
    3  0.000  0.001  0.009  0.010
    4  0.000  0.001  0.009  0.010
    5  0.017  0.002  0.001  0.021
    6  0.000  0.001  0.009  0.010
    7  0.000  0.001  0.009  0.010
    8  0.000  0.001  0.009  0.010
    9  0.000  0.000  0.002  0.002
   10  0.000  0.001  0.038  0.039
   11  0.008  0.002  0.009  0.019
   12  0.000  0.001  0.038  0.039
   13  0.008  0.002  0.009  0.019
   14  0.008  0.002  0.009  0.019
   15  0.004  0.000  0.033  0.038
   16  0.000  0.001  0.038  0.039
   17  0.004  0.000  0.033  0.038
   18  0.004  0.000  0.033  0.038
   19  0.012  0.001  0.034  0.047
   20  0.008  0.001  0.006  0.016
   21  0.008  0.001  0.006  0.016
   22  0.000  0.000  0.041  0.041
   23  0.008  0.001  0.006  0.016
   24  0.000  0.000  0.041  0.041
   25  0.012  0.001  0.034  0.047
   26  0.012  0.001  0.034  0.047
   27  0.000  0.000  0.041  0.041
   28  0.002  0.001  0.006  0.009
   29  0.000  0.000  0.006  0.006
   30  0.000  0.000  0.006  0.006
   31  0.000  0.000  0.006  0.006
   32  0.000  0.000  0.006  0.006
   33  0.000  0.000  0.006  0.006
   34  0.000  0.000  0.006  0.006
   35  0.000  0.000  0.000  0.001
   36  0.009  0.004  0.000  0.014
   37  0.001  0.000  0.000  0.002
tot    0.145  0.030  0.585  0.760
 
band    18 # energy   -5.55159294 # occ.  2.00000000
 
ion      s      p      d    tot
    1  0.016  0.000  0.005  0.021
    2  0.000  0.001  0.013  0.013
    3  0.000  0.001  0.013  0.013
    4  0.000  0.001  0.013  0.013
    5  0.001  0.000  0.011  0.013
    6  0.000  0.001  0.013  0.013
    7  0.000  0.001  0.013  0.013
    8  0.000  0.001  0.013  0.013
    9  0.007  0.001  0.001  0.009
   10  0.000  0.000  0.024  0.025
   11  0.000  0.000  0.038  0.039
   12  0.000  0.000  0.024  0.025
   13  0.000  0.000  0.038  0.039
   14  0.000  0.000  0.038  0.039
   15  0.000  0.000  0.026  0.027
   16  0.000  0.000  0.024  0.025
   17  0.000  0.000  0.026  0.027
   18  0.000  0.000  0.026  0.027
   19  0.000  0.000  0.018  0.018
   20  0.001  0.000  0.034  0.035
   21  0.001  0.000  0.034  0.035
   22  0.000  0.000  0.033  0.034
   23  0.001  0.000  0.034  0.035
   24  0.000  0.000  0.033  0.034
   25  0.000  0.000  0.018  0.018
   26  0.000  0.000  0.018  0.018
   27  0.000  0.000  0.033  0.034
   28  0.004  0.000  0.000  0.005
   29  0.000  0.001  0.017  0.018
   30  0.000  0.001  0.017  0.018
   31  0.000  0.001  0.017  0.018
   32  0.000  0.001  0.017  0.018
   33  0.000  0.001  0.017  0.018
   34  0.000  0.001  0.017  0.018
   35  0.023  0.001  0.005  0.028
   36  0.003  0.000  0.021  0.024
   37  0.002  0.001  0.000  0.003
tot    0.062  0.017  0.746  0.825
 
band    19 # energy   -5.54679824 # occ.  2.00000000
 
ion      s      p      d    tot
    1  0.000  0.001  0.011  0.012
    2  0.000  0.000  0.014  0.015
    3  0.009  0.000  0.014  0.024
    4  0.000  0.000  0.014  0.015
    5  0.000  0.000  0.035  0.035
    6  0.006  0.001  0.010  0.017
    7  0.009  0.000  0.015  0.024
    8  0.006  0.001  0.010  0.016
    9  0.000  0.001  0.011  0.012
   10  0.000  0.000  0.022  0.023
   11  0.000  0.000  0.037  0.037
   12  0.000  0.000  0.011  0.012
   13  0.000  0.000  0.037  0.037
   14  0.000  0.000  0.035  0.035
   15  0.000  0.000  0.038  0.038
   16  0.000  0.000  0.012  0.012
   17  0.000  0.000  0.038  0.038
   18  0.000  0.000  0.047  0.048
   19  0.000  0.000  0.012  0.012
   20  0.001  0.000  0.044  0.045
   21  0.000  0.000  0.027  0.027
   22  0.000  0.000  0.037  0.038
   23  0.000  0.000  0.027  0.028
   24  0.000  0.000  0.039  0.040
   25  0.000  0.000  0.012  0.013
   26  0.000  0.000  0.012  0.012
   27  0.000  0.000  0.037  0.038
   28  0.000  0.000  0.014  0.014
   29  0.003  0.000  0.011  0.015
   30  0.001  0.000  0.007  0.008
   31  0.003  0.000  0.011  0.014
   32  0.007  0.001  0.008  0.015
   33  0.001  0.000  0.007  0.008
   34  0.007  0.001  0.008  0.015
   35  0.000  0.000  0.016  0.016
   36  0.000  0.001  0.024  0.025
   37  0.000  0.001  0.000  0.001
tot    0.054  0.013  0.765  0.833
 
band    20 # energy   -5.54679610 # occ.  2.00000000
 
ion      s      p      d    tot
    1  0.000  0.001  0.011  0.012
    2  0.010  0.001  0.012  0.022
    3  0.001  0.001  0.011  0.013
    4  0.010  0.001  0.012  0.022
    5  0.000  0.000  0.035  0.035
    6  0.004  0.000  0.016  0.020
    7  0.001  0.001  0.011  0.013
    8  0.005  0.000  0.016  0.021
    9  0.000  0.001  0.011  0.012
   10  0.000  0.000  0.008  0.008
   11  0.000  0.000  0.035  0.036
   12  0.000  0.000  0.019  0.019
   13  0.000  0.000  0.035  0.036
   14  0.000  0.000  0.038  0.038
   15  0.000  0.000  0.044  0.044
   16  0.000  0.000  0.018  0.019
   17  0.000  0.000  0.044  0.045
   18  0.000  0.000  0.035  0.035
   19  0.000  0.000  0.012  0.012
   20  0.000  0.000  0.022  0.022
   21  0.001  0.000  0.039  0.040
   22  0.000  0.000  0.039  0.039
   23  0.001  0.000  0.038  0.039
   24  0.000  0.000  0.037  0.037
   25  0.000  0.000  0.012  0.012
   26  0.000  0.000  0.012  0.013
   27  0.000  0.000  0.039  0.039
   28  0.000  0.000  0.014  0.014
   29  0.004  0.001  0.006  0.010
   30  0.006  0.000  0.010  0.017
   31  0.004  0.001  0.006  0.011
   32  0.000  0.000  0.010  0.011
   33  0.006  0.000  0.010  0.017
   34  0.000  0.000  0.010  0.010
   35  0.000  0.000  0.016  0.016
   36  0.000  0.001  0.024  0.025
   37  0.000  0.001  0.000  0.001
tot    0.054  0.013  0.765  0.833
 
band    21 # energy   -5.53299083 # occ.  2.00000000
 
ion      s      p      d    tot
    1  0.000  0.001  0.028  0.029
    2  0.012  0.001  0.013  0.026
    3  0.002  0.001  0.012  0.014
    4  0.012  0.001  0.013  0.026
    5  0.000  0.002  0.005  0.007
    6  0.005  0.000  0.017  0.022
    7  0.002  0.001  0.012  0.014
    8  0.005  0.000  0.017  0.022
    9  0.000  0.000  0.030  0.030
   10  0.000  0.001  0.051  0.052
   11  0.000  0.000  0.025  0.026
   12  0.000  0.000  0.048  0.048
   13  0.000  0.000  0.025  0.025
   14  0.000  0.000  0.034  0.034
   15  0.000  0.000  0.015  0.015
   16  0.000  0.000  0.048  0.048
   17  0.000  0.000  0.015  0.015
   18  0.000  0.000  0.016  0.017
   19  0.000  0.000  0.030  0.031
   20  0.000  0.000  0.032  0.032
   21  0.000  0.000  0.025  0.025
   22  0.000  0.000  0.008  0.009
   23  0.000  0.000  0.025  0.026
   24  0.001  0.000  0.011  0.013
   25  0.001  0.000  0.042  0.043
   26  0.000  0.000  0.030  0.030
   27  0.000  0.000  0.008  0.009
   28  0.000  0.001  0.010  0.011
   29  0.005  0.001  0.008  0.013
   30  0.009  0.001  0.009  0.018
   31  0.005  0.001  0.008  0.014
   32  0.001  0.000  0.010  0.011
   33  0.009  0.001  0.009  0.018
   34  0.001  0.000  0.010  0.011
   35  0.000  0.001  0.009  0.010
   36  0.000  0.000  0.024  0.024