 vasp.6.2.0 18Jan21 (build Jun 12 2021 23:27:24) complex                        
  
 executed on             LinuxIFC date 2022.05.28  02:10:44
 running on   28 total cores
 distrk:  each k-point on   28 cores,    1 groups
 distr:  one band on NCORE=   1 cores,   28 groups


--------------------------------------------------------------------------------------------------------


 INCAR:
   ISMEAR = -5
   SIGMA = 0.1
   ISPIN = 1
   EDIFF = 1.d-5
   EDIFFG = -0.01
   NSW = 0
   NELM = 150
   ENCUT = 500
   ISIF = 2
   IBRION = 2
   LREAL = Auto
   ALGO = Fast
   ICHARG = 11
   LORBIT = 10
   LCHARG = .F.
   LWAVE = .F.

 POTCAR:    PAW_PBE Ag 02Apr2005                  
 POTCAR:    PAW_PBE Pt 04Feb2005                  
 POTCAR:    PAW_PBE H 15Jun2001                   
 POTCAR:    PAW_PBE O 08Apr2002                   
 -----------------------------------------------------------------------------
|                                                                             |
|           W    W    AA    RRRRR   N    N  II  N    N   GGGG   !!!           |
|           W    W   A  A   R    R  NN   N  II  NN   N  G    G  !!!           |
|           W    W  A    A  R    R  N N  N  II  N N  N  G       !!!           |
|           W WW W  AAAAAA  RRRRR   N  N N  II  N  N N  G  GGG   !            |
|           WW  WW  A    A  R   R   N   NN  II  N   NN  G    G                |
|           W    W  A    A  R    R  N    N  II  N    N   GGGG   !!!           |
|                                                                             |
|     For optimal performance we recommend to set                             |
|       NCORE = 2 up to number-of-cores-per-socket                            |
|     NCORE specifies how many cores store one orbital (NPAR=cpu/NCORE).      |
|     This setting can greatly improve the performance of VASP for DFT.       |
|     The default, NCORE=1 might be grossly inefficient on modern             |
|     multi-core architectures or massively parallel machines. Do your        |
|     own testing! More info at https://www.vasp.at/wiki/index.php/NCORE      |
|     Unfortunately you need to use the default for GW and RPA                |
|     calculations (for HF NCORE is supported but not extensively tested      |
|     yet).                                                                   |
|                                                                             |
 -----------------------------------------------------------------------------

 POTCAR:    PAW_PBE Ag 02Apr2005                  
   VRHFIN =Ag : s1 d10                                                                              
   LEXCH  = PE                                                                                      
   EATOM  =  1037.2675 eV,   76.2370 Ry                                                             
                                                                                                    
   TITEL  = PAW_PBE Ag 02Apr2005                                                                    
   LULTRA =        F    use ultrasoft PP ?                                                          
   IUNSCR =        1    unscreen: 0-lin 1-nonlin 2-no                                               
   RPACOR =    2.000    partial core radius                                                         
   POMASS =  107.868; ZVAL   =   11.000    mass and valenz                                          
   RCORE  =    2.500    outmost cutoff radius                                                       
   RWIGS  =    2.840; RWIGS  =    1.503    wigner-seitz radius (au A)                               
   ENMAX  =  249.844; ENMIN  =  187.383 eV                                                          
   ICORE  =        3    local potential                                                             
   LCOR   =        T    correct aug charges                                                         
   LPAW   =        T    paw PP                                                                      
   EAUG   =  412.496                                                                                
   DEXC   =    0.000                                                                                
   RMAX   =    2.560    core radius for proj-oper                                                   
   RAUG   =    1.300    factor for augmentation sphere                                              
   RDEP   =    2.576    radius for radial grids                                                     
   RDEPT  =    2.072    core radius for aug-charge                                                  
                                                                                                    
   Atomic configuration                                                                             
   12 entries                                                                                       
     n  l   j            E        occ.                                                              
     1  0  0.50    -25324.9161   2.0000                                                             
     2  0  0.50     -3728.5341   2.0000                                                             
     2  1  1.50     -3344.0404   6.0000                                                             
     3  0  0.50      -683.5581   2.0000                                                             
     3  1  1.50      -557.3225   6.0000                                                             
     3  2  2.50      -358.3853  10.0000                                                             
     4  0  0.50       -95.0341   2.0000                                                             
     4  1  1.50       -58.5511   6.0000                                                             
     4  2  2.50        -7.4440  10.0000                                                             
     5  0  0.50        -4.4045   1.0000                                                             
     5  1  0.50        -1.3606   0.0000                                                             
     4  3  2.50        -1.3606   0.0000                                                             
   Description                                                                                      
     l       E           TYP  RCUT    TYP  RCUT                                                     
     2     -7.4439781     23  2.400                                                                 
     2     -8.8045607     23  2.400                                                                 
     0     -4.4044681     23  2.400                                                                 
     0      1.9520038     23  2.400                                                                 
     1     -1.3605826     23  2.500                                                                 
     1     27.2116520     23  2.500                                                                 
     3     -4.0817478     23  2.400                                                                 
  local pseudopotential read in
  partial core-charges read in
  partial kinetic energy density read in
  atomic valenz-charges read in
  non local Contribution for L=           2  read in
    real space projection operators read in
  non local Contribution for L=           2  read in
    real space projection operators read in
  non local Contribution for L=           0  read in
    real space projection operators read in
  non local Contribution for L=           0  read in
    real space projection operators read in
  non local Contribution for L=           1  read in
    real space projection operators read in
  non local Contribution for L=           1  read in
    real space projection operators read in
    PAW grid and wavefunctions read in
 
   number of l-projection  operators is LMAX  =           6
   number of lm-projection operators is LMMAX =          18
 
 POTCAR:    PAW_PBE Pt 04Feb2005                  
   VRHFIN =Pt: s1d9                                                                                 
   LEXCH  = PE                                                                                      
   EATOM  =   729.1176 eV,   53.5886 Ry                                                             
                                                                                                    
   TITEL  = PAW_PBE Pt 04Feb2005                                                                    
   LULTRA =        F    use ultrasoft PP ?                                                          
   IUNSCR =        1    unscreen: 0-lin 1-nonlin 2-no                                               
   RPACOR =    2.330    partial core radius                                                         
   POMASS =  195.080; ZVAL   =   10.000    mass and valenz                                          
   RCORE  =    2.600    outmost cutoff radius                                                       
   RWIGS  =    2.750; RWIGS  =    1.455    wigner-seitz radius (au A)                               
   ENMAX  =  230.283; ENMIN  =  172.712 eV                                                          
   ICORE  =        3    local potential                                                             
   LCOR   =        T    correct aug charges                                                         
   LPAW   =        T    paw PP                                                                      
   EAUG   =  358.966                                                                                
   DEXC   =    0.000                                                                                
   RMAX   =    2.658    core radius for proj-oper                                                   
   RAUG   =    1.300    factor for augmentation sphere                                              
   RDEP   =    2.761    radius for radial grids                                                     
   RDEPT  =    2.203    core radius for aug-charge                                                  
                                                                                                    
   Atomic configuration                                                                             
   16 entries                                                                                       
     n  l   j            E        occ.                                                              
     1  0  0.50    -78401.1885   2.0000                                                             
     2  0  0.50    -13770.7750   2.0000                                                             
     2  1  1.50    -11931.0468   6.0000                                                             
     3  0  0.50     -3234.7234   2.0000                                                             
     3  1  1.50     -2699.2216   6.0000                                                             
     3  2  2.50     -2119.5714  10.0000                                                             
     4  0  0.50      -695.1528   2.0000                                                             
     4  1  1.50      -519.6034   6.0000                                                             
     4  2  2.50      -306.6786  10.0000                                                             
     4  3  3.50       -70.1041  14.0000                                                             
     5  0  0.50      -101.7747   2.0000                                                             
     5  1  1.50       -55.9873   6.0000                                                             
     5  2  2.50        -6.1423   9.0000                                                             
     6  0  0.50        -5.6573   1.0000                                                             
     6  1  1.50        -6.8029   0.0000                                                             
     5  3  2.50        -1.3606   0.0000                                                             
   Description                                                                                      
     l       E           TYP  RCUT    TYP  RCUT                                                     
     2     -6.1423404     23  2.500                                                                 
     2     -7.5029230     23  2.500                                                                 
     0     -5.6573207     23  2.500                                                                 
     0      0.7416693     23  2.500                                                                 
     1     -2.7211652     23  2.600                                                                 
     1     20.4087390     23  2.600                                                                 
     3     -1.3605826     23  2.500                                                                 
  local pseudopotential read in
  partial core-charges read in
  partial kinetic energy density read in
  atomic valenz-charges read in
  non local Contribution for L=           2  read in
    real space projection operators read in
  non local Contribution for L=           2  read in
    real space projection operators read in
  non local Contribution for L=           0  read in
    real space projection operators read in
  non local Contribution for L=           0  read in
    real space projection operators read in
  non local Contribution for L=           1  read in
    real space projection operators read in
  non local Contribution for L=           1  read in
    real space projection operators read in
    PAW grid and wavefunctions read in
 
   number of l-projection  operators is LMAX  =           6
   number of lm-projection operators is LMMAX =          18
 
 POTCAR:    PAW_PBE H 15Jun2001                   
   VRHFIN =H: ultrasoft test                                                                        
   LEXCH  = PE                                                                                      
   EATOM  =    12.4884 eV,    0.9179 Ry                                                             
                                                                                                    
   TITEL  = PAW_PBE H 15Jun2001                                                                     
   LULTRA =        F    use ultrasoft PP ?                                                          
   IUNSCR =        0    unscreen: 0-lin 1-nonlin 2-no                                               
   RPACOR =    0.000    partial core radius                                                         
   POMASS =    1.000; ZVAL   =    1.000    mass and valenz                                          
   RCORE  =    1.100    outmost cutoff radius                                                       
   RWIGS  =    0.700; RWIGS  =    0.370    wigner-seitz radius (au A)                               
   ENMAX  =  250.000; ENMIN  =  200.000 eV                                                          
   RCLOC  =    0.701    cutoff for local pot                                                        
   LCOR   =        T    correct aug charges                                                         
   LPAW   =        T    paw PP                                                                      
   EAUG   =  400.000                                                                                
   RMAX   =    1.123    core radius for proj-oper                                                   
   RAUG   =    1.200    factor for augmentation sphere                                              
   RDEP   =    1.112    radius for radial grids                                                     
   RDEPT  =    0.926    core radius for aug-charge                                                  
                                                                                                    
   Atomic configuration                                                                             
    2 entries                                                                                       
     n  l   j            E        occ.                                                              
     1  0  0.50        -6.4927   1.0000                                                             
     2  1  0.50        -3.4015   0.0000                                                             
   Description                                                                                      
     l       E           TYP  RCUT    TYP  RCUT                                                     
     0     -6.4927494     23  1.100                                                                 
     0      6.8029130     23  1.100                                                                 
     1     -4.0817478     23  1.100                                                                 
  local pseudopotential read in
  atomic valenz-charges read in
  non local Contribution for L=           0  read in
    real space projection operators read in
  non local Contribution for L=           0  read in
    real space projection operators read in
  non local Contribution for L=           1  read in
    real space projection operators read in
    PAW grid and wavefunctions read in
 
   number of l-projection  operators is LMAX  =           3
   number of lm-projection operators is LMMAX =           5
 
 POTCAR:    PAW_PBE O 08Apr2002                   
   VRHFIN =O: s2p4                                                                                  
   LEXCH  = PE                                                                                      
   EATOM  =   432.3788 eV,   31.7789 Ry                                                             
                                                                                                    
   TITEL  = PAW_PBE O 08Apr2002                                                                     
   LULTRA =        F    use ultrasoft PP ?                                                          
   IUNSCR =        1    unscreen: 0-lin 1-nonlin 2-no                                               
   RPACOR =    1.200    partial core radius                                                         
   POMASS =   16.000; ZVAL   =    6.000    mass and valenz                                          
   RCORE  =    1.520    outmost cutoff radius                                                       
   RWIGS  =    1.550; RWIGS  =    0.820    wigner-seitz radius (au A)                               
   ENMAX  =  400.000; ENMIN  =  300.000 eV                                                          
   ICORE  =        2    local potential                                                             
   LCOR   =        T    correct aug charges                                                         
   LPAW   =        T    paw PP                                                                      
   EAUG   =  605.392                                                                                
   DEXC   =    0.000                                                                                
   RMAX   =    1.553    core radius for proj-oper                                                   
   RAUG   =    1.300    factor for augmentation sphere                                              
   RDEP   =    1.550    radius for radial grids                                                     
   RDEPT  =    1.329    core radius for aug-charge                                                  
                                                                                                    
   Atomic configuration                                                                             
    4 entries                                                                                       
     n  l   j            E        occ.                                                              
     1  0  0.50      -514.6923   2.0000                                                             
     2  0  0.50       -23.9615   2.0000                                                             
     2  1  0.50        -9.0305   4.0000                                                             
     3  2  1.50        -9.5241   0.0000                                                             
   Description                                                                                      
     l       E           TYP  RCUT    TYP  RCUT                                                     
     0    -23.9615318     23  1.200                                                                 
     0     -9.5240782     23  1.200                                                                 
     1     -9.0304911     23  1.520                                                                 
     1      8.1634956     23  1.520                                                                 
     2     -9.5240782      7  1.500                                                                 
  local pseudopotential read in
  partial core-charges read in
  partial kinetic energy density read in
  kinetic energy density of atom read in
  atomic valenz-charges read in
  non local Contribution for L=           0  read in
    real space projection operators read in
  non local Contribution for L=           0  read in
    real space projection operators read in
  non local Contribution for L=           1  read in
    real space projection operators read in
  non local Contribution for L=           1  read in
    real space projection operators read in
    PAW grid and wavefunctions read in
 
   number of l-projection  operators is LMAX  =           4
   number of lm-projection operators is LMMAX =           8
 
 Optimization of the real space projectors (new method)

 maximal supplied QI-value         = 15.12
 optimisation between [QCUT,QGAM] = [ 11.34, 22.83] = [ 36.00,145.93] Ry 
 Optimized for a Real-space Cutoff    1.43 Angstroem

   l    n(q)    QCUT    max X(q) W(low)/X(q) W(high)/X(q)  e(spline) 
   2      9    11.338    53.897    0.16E-03    0.20E-03    0.28E-06
   2      9    11.338    52.416    0.16E-03    0.20E-03    0.29E-06
   0     10    11.338   122.045    0.31E-04    0.76E-04    0.15E-06
   0     10    11.338    73.629    0.30E-04    0.72E-04    0.15E-06
   1      9    11.338    15.255    0.20E-03    0.19E-04    0.17E-06
   1      9    11.338     9.562    0.16E-03    0.15E-04    0.14E-06
 Optimization of the real space projectors (new method)

 maximal supplied QI-value         = 14.36
 optimisation between [QCUT,QGAM] = [ 11.35, 22.84] = [ 36.05,146.02] Ry 
 Optimized for a Real-space Cutoff    1.47 Angstroem

   l    n(q)    QCUT    max X(q) W(low)/X(q) W(high)/X(q)  e(spline) 
   2      9    11.346    66.195    0.31E-03    0.12E-04    0.29E-06
   2      9    11.346    64.643    0.32E-03    0.12E-04    0.29E-06
   0     10    11.346    95.520    0.90E-04    0.16E-04    0.19E-06
   0     10    11.346    63.403    0.87E-04    0.15E-04    0.19E-06
   1     10    11.346    19.961    0.17E-03    0.21E-03    0.11E-06
   1     10    11.346    13.289    0.14E-03    0.18E-03    0.89E-07
 Optimization of the real space projectors (new method)

 maximal supplied QI-value         = 34.20
 optimisation between [QCUT,QGAM] = [ 11.29, 22.57] = [ 35.68,142.71] Ry 
 Optimized for a Real-space Cutoff    1.16 Angstroem

   l    n(q)    QCUT    max X(q) W(low)/X(q) W(high)/X(q)  e(spline) 
   0      8    11.287    19.460    0.40E-03    0.73E-03    0.16E-06
   0      8    11.287    12.209    0.38E-03    0.70E-03    0.15E-06
   1      7    11.287     4.655    0.22E-03    0.25E-04    0.22E-06
 Optimization of the real space projectors (new method)

 maximal supplied QI-value         = 24.76
 optimisation between [QCUT,QGAM] = [ 11.39, 22.77] = [ 36.31,145.25] Ry 
 Optimized for a Real-space Cutoff    1.00 Angstroem

   l    n(q)    QCUT    max X(q) W(low)/X(q) W(high)/X(q)  e(spline) 
   0      7    11.387    20.381    0.39E-03    0.13E-02    0.15E-06
   0      7    11.387    15.268    0.42E-03    0.14E-02    0.17E-06
   1      6    11.387     5.964    0.41E-03    0.11E-02    0.17E-06
   1      6    11.387     5.382    0.39E-03    0.87E-03    0.15E-06
  PAW_PBE Ag 02Apr2005                  :
 energy of atom  1       EATOM=-1037.2675
 kinetic energy error for atom=    0.0052 (will be added to EATOM!!)
  PAW_PBE Pt 04Feb2005                  :
 energy of atom  2       EATOM= -729.1176
 kinetic energy error for atom=    0.0039 (will be added to EATOM!!)
  PAW_PBE H 15Jun2001                   :
 energy of atom  3       EATOM=  -12.4884
 kinetic energy error for atom=    0.0020 (will be added to EATOM!!)
  PAW_PBE O 08Apr2002                   :
 energy of atom  4       EATOM= -432.3788
 kinetic energy error for atom=    0.0224 (will be added to EATOM!!)
 
 
 POSCAR: Ag-Pt-H2O
  positions in direct lattice
  velocities in cartesian coordinates
 exchange correlation table for  LEXCH =        8
   RHO(1)=    0.500       N(1)  =     2000
   RHO(2)=  100.500       N(2)  =     4000

 VTST: version 3.2, (02/03/18)

 CHAIN: initializing optimizer
 
 OPT: Using VASP Conjugate-Gradient optimizer
 CHAIN: Read ICHAIN            0
 
 POSCAR: Ag-Pt-H2O
  positions in direct lattice
  velocities in cartesian coordinates
 


--------------------------------------------------------------------------------------------------------


 ion  position               nearest neighbor table
   1  0.000  0.000  0.212-   2 2.93   8 2.93   7 2.93   6 2.93   4 2.93  12 2.93  16 2.93  10 2.93
                             3 2.93
   2  0.333  0.000  0.212-   1 2.93   8 2.93   9 2.93   3 2.93   4 2.93   5 2.93  10 2.93  17 2.93
                            11 2.93
   3  0.667  0.000  0.212-   9 2.93   2 2.93   5 2.93  11 2.93   7 2.93  18 2.93   1 2.93   6 2.93
                            12 2.93
   4  0.000  0.333  0.212-   5 2.93   6 2.93   2 2.93   1 2.93   7 2.93  13 2.93  15 2.93   9 2.93
                            10 2.93
   5  0.333  0.333  0.212-   4 2.93   3 2.93   7 2.93   2 2.93   8 2.93  14 2.93  13 2.93  11 2.93
                             6 2.93
   6  0.667  0.333  0.212-   4 2.93   9 2.93   1 2.93  15 2.93   8 2.93  12 2.93   3 2.93   5 2.93
                            14 2.93
   7  0.000  0.667  0.212-   8 2.93   1 2.93   5 2.93   3 2.93   4 2.93  16 2.93  18 2.93  13 2.93
                             9 2.93
   8  0.333  0.667  0.212-   7 2.93   1 2.93   2 2.93   9 2.93   5 2.93  16 2.93   6 2.93  17 2.93
                            14 2.93
   9  0.667  0.667  0.212-   3 2.93   2 2.93   8 2.93   6 2.93  17 2.93   4 2.93  15 2.93   7 2.93
                            18 2.93
  10  0.111  0.111  0.308-  20 2.89  19 2.93  26 2.93  12 2.93  16 2.93  15 2.93  17 2.93  13 2.93
                            11 2.93   2 2.93   1 2.93   4 2.93
  11  0.444  0.111  0.308-  21 2.90  20 2.90  27 2.91  14 2.93  17 2.93  18 2.93   3 2.93  12 2.93
                            13 2.93  10 2.93   5 2.93   2 2.93
  12  0.778  0.111  0.308-  21 2.89  25 2.93  19 2.93  10 2.93  16 2.93  18 2.93  15 2.93  11 2.93
                             1 2.93  14 2.93   6 2.93   3 2.93
  13  0.111  0.444  0.308-  20 2.90  23 2.90  22 2.91  15 2.93  14 2.93  18 2.93  10 2.93  11 2.93
                            16 2.93   4 2.93   5 2.93   7 2.93
  14  0.444  0.444  0.308-  23 2.90  21 2.90  24 2.91  13 2.93  11 2.93  16 2.93   5 2.93  12 2.93
                            17 2.93   8 2.93  15 2.93   6 2.93
  15  0.778  0.444  0.308-  24 2.91  22 2.91  19 2.92  13 2.93  10 2.93  12 2.93  17 2.93  18 2.93
                             4 2.93   6 2.93   9 2.93  14 2.93
  16  0.111  0.778  0.308-  23 2.89  26 2.93  25 2.93  18 2.93  12 2.93  10 2.93  14 2.93  17 2.93
                            13 2.93   7 2.93   8 2.93   1 2.93
  17  0.444  0.778  0.308-  27 2.91  24 2.91  26 2.92  11 2.93  10 2.93   9 2.93  18 2.93  15 2.93
                            16 2.93   2 2.93  14 2.93   8 2.93
  18  0.778  0.778  0.308-  22 2.91  27 2.91  25 2.92  16 2.93  12 2.93  13 2.93  11 2.93  17 2.93
                            15 2.93   7 2.93   3 2.93   9 2.93
  19  0.888  0.223  0.403-  28 2.91  15 2.92  20 2.92  21 2.92  24 2.92  22 2.92  10 2.93  12 2.93
                            32 2.93  31 2.93  26 2.94  25 2.94
  20  0.221  0.221  0.402-  36 2.81  10 2.89  13 2.90  11 2.90  19 2.92  26 2.92  31 2.92  29 2.92
                            27 2.93  22 2.93  21 2.95  23 2.95
  21  0.557  0.221  0.402-  36 2.81  12 2.89  11 2.90  14 2.90  25 2.92  19 2.92  30 2.92  32 2.92
                            27 2.93  24 2.93  20 2.95  23 2.95
  22  0.889  0.556  0.403-  35 2.91  18 2.91  15 2.91  13 2.91  25 2.92  19 2.92  24 2.93  27 2.93
                            33 2.93  31 2.93  23 2.93  20 2.93
  23  0.221  0.557  0.402-  36 2.81  16 2.89  14 2.90  13 2.90  26 2.92  25 2.92  34 2.92  33 2.92
                            22 2.93  24 2.93  21 2.95  20 2.95
  24  0.556  0.556  0.403-  35 2.91  15 2.91  17 2.91  14 2.91  19 2.92  26 2.92  27 2.93  22 2.93
                            32 2.93  34 2.93  23 2.93  21 2.93
  25  0.888  0.888  0.403-  28 2.91  18 2.92  23 2.92  21 2.92  22 2.92  27 2.92  16 2.93  12 2.93
                            33 2.93  30 2.93  26 2.94  19 2.94
  26  0.223  0.888  0.403-  28 2.91  17 2.92  23 2.92  20 2.92  27 2.92  24 2.92  16 2.93  10 2.93
                            34 2.93  29 2.93  25 2.94  19 2.94
  27  0.556  0.889  0.403-  35 2.91  17 2.91  18 2.91  11 2.91  26 2.92  25 2.92  24 2.93  22 2.93
                            29 2.93  30 2.93  20 2.93  21 2.93
  28  0.000  0.000  0.498-  26 2.91  25 2.91  19 2.91  29 2.95  34 2.95  33 2.95  32 2.95  31 2.95
                            30 2.95
  29  0.333  0.004  0.498-  30 2.89  31 2.89  36 2.90  20 2.92  27 2.93  26 2.93  35 2.95  28 2.95
                            34 3.00
  30  0.662  0.004  0.498-  29 2.89  32 2.89  36 2.90  21 2.92  27 2.93  25 2.93  35 2.95  28 2.95
                            33 3.00
  31  0.004  0.333  0.498-  33 2.89  29 2.89  36 2.90  20 2.92  22 2.93  19 2.93  35 2.95  28 2.95
                            32 3.00
  32  0.662  0.333  0.498-  34 2.89  30 2.89  36 2.90  21 2.92  24 2.93  19 2.93  35 2.95  28 2.95
                            31 3.00
  33  0.004  0.662  0.498-  31 2.89  34 2.89  36 2.90  23 2.92  22 2.93  25 2.93  35 2.95  28 2.95
                            30 3.00
  34  0.333  0.662  0.498-  32 2.89  33 2.89  36 2.90  23 2.92  24 2.93  26 2.93  35 2.95  28 2.95
                            29 3.00
  35  0.667  0.667  0.497-  24 2.91  27 2.91  22 2.91  30 2.95  32 2.95  29 2.95  34 2.95  31 2.95
                            33 2.95
  36  0.333  0.333  0.491-  21 2.81  20 2.81  23 2.81  31 2.90  33 2.90  30 2.90  29 2.90  34 2.90
                            32 2.90
  37  0.266  0.333  0.636-  39 0.97
  38  0.376  0.325  0.586-  39 0.99
  39  0.382  0.311  0.626-  37 0.97  38 0.99
 
  LATTYP: Found a hexagonal cell.
 ALAT       =     8.7913665772
 C/A-ratio  =     2.8382349142
  
  Lattice vectors:
  
 A1 = (  -4.3956832886,  -7.6135467898,   0.0000000000)
 A2 = (   8.7913665771,   0.0000000000,   0.0000000000)
 A3 = (   0.0000000000,   0.0000000000,  24.9519635625)


Analysis of symmetry for initial positions (statically):
=====================================================================
 Subroutine PRICEL returns:
 Original cell was already a primitive cell.
 

 Routine SETGRP: Setting up the symmetry group for a 
 hexagonal supercell.


 Subroutine GETGRP returns: Found  1 space group operations
 (whereof  1 operations were pure point group operations)
 out of a pool of 24 trial point group operations.


The static configuration has the point symmetry C_1 .


Analysis of symmetry for dynamics (positions and initial velocities):
=====================================================================
 Subroutine PRICEL returns:
 Original cell was already a primitive cell.
 

 Routine SETGRP: Setting up the symmetry group for a 
 hexagonal supercell.


 Subroutine GETGRP returns: Found  1 space group operations
 (whereof  1 operations were pure point group operations)
 out of a pool of 24 trial point group operations.


The dynamic configuration has the point symmetry C_1 .


Analysis of constrained symmetry for selective dynamics:
=====================================================================
 Subroutine PRICEL returns:
 Original cell was already a primitive cell.
 

 Routine SETGRP: Setting up the symmetry group for a 
 hexagonal supercell.


 Subroutine GETGRP returns: Found  1 space group operations
 (whereof  1 operations were pure point group operations)
 out of a pool of 24 trial point group operations.


The constrained configuration has the point symmetry C_1 .


 Subroutine INISYM returns: Found  1 space group operations
 (whereof  1 operations are pure point group operations),
 and found     1 'primitive' translations


----------------------------------------------------------------------------------------

                                     Primitive cell                                     

  volume of cell :    1670.1218

  direct lattice vectors                    reciprocal lattice vectors
     8.791366577  0.000000000  0.000000000     0.113747958 -0.065672414  0.000000000
     4.395683289  7.613546790  0.000000000     0.000000000  0.131344829  0.000000000
     0.000000000  0.000000000 24.951963562     0.000000000  0.000000000  0.040077006

  length of vectors
     8.791366577  8.791366577 24.951963562     0.131344829  0.131344829  0.040077006

  position of ions in fractional coordinates (direct lattice)
     0.000000000  0.000000000  0.211694287
     0.333333313  0.000000000  0.211694287
     0.666666627  0.000000000  0.211694287
     0.000000000  0.333333343  0.211694287
     0.333333313  0.333333343  0.211694287
     0.666666687  0.333333343  0.211694287
     0.000000000  0.666666687  0.211694287
     0.333333313  0.666666687  0.211694287
     0.666666627  0.666666687  0.211694287
     0.111111104  0.111111112  0.307586829
     0.444444448  0.111111112  0.307586829
     0.777777791  0.111111112  0.307586829
     0.111111097  0.444444448  0.307586829
     0.444444418  0.444444448  0.307586829
     0.777777791  0.444444448  0.307586829
     0.111111104  0.777777791  0.307586829
     0.444444448  0.777777791  0.307586829
     0.777777791  0.777777791  0.307586829
     0.888351115  0.223297786  0.403215224
     0.221460933  0.221460948  0.401872774
     0.557078073  0.221460948  0.401872774
     0.888564182  0.555717939  0.402581610
     0.221460948  0.557078133  0.401872774
     0.555717939  0.555717939  0.402581610
     0.888351115  0.888351115  0.403215224
     0.223297756  0.888351115  0.403215224
     0.555717879  0.888564182  0.402581610
     0.000000000  0.000000000  0.497849631
     0.333362240  0.004221406  0.498342085
     0.662416294  0.004221406  0.498342085
     0.004221406  0.333362270  0.498342085
     0.662416354  0.333362270  0.498342085
     0.004221406  0.662416354  0.498342085
     0.333362240  0.662416354  0.498342085
     0.666666627  0.666666687  0.497455479
     0.333333313  0.333333343  0.491206110
     0.266469352  0.332516571  0.635750622
     0.375811031  0.324601386  0.586396195
     0.382404958  0.311453957  0.625740694

  ion indices of the primitive-cell ions
   primitive index   ion index
                 1           1
                 2           2
                 3           3
                 4           4
                 5           5
                 6           6
                 7           7
                 8           8
                 9           9
                10          10
                11          11
                12          12
                13          13
                14          14
                15          15
                16          16
                17          17
                18          18
                19          19
                20          20
                21          21
                22          22
                23          23
                24          24
                25          25
                26          26
                27          27
                28          28
                29          29
                30          30
                31          31
                32          32
                33          33
                34          34
                35          35
                36          36
                37          37
                38          38
                39          39

----------------------------------------------------------------------------------------

 
 
 KPOINTS: Automatic mesh                          

Automatic generation of k-mesh.
 Grid dimensions read from file:
 generate k-points for:    8    8    1

 Generating k-lattice:

  Cartesian coordinates                     Fractional coordinates (reciprocal lattice)
     0.014218495 -0.008209052  0.000000000     0.125000000  0.000000000  0.000000000
     0.000000000  0.016418104  0.000000000     0.000000000  0.125000000  0.000000000
     0.000000000  0.000000000  0.040077006     0.000000000  0.000000000  1.000000000

  Length of vectors
     0.016418104  0.016418104  0.040077006

  Shift w.r.t. Gamma in fractional coordinates (k-lattice)
     0.000000000  0.000000000  0.000000000

 TETIRR: Found    192 inequivalent tetrahedra from      384
 
 Subroutine IBZKPT returns following result:
 ===========================================
 
 Found     34 irreducible k-points:
 
 Following reciprocal coordinates:
            Coordinates               Weight
  0.000000  0.000000  0.000000      1.000000
  0.125000  0.000000  0.000000      2.000000
  0.125000  0.125000  0.000000      2.000000
  0.000000  0.125000  0.000000      2.000000
  0.250000  0.000000  0.000000      2.000000
  0.250000  0.250000  0.000000      2.000000
  0.000000  0.250000  0.000000      2.000000
  0.375000  0.000000  0.000000      2.000000
  0.375000  0.375000  0.000000      2.000000
  0.000000  0.375000  0.000000      2.000000
  0.500000  0.000000  0.000000      1.000000
  0.500000  0.500000  0.000000      1.000000
  0.000000  0.500000  0.000000      1.000000
  0.250000  0.125000  0.000000      2.000000
  0.125000  0.250000  0.000000      2.000000
 -0.125000  0.125000  0.000000      2.000000
  0.375000  0.125000  0.000000      2.000000
  0.250000  0.375000  0.000000      2.000000
 -0.125000  0.250000  0.000000      2.000000
  0.250000 -0.125000  0.000000      2.000000
 -0.125000 -0.375000  0.000000      2.000000
 -0.375000 -0.250000  0.000000      2.000000
  0.500000  0.125000  0.000000      2.000000
  0.375000  0.500000  0.000000      2.000000
 -0.125000  0.375000  0.000000      2.000000
  0.375000 -0.125000  0.000000      2.000000
 -0.125000  0.500000  0.000000      2.000000
  0.500000 -0.375000  0.000000      2.000000
  0.500000  0.250000  0.000000      2.000000
  0.250000  0.500000  0.000000      2.000000
 -0.250000  0.250000  0.000000      2.000000
 -0.375000  0.250000  0.000000      2.000000
  0.375000 -0.375000  0.000000      2.000000
 -0.250000  0.375000  0.000000      2.000000
 
 Following cartesian coordinates:
            Coordinates               Weight
  0.000000  0.000000  0.000000      1.000000
  0.014218 -0.008209  0.000000      2.000000
  0.014218  0.008209  0.000000      2.000000
  0.000000  0.016418  0.000000      2.000000
  0.028437 -0.016418  0.000000      2.000000
  0.028437  0.016418  0.000000      2.000000
  0.000000  0.032836  0.000000      2.000000
  0.042655 -0.024627  0.000000      2.000000
  0.042655  0.024627  0.000000      2.000000
  0.000000  0.049254  0.000000      2.000000
  0.056874 -0.032836  0.000000      1.000000
  0.056874  0.032836  0.000000      1.000000
  0.000000  0.065672  0.000000      1.000000
  0.028437 -0.000000  0.000000      2.000000
  0.014218  0.024627  0.000000      2.000000
 -0.014218  0.024627  0.000000      2.000000
  0.042655 -0.008209  0.000000      2.000000
  0.028437  0.032836  0.000000      2.000000
 -0.014218  0.041045  0.000000      2.000000
  0.028437 -0.032836  0.000000      2.000000
 -0.014218 -0.041045  0.000000      2.000000
 -0.042655 -0.008209  0.000000      2.000000
  0.056874 -0.016418  0.000000      2.000000
  0.042655  0.041045  0.000000      2.000000
 -0.014218  0.057463  0.000000      2.000000
  0.042655 -0.041045  0.000000      2.000000
 -0.014218  0.073881  0.000000      2.000000
  0.056874 -0.082091  0.000000      2.000000
  0.056874 -0.000000  0.000000      2.000000
  0.028437  0.049254  0.000000      2.000000
 -0.028437  0.049254  0.000000      2.000000
 -0.042655  0.057463  0.000000      2.000000
  0.042655 -0.073881  0.000000      2.000000
 -0.028437  0.065672  0.000000      2.000000
 


--------------------------------------------------------------------------------------------------------




 Dimension of arrays:
   k-points           NKPTS =     34   k-points in BZ     NKDIM =     34   number of bands    NBANDS=    252
   number of dos      NEDOS =    301   number of ions     NIONS =     39
   non local maximal  LDIM  =      6   non local SUM 2l+1 LMDIM =     18
   total plane-waves  NPLWV = 322560
   max r-space proj   IRMAX =   2642   max aug-charges    IRDMAX=  11896
   dimension x,y,z NGX =    48 NGY =   48 NGZ =  140
   dimension x,y,z NGXF=    96 NGYF=   96 NGZF=  280
   support grid    NGXF=    96 NGYF=   96 NGZF=  280
   ions per type =              35   1   2   1
   NGX,Y,Z   is equivalent  to a cutoff of   9.08,  9.08,  9.33 a.u.
   NGXF,Y,Z  is equivalent  to a cutoff of  18.15, 18.15, 18.66 a.u.

 SYSTEM =  unknown system                          
 POSCAR =  Ag-Pt-H2O                               

 Startparameter for this run:
   NWRITE =      2    write-flag & timer
   PREC   = normal    normal or accurate (medium, high low for compatibility)
   ISTART =      0    job   : 0-new  1-cont  2-samecut
   ICHARG =     11    charge: 1-file 2-atom 10-const
   ISPIN  =      1    spin polarized calculation?
   LNONCOLLINEAR =      F non collinear calculations
   LSORBIT =      F    spin-orbit coupling
   INIWAV =      1    electr: 0-lowe 1-rand  2-diag
   LASPH  =      F    aspherical Exc in radial PAW
   METAGGA=      F    non-selfconsistent MetaGGA calc.

 Electronic Relaxation 1
   ENCUT  =  500.0 eV  36.75 Ry    6.06 a.u.  16.03 16.03 45.49*2*pi/ulx,y,z
   ENINI  =  500.0     initial cutoff
   ENAUG  =  605.4 eV  augmentation charge cutoff
   NELM   =    150;   NELMIN=  2; NELMDL= -5     # of ELM steps 
   EDIFF  = 0.1E-04   stopping-criterion for ELM
   LREAL  =      T    real-space projection
   NLSPLINE    = F    spline interpolate recip. space projectors
   LCOMPAT=      F    compatible to vasp.4.4
   GGA_COMPAT  = T    GGA compatible to vasp.4.4-vasp.4.6
   LMAXPAW     = -100 max onsite density
   LMAXMIX     =    2 max onsite mixed and CHGCAR
   VOSKOWN=      0    Vosko Wilk Nusair interpolation
   ROPT   =   -0.00050  -0.00050  -0.00050  -0.00050
 Ionic relaxation
   EDIFFG = -.1E-01   stopping-criterion for IOM
   NSW    =      0    number of steps for IOM
   NBLOCK =      1;   KBLOCK =      1    inner block; outer block 
   IBRION =     -1    ionic relax: 0-MD 1-quasi-New 2-CG
   NFREE  =      1    steps in history (QN), initial steepest desc. (CG)
   ISIF   =      2    stress and relaxation
   IWAVPR =     10    prediction:  0-non 1-charg 2-wave 3-comb
   ISYM   =      2    0-nonsym 1-usesym 2-fastsym
   LCORR  =      T    Harris-Foulkes like correction to forces

   POTIM  = 0.5000    time-step for ionic-motion
   TEIN   =    0.0    initial temperature
   TEBEG  =    0.0;   TEEND  =   0.0 temperature during run
   SMASS  =  -3.00    Nose mass-parameter (am)
   estimated Nose-frequenzy (Omega)   =  0.10E-29 period in steps = 0.13E+47 mass=  -0.177E-26a.u.
   SCALEE = 1.0000    scale energy and forces
   NPACO  =    256;   APACO  = 16.0  distance and # of slots for P.C.
   PSTRESS=    0.0 pullay stress

  Mass of Ions in am
   POMASS = 107.87195.08  1.00 16.00
  Ionic Valenz
   ZVAL   =  11.00 10.00  1.00  6.00
  Atomic Wigner-Seitz radii
   RWIGS  =  -1.00 -1.00 -1.00 -1.00
  virtual crystal weights 
   VCA    =   1.00  1.00  1.00  1.00
   NELECT =     403.0000    total number of electrons
   NUPDOWN=      -1.0000    fix difference up-down

 DOS related values:
   EMIN   =  10.00;   EMAX   =-10.00  energy-range for DOS
   EFERMI =   0.00
   ISMEAR =    -5;   SIGMA  =   0.10  broadening in eV -4-tet -1-fermi 0-gaus

 Electronic relaxation 2 (details)
   IALGO  =     68    algorithm
   LDIAG  =      T    sub-space diagonalisation (order eigenvalues)
   LSUBROT=      F    optimize rotation matrix (better conditioning)
   TURBO    =      0    0=normal 1=particle mesh
   IRESTART =      0    0=no restart 2=restart with 2 vectors
   NREBOOT  =      0    no. of reboots
   NMIN     =      0    reboot dimension
   EREF     =   0.00    reference energy to select bands
   IMIX   =      4    mixing-type and parameters
     AMIX     =   0.40;   BMIX     =  1.00
     AMIX_MAG =   1.60;   BMIX_MAG =  1.00
     AMIN     =   0.10
     WC   =   100.;   INIMIX=   1;  MIXPRE=   1;  MAXMIX= -45

 Intra band minimization:
   WEIMIN = 0.0000     energy-eigenvalue tresh-hold
   EBREAK =  0.99E-08  absolut break condition
   DEPER  =   0.30     relativ break condition  

   TIME   =   0.40     timestep for ELM

  volume/ion in A,a.u.               =      42.82       288.99
  Fermi-wavevector in a.u.,A,eV,Ry     =   1.019202  1.926013 14.133374  1.038774
  Thomas-Fermi vector in A             =   2.152703
 
 Write flags
   LWAVE        =      F    write WAVECAR
   LDOWNSAMPLE  =      F    k-point downsampling of WAVECAR
   LCHARG       =      F    write CHGCAR
   LVTOT        =      F    write LOCPOT, total local potential
   LVHAR        =      F    write LOCPOT, Hartree potential only
   LELF         =      F    write electronic localiz. function (ELF)
   LORBIT       =     10    0 simple, 1 ext, 2 COOP (PROOUT), +10 PAW based schemes


 Dipole corrections
   LMONO  =      F    monopole corrections only (constant potential shift)
   LDIPOL =      F    correct potential (dipole corrections)
   IDIPOL =      0    1-x, 2-y, 3-z, 4-all directions 
   EPSILON=  1.0000000 bulk dielectric constant

 Exchange correlation treatment:
   GGA     =    --    GGA type
   LEXCH   =     8    internal setting for exchange type
   VOSKOWN=      0    Vosko Wilk Nusair interpolation
   LHFCALC =     F    Hartree Fock is set to
   LHFONE  =     F    Hartree Fock one center treatment
   AEXX    =    0.0000 exact exchange contribution

 Linear response parameters
   LEPSILON=     F    determine dielectric tensor
   LRPA    =     F    only Hartree local field effects (RPA)
   LNABLA  =     F    use nabla operator in PAW spheres
   LVEL    =     F    velocity operator in full k-point grid
   LINTERFAST=   F  fast interpolation
   KINTER  =     0    interpolate to denser k-point grid
   CSHIFT  =0.1000    complex shift for real part using Kramers Kronig
   OMEGAMAX=  -1.0    maximum frequency
   DEG_THRESHOLD= 0.2000000E-02 threshold for treating states as degnerate
   RTIME   =   -0.100 relaxation time in fs
  (WPLASMAI=    0.000 imaginary part of plasma frequency in eV, 0.658/RTIME)
   DFIELD  = 0.0000000 0.0000000 0.0000000 field for delta impulse in time
 
 Orbital magnetization related:
   ORBITALMAG=     F  switch on orbital magnetization
   LCHIMAG   =     F  perturbation theory with respect to B field
   DQ        =  0.001000  dq finite difference perturbation B field
   LLRAUG    =     F  two centre corrections for induced B field



--------------------------------------------------------------------------------------------------------


 Static calculation
 charge density and potential remain constant during run
 non-spin polarized calculation
 RMM-DIIS sequential band-by-band and
  variant of blocked Davidson during initial phase
 perform sub-space diagonalisation
    before iterative eigenvector-optimisation
 no mixing
 using additional bands           50
 real space projection scheme for non local part
 use partial core corrections
 calculate Harris-corrections to forces 
   (improved forces if not selfconsistent)
 use gradient corrections 
 WARNING: stress and forces are not correct
  (second derivative of E(xc) not defined)
 use of overlap-Matrix (Vanderbilt PP)
 Fermi weights with tetrahedron method with Bloechl corrections


--------------------------------------------------------------------------------------------------------


  energy-cutoff  :      500.00
  volume of cell :     1670.12
      direct lattice vectors                 reciprocal lattice vectors
     8.791366577  0.000000000  0.000000000     0.113747958 -0.065672414  0.000000000
     4.395683289  7.613546790  0.000000000     0.000000000  0.131344829  0.000000000
     0.000000000  0.000000000 24.951963562     0.000000000  0.000000000  0.040077006

  length of vectors
     8.791366577  8.791366577 24.951963562     0.131344829  0.131344829  0.040077006


 
 k-points in units of 2pi/SCALE and weight: Automatic mesh                          
   0.00000000  0.00000000  0.00000000       0.016
   0.01421849 -0.00820905  0.00000000       0.031
   0.01421849  0.00820905  0.00000000       0.031
   0.00000000  0.01641810  0.00000000       0.031
   0.02843699 -0.01641810  0.00000000       0.031
   0.02843699  0.01641810  0.00000000       0.031
   0.00000000  0.03283621  0.00000000       0.031
   0.04265548 -0.02462716  0.00000000       0.031
   0.04265548  0.02462716  0.00000000       0.031
   0.00000000  0.04925431  0.00000000       0.031
   0.05687398 -0.03283621  0.00000000       0.016
   0.05687398  0.03283621  0.00000000       0.016
   0.00000000  0.06567241  0.00000000       0.016
   0.02843699 -0.00000000  0.00000000       0.031
   0.01421849  0.02462716  0.00000000       0.031
  -0.01421849  0.02462716  0.00000000       0.031
   0.04265548 -0.00820905  0.00000000       0.031
   0.02843699  0.03283621  0.00000000       0.031
  -0.01421849  0.04104526  0.00000000       0.031
   0.02843699 -0.03283621  0.00000000       0.031
  -0.01421849 -0.04104526  0.00000000       0.031
  -0.04265548 -0.00820905  0.00000000       0.031
   0.05687398 -0.01641810  0.00000000       0.031
   0.04265548  0.04104526  0.00000000       0.031
  -0.01421849  0.05746336  0.00000000       0.031
   0.04265548 -0.04104526  0.00000000       0.031
  -0.01421849  0.07388147  0.00000000       0.031
   0.05687398 -0.08209052  0.00000000       0.031
   0.05687398 -0.00000000  0.00000000       0.031
   0.02843699  0.04925431  0.00000000       0.031
  -0.02843699  0.04925431  0.00000000       0.031
  -0.04265548  0.05746336  0.00000000       0.031
   0.04265548 -0.07388147  0.00000000       0.031
  -0.02843699  0.06567241  0.00000000       0.031
 
 k-points in reciprocal lattice and weights: Automatic mesh                          
   0.00000000  0.00000000  0.00000000       0.016
   0.12500000  0.00000000  0.00000000       0.031
   0.12500000  0.12500000  0.00000000       0.031
   0.00000000  0.12500000  0.00000000       0.031
   0.25000000  0.00000000  0.00000000       0.031
   0.25000000  0.25000000  0.00000000       0.031
   0.00000000  0.25000000  0.00000000       0.031
   0.37500000  0.00000000  0.00000000       0.031
   0.37500000  0.37500000  0.00000000       0.031
   0.00000000  0.37500000  0.00000000       0.031
   0.50000000  0.00000000  0.00000000       0.016
   0.50000000  0.50000000  0.00000000       0.016
   0.00000000  0.50000000  0.00000000       0.016
   0.25000000  0.12500000  0.00000000       0.031
   0.12500000  0.25000000  0.00000000       0.031
  -0.12500000  0.12500000  0.00000000       0.031
   0.37500000  0.12500000  0.00000000       0.031
   0.25000000  0.37500000  0.00000000       0.031
  -0.12500000  0.25000000  0.00000000       0.031
   0.25000000 -0.12500000  0.00000000       0.031
  -0.12500000 -0.37500000  0.00000000       0.031
  -0.37500000 -0.25000000  0.00000000       0.031
   0.50000000  0.12500000  0.00000000       0.031
   0.37500000  0.50000000  0.00000000       0.031
  -0.12500000  0.37500000  0.00000000       0.031
   0.37500000 -0.12500000  0.00000000       0.031
  -0.12500000  0.50000000  0.00000000       0.031
   0.50000000 -0.37500000  0.00000000       0.031
   0.50000000  0.25000000  0.00000000       0.031
   0.25000000  0.50000000  0.00000000       0.031
  -0.25000000  0.25000000  0.00000000       0.031
  -0.37500000  0.25000000  0.00000000       0.031
   0.37500000 -0.37500000  0.00000000       0.031
  -0.25000000  0.37500000  0.00000000       0.031
 
 position of ions in fractional coordinates (direct lattice) 
   0.00000000  0.00000000  0.21169429
   0.33333331  0.00000000  0.21169429
   0.66666663  0.00000000  0.21169429
   0.00000000  0.33333334  0.21169429
   0.33333331  0.33333334  0.21169429
   0.66666669  0.33333334  0.21169429
   0.00000000  0.66666669  0.21169429
   0.33333331  0.66666669  0.21169429
   0.66666663  0.66666669  0.21169429
   0.11111110  0.11111111  0.30758683
   0.44444445  0.11111111  0.30758683
   0.77777779  0.11111111  0.30758683
   0.11111110  0.44444445  0.30758683
   0.44444442  0.44444445  0.30758683
   0.77777779  0.44444445  0.30758683
   0.11111110  0.77777779  0.30758683
   0.44444445  0.77777779  0.30758683
   0.77777779  0.77777779  0.30758683
   0.88835112  0.22329779  0.40321522
   0.22146093  0.22146095  0.40187277
   0.55707807  0.22146095  0.40187277
   0.88856418  0.55571794  0.40258161
   0.22146095  0.55707813  0.40187277
   0.55571794  0.55571794  0.40258161
   0.88835112  0.88835112  0.40321522
   0.22329776  0.88835112  0.40321522
   0.55571788  0.88856418  0.40258161
   0.00000000  0.00000000  0.49784963
   0.33336224  0.00422141  0.49834208
   0.66241629  0.00422141  0.49834208
   0.00422141  0.33336227  0.49834208
   0.66241635  0.33336227  0.49834208
   0.00422141  0.66241635  0.49834208
   0.33336224  0.66241635  0.49834208
   0.66666663  0.66666669  0.49745548
   0.33333331  0.33333334  0.49120611
   0.26646935  0.33251657  0.63575062
   0.37581103  0.32460139  0.58639619
   0.38240496  0.31145396  0.62574069
 
 position of ions in cartesian coordinates  (Angst):
   0.00000000  0.00000000  5.28218814
   2.93045535  0.00000000  5.28218814
   5.86091070  0.00000000  5.28218814
   1.46522781  2.53784900  5.28218814
   4.39568315  2.53784900  5.28218814
   7.32613904  2.53784900  5.28218814
   2.93045562  5.07569801  5.28218814
   5.86091096  5.07569801  5.28218814
   8.79136632  5.07569801  5.28218814
   1.46522770  0.84594965  7.67489535
   4.39568332  0.84594965  7.67489535
   7.32613893  0.84594965  7.67489535
   2.93045542  3.38379860  7.67489535
   5.86091083  3.38379860  7.67489535
   8.79136671  3.38379860  7.67489535
   4.39568328  5.92164760  7.67489535
   7.32613890  5.92164760  7.67489535
  10.25659451  5.92164760  7.67489535
   8.79136665  1.70008814 10.06101158
   2.92041644  1.68610329 10.02751482
   5.87094974  1.68610329 10.02751482
  10.25445351  4.23098453 10.04520166
   4.39568342  4.24134043 10.02751482
   7.32828017  4.23098453 10.04520166
  11.71473045  6.76350278 10.06101158
   5.86800258  6.76350278 10.06101158
   8.79136631  6.76512497 10.04520166
   0.00000000  0.00000000 12.42232586
   2.94926562  0.03213987 12.43461354
   5.84210043  0.03213987 12.43461354
   1.50246689  2.53806924 12.43461354
   7.28889995  2.53806924 12.43461354
   2.94888442  5.04333790 12.43461354
   5.84248215  5.04333790 12.43461354
   8.79136632  5.07569801 12.41249099
   4.39568315  2.53784900 12.25655696
   3.80426729  2.53163047 15.86322636
   4.73073743  2.47136784 14.63173648
   4.73091512  2.37126927 15.61345900
 


--------------------------------------------------------------------------------------------------------


 k-point   1 :   0.0000 0.0000 0.0000  plane waves:   42349
 k-point   2 :   0.1250 0.0000 0.0000  plane waves:   42346
 k-point   3 :   0.1250 0.1250 0.0000  plane waves:   42346
 k-point   4 :   0.0000 0.1250 0.0000  plane waves:   42346
 k-point   5 :   0.2500 0.0000 0.0000  plane waves:   42376
 k-point   6 :   0.2500 0.2500 0.0000  plane waves:   42376
 k-point   7 :   0.0000 0.2500 0.0000  plane waves:   42376
 k-point   8 :   0.3750 0.0000 0.0000  plane waves:   42380
 k-point   9 :   0.3750 0.3750 0.0000  plane waves:   42380
 k-point  10 :   0.0000 0.3750 0.0000  plane waves:   42380
 k-point  11 :   0.5000 0.0000 0.0000  plane waves:   42416
 k-point  12 :   0.5000 0.5000 0.0000  plane waves:   42416
 k-point  13 :   0.0000 0.5000 0.0000  plane waves:   42416
 k-point  14 :   0.2500 0.1250 0.0000  plane waves:   42390
 k-point  15 :   0.1250 0.2500 0.0000  plane waves:   42390
 k-point  16 :  -0.1250 0.1250 0.0000  plane waves:   42390
 k-point  17 :   0.3750 0.1250 0.0000  plane waves:   42414
 k-point  18 :   0.2500 0.3750 0.0000  plane waves:   42414
 k-point  19 :  -0.1250 0.2500 0.0000  plane waves:   42414
 k-point  20 :   0.2500-0.1250 0.0000  plane waves:   42414
 k-point  21 :  -0.1250-0.3750 0.0000  plane waves:   42414
 k-point  22 :  -0.3750-0.2500 0.0000  plane waves:   42414
 k-point  23 :   0.5000 0.1250 0.0000  plane waves:   42428
 k-point  24 :   0.3750 0.5000 0.0000  plane waves:   42428
 k-point  25 :  -0.1250 0.3750 0.0000  plane waves:   42428
 k-point  26 :   0.3750-0.1250 0.0000  plane waves:   42428
 k-point  27 :  -0.1250 0.5000 0.0000  plane waves:   42428
 k-point  28 :   0.5000-0.3750 0.0000  plane waves:   42428
 k-point  29 :   0.5000 0.2500 0.0000  plane waves:   42438
 k-point  30 :   0.2500 0.5000 0.0000  plane waves:   42438
 k-point  31 :  -0.2500 0.2500 0.0000  plane waves:   42438
 k-point  32 :  -0.3750 0.2500 0.0000  plane waves:   42416
 k-point  33 :   0.3750-0.3750 0.0000  plane waves:   42416
 k-point  34 :  -0.2500 0.3750 0.0000  plane waves:   42416

 maximum and minimum number of plane-waves per node :     42438    42346

 maximum number of plane-waves:     42438
 maximum index in each direction: 
   IXMAX=   16   IYMAX=   16   IZMAX=   45
   IXMIN=  -16   IYMIN=  -16   IZMIN=  -45


 serial   3D FFT for wavefunctions
 parallel 3D FFT for charge:
    minimum data exchange during FFTs selected (reduces bandwidth)


 total amount of memory used by VASP MPI-rank0   282317. kBytes
=======================================================================

   base      :      30000. kBytes
   nonlr-proj:      15065. kBytes
   fftplans  :       4808. kBytes
   grid      :      20723. kBytes
   one-center:        606. kBytes
   wavefun   :     211115. kBytes
 
     INWAV:  cpu time    0.0000: real time    0.0000
 initial charge density was supplied:
 number of electron     403.0000051 magnetization 
 keeping initial charge density in first step


--------------------------------------------------------------------------------------------------------


 Maximum index for non-local projection operator         2500
 Maximum index for augmentation-charges          698 (set IRDMAX)


--------------------------------------------------------------------------------------------------------


 First call to EWALD:  gamma=   0.149
 Maximum number of real-space cells 4x 4x 2
 Maximum number of reciprocal cells 2x 2x 5

    FEWALD:  cpu time    0.0013: real time    0.0014


--------------------------------------- Iteration      1(   1)  ---------------------------------------


    POTLOK:  cpu time    0.0590: real time    0.0593
    SETDIJ:  cpu time    0.0046: real time    0.0046
     EDDAV:  cpu time   26.7045: real time   26.7073
 BZINTS: Fermi energy:    9.050391;  403.000000 electrons
         Band energy: 0.963544E+03;  BLOECHL correction:   -0.016766
       DOS:  cpu time    0.0585: real time    0.0586
    --------------------------------------------
      LOOP:  cpu time   26.8266: real time   26.8299

 eigenvalue-minimisations  : 17136
 total energy-change (2. order) : 0.2450583E+04  (-0.1833797E+05)
 number of electron     403.0000051 magnetization 
 augmentation part      403.0000051 magnetization 

 Free energy of the ion-electron system (eV)
  ---------------------------------------------------
  alpha Z        PSCENC =       682.75153260
  Ewald energy   TEWEN  =    138410.12548228
  -Hartree energ DENC   =   -176306.33282710
  -exchange      EXHF   =         0.00000000
  -V(xc)+E(xc)   XCENC  =      -352.10951587
  PAW double counting   =     39660.11205435   -38098.13115145
  entropy T*S    EENTRO =         0.00000000
  eigenvalues    EBANDS =       963.54389217
  atomic energy  EATOM  =     37490.62378658
  Solvation  Ediel_sol  =         0.00000000
  ---------------------------------------------------
  free energy    TOTEN  =      2450.58325356 eV

  energy without entropy =     2450.58325356  energy(sigma->0) =     2450.58325356


--------------------------------------------------------------------------------------------------------




--------------------------------------- Iteration      1(   2)  ---------------------------------------


     EDDAV:  cpu time   27.8638: real time   27.8652
 BZINTS: Fermi energy:    0.709141;  403.000000 electrons
         Band energy:-0.149823E+04;  BLOECHL correction:   -0.048512
       DOS:  cpu time    0.0585: real time    0.0585
    --------------------------------------------
      LOOP:  cpu time   27.9222: real time   27.9236

 eigenvalue-minimisations  : 18088
 total energy-change (2. order) :-0.2461776E+04  (-0.2350138E+04)
 number of electron     403.0000051 magnetization 
 augmentation part      403.0000051 magnetization 

 Free energy of the ion-electron system (eV)
  ---------------------------------------------------
  alpha Z        PSCENC =       682.75153260
  Ewald energy   TEWEN  =    138410.12548228
  -Hartree energ DENC   =   -176306.33282710
  -exchange      EXHF   =         0.00000000
  -V(xc)+E(xc)   XCENC  =      -352.10951587
  PAW double counting   =     39660.11205435   -38098.13115145
  entropy T*S    EENTRO =         0.00000000
  eigenvalues    EBANDS =     -1498.23190879
  atomic energy  EATOM  =     37490.62378658
  Solvation  Ediel_sol  =         0.00000000
  ---------------------------------------------------
  free energy    TOTEN  =       -11.19254740 eV

  energy without entropy =      -11.19254740  energy(sigma->0) =      -11.19254740


--------------------------------------------------------------------------------------------------------




--------------------------------------- Iteration      1(   3)  ---------------------------------------


     EDDAV:  cpu time   31.2883: real time   31.2898
 BZINTS: Fermi energy:    0.141575;  403.000000 electrons
         Band energy:-0.159501E+04;  BLOECHL correction:   -0.089655
       DOS:  cpu time    0.0589: real time    0.0589
    --------------------------------------------
      LOOP:  cpu time   31.3472: real time   31.3487

 eigenvalue-minimisations  : 20832
 total energy-change (2. order) :-0.9677995E+02  (-0.9507002E+02)
 number of electron     403.0000051 magnetization 
 augmentation part      403.0000051 magnetization 

 Free energy of the ion-electron system (eV)
  ---------------------------------------------------
  alpha Z        PSCENC =       682.75153260
  Ewald energy   TEWEN  =    138410.12548228
  -Hartree energ DENC   =   -176306.33282710
  -exchange      EXHF   =         0.00000000
  -V(xc)+E(xc)   XCENC  =      -352.10951587
  PAW double counting   =     39660.11205435   -38098.13115145
  entropy T*S    EENTRO =         0.00000000
  eigenvalues    EBANDS =     -1595.01185864
  atomic energy  EATOM  =     37490.62378658
  Solvation  Ediel_sol  =         0.00000000
  ---------------------------------------------------
  free energy    TOTEN  =      -107.97249725 eV

  energy without entropy =     -107.97249725  energy(sigma->0) =     -107.97249725


--------------------------------------------------------------------------------------------------------




--------------------------------------- Iteration      1(   4)  ---------------------------------------


     EDDAV:  cpu time   28.9724: real time   28.9738
 BZINTS: Fermi energy:    0.134015;  403.000000 electrons
         Band energy:-0.159629E+04;  BLOECHL correction:   -0.088846
       DOS:  cpu time    0.0575: real time    0.0575
    --------------------------------------------
      LOOP:  cpu time   29.0299: real time   29.0313

 eigenvalue-minimisations  : 18984
 total energy-change (2. order) :-0.1277883E+01  (-0.1277065E+01)
 number of electron     403.0000051 magnetization 
 augmentation part      403.0000051 magnetization 

 Free energy of the ion-electron system (eV)
  ---------------------------------------------------
  alpha Z        PSCENC =       682.75153260
  Ewald energy   TEWEN  =    138410.12548228
  -Hartree energ DENC   =   -176306.33282710
  -exchange      EXHF   =         0.00000000
  -V(xc)+E(xc)   XCENC  =      -352.10951587
  PAW double counting   =     39660.11205435   -38098.13115145
  entropy T*S    EENTRO =         0.00000000
  eigenvalues    EBANDS =     -1596.28974130
  atomic energy  EATOM  =     37490.62378658
  Solvation  Ediel_sol  =         0.00000000
  ---------------------------------------------------
  free energy    TOTEN  =      -109.25037990 eV

  energy without entropy =     -109.25037990  energy(sigma->0) =     -109.25037990


--------------------------------------------------------------------------------------------------------




--------------------------------------- Iteration      1(   5)  ---------------------------------------


     EDDAV:  cpu time   31.8085: real time   31.8130
 BZINTS: Fermi energy:    0.133870;  403.000000 electrons
         Band energy:-0.159632E+04;  BLOECHL correction:   -0.088819
       DOS:  cpu time    0.0588: real time    0.0588
    --------------------------------------------
      LOOP:  cpu time   31.8673: real time   31.8719

 eigenvalue-minimisations  : 21224
 total energy-change (2. order) :-0.3209948E-01  (-0.3211627E-01)
 number of electron     403.0000051 magnetization 
 augmentation part      403.0000051 magnetization 

 Free energy of the ion-electron system (eV)
  ---------------------------------------------------
  alpha Z        PSCENC =       682.75153260
  Ewald energy   TEWEN  =    138410.12548228
  -Hartree energ DENC   =   -176306.33282710
  -exchange      EXHF   =         0.00000000
  -V(xc)+E(xc)   XCENC  =      -352.10951587
  PAW double counting   =     39660.11205435   -38098.13115145
  entropy T*S    EENTRO =         0.00000000
  eigenvalues    EBANDS =     -1596.32184078
  atomic energy  EATOM  =     37490.62378658
  Solvation  Ediel_sol  =         0.00000000
  ---------------------------------------------------
  free energy    TOTEN  =      -109.28247939 eV

  energy without entropy =     -109.28247939  energy(sigma->0) =     -109.28247939


--------------------------------------------------------------------------------------------------------




--------------------------------------- Iteration      1(   6)  ---------------------------------------


    EDDIAG:  cpu time    5.2379: real time    5.2385
  RMM-DIIS:  cpu time   15.1041: real time   15.1049
    ORTHCH:  cpu time    0.9817: real time    0.9817
 BZINTS: Fermi energy:    0.133868;  403.000000 electrons
         Band energy:-0.159632E+04;  BLOECHL correction:   -0.088818
       DOS:  cpu time    0.0550: real time    0.0550
    --------------------------------------------
      LOOP:  cpu time   21.3787: real time   21.3802

 eigenvalue-minimisations  : 17353
 total energy-change (2. order) :-0.6523349E-03  (-0.6527461E-03)
 number of electron     403.0000051 magnetization 
 augmentation part      403.0000051 magnetization 

 Free energy of the ion-electron system (eV)
  ---------------------------------------------------
  alpha Z        PSCENC =       682.75153260
  Ewald energy   TEWEN  =    138410.12548228
  -Hartree energ DENC   =   -176306.33282710
  -exchange      EXHF   =         0.00000000
  -V(xc)+E(xc)   XCENC  =      -352.10951587
  PAW double counting   =     39660.11205435   -38098.13115145
  entropy T*S    EENTRO =         0.00000000
  eigenvalues    EBANDS =     -1596.32249311
  atomic energy  EATOM  =     37490.62378658
  Solvation  Ediel_sol  =         0.00000000
  ---------------------------------------------------
  free energy    TOTEN  =      -109.28313172 eV

  energy without entropy =     -109.28313172  energy(sigma->0) =     -109.28313172


--------------------------------------------------------------------------------------------------------




--------------------------------------- Iteration      1(   7)  ---------------------------------------


    EDDIAG:  cpu time    5.2374: real time    5.2377
  RMM-DIIS:  cpu time   21.2166: real time   21.2176
    ORTHCH:  cpu time    0.9814: real time    0.9814
 BZINTS: Fermi energy:    0.133867;  403.000000 electrons
         Band energy:-0.159632E+04;  BLOECHL correction:   -0.088818
       DOS:  cpu time    0.0576: real time    0.0576
    --------------------------------------------
      LOOP:  cpu time   27.4931: real time   27.4944

 eigenvalue-minimisations  : 24625
 total energy-change (2. order) :-0.2293664E-03  (-0.2288399E-03)
 number of electron     403.0000051 magnetization 
 augmentation part      403.0000051 magnetization 

 Free energy of the ion-electron system (eV)
  ---------------------------------------------------
  alpha Z        PSCENC =       682.75153260
  Ewald energy   TEWEN  =    138410.12548228
  -Hartree energ DENC   =   -176306.33282710
  -exchange      EXHF   =         0.00000000
  -V(xc)+E(xc)   XCENC  =      -352.10951587
  PAW double counting   =     39660.11205435   -38098.13115145
  entropy T*S    EENTRO =         0.00000000
  eigenvalues    EBANDS =     -1596.32272248
  atomic energy  EATOM  =     37490.62378658
  Solvation  Ediel_sol  =         0.00000000
  ---------------------------------------------------
  free energy    TOTEN  =      -109.28336109 eV

  energy without entropy =     -109.28336109  energy(sigma->0) =     -109.28336109


--------------------------------------------------------------------------------------------------------




--------------------------------------- Iteration      1(   8)  ---------------------------------------


    EDDIAG:  cpu time    5.2378: real time    5.2382
  RMM-DIIS:  cpu time   13.9585: real time   13.9591
    ORTHCH:  cpu time    0.9805: real time    0.9805
 BZINTS: Fermi energy:    0.133867;  403.000000 electrons
         Band energy:-0.159632E+04;  BLOECHL correction:   -0.088818
       DOS:  cpu time    0.0589: real time    0.0589
    --------------------------------------------
      LOOP:  cpu time   20.2356: real time   20.2367

 eigenvalue-minimisations  : 14405
 total energy-change (2. order) :-0.2020551E-04  (-0.2053283E-04)
 number of electron     403.0000051 magnetization 
 augmentation part      403.0000051 magnetization 

 Free energy of the ion-electron system (eV)
  ---------------------------------------------------
  alpha Z        PSCENC =       682.75153260
  Ewald energy   TEWEN  =    138410.12548228
  -Hartree energ DENC   =   -176306.33282710
  -exchange      EXHF   =         0.00000000
  -V(xc)+E(xc)   XCENC  =      -352.10951587
  PAW double counting   =     39660.11205435   -38098.13115145
  entropy T*S    EENTRO =         0.00000000
  eigenvalues    EBANDS =     -1596.32274269
  atomic energy  EATOM  =     37490.62378658
  Solvation  Ediel_sol  =         0.00000000
  ---------------------------------------------------
  free energy    TOTEN  =      -109.28338130 eV

  energy without entropy =     -109.28338130  energy(sigma->0) =     -109.28338130


--------------------------------------------------------------------------------------------------------




--------------------------------------- Iteration      1(   9)  ---------------------------------------


    EDDIAG:  cpu time    5.2419: real time    5.2424
  RMM-DIIS:  cpu time   11.3932: real time   11.3937
    ORTHCH:  cpu time    0.9815: real time    0.9816
 BZINTS: Fermi energy:    0.133867;  403.000000 electrons
         Band energy:-0.159632E+04;  BLOECHL correction:   -0.088818
       DOS:  cpu time    0.0550: real time    0.0550
    --------------------------------------------
      LOOP:  cpu time   17.6717: real time   17.6727

 eigenvalue-minimisations  : 10866
 total energy-change (2. order) :-0.2611108E-05  (-0.2595978E-05)
 number of electron     403.0000051 magnetization 
 augmentation part      403.0000051 magnetization 

 Free energy of the ion-electron system (eV)
  ---------------------------------------------------
  alpha Z        PSCENC =       682.75153260
  Ewald energy   TEWEN  =    138410.12548228
  -Hartree energ DENC   =   -176306.33282710
  -exchange      EXHF   =         0.00000000
  -V(xc)+E(xc)   XCENC  =      -352.10951587
  PAW double counting   =     39660.11205435   -38098.13115145
  entropy T*S    EENTRO =         0.00000000
  eigenvalues    EBANDS =     -1596.32274530
  atomic energy  EATOM  =     37490.62378658
  Solvation  Ediel_sol  =         0.00000000
  ---------------------------------------------------
  free energy    TOTEN  =      -109.28338391 eV

  energy without entropy =     -109.28338391  energy(sigma->0) =     -109.28338391


--------------------------------------------------------------------------------------------------------




 average (electrostatic) potential at core
  the test charge radii are     1.1249  1.2059  0.5201  0.7215
  (the norm of the test charge is              1.0000)
       1 -78.7315       2 -78.7219       3 -78.7221       4 -78.7215       5 -78.7196
       6 -78.7214       7 -78.7219       8 -78.7216       9 -78.7307      10 -78.9578
      11 -78.9611      12 -78.9580      13 -78.9609      14 -78.9605      15 -78.9593
      16 -78.9571      17 -78.9593      18 -78.9599      19 -78.9434      20 -78.8919
      21 -78.8907      22 -78.9574      23 -78.8897      24 -78.9569      25 -78.9434
      26 -78.9430      27 -78.9577      28 -78.6959      29 -78.6303      30 -78.6243
      31 -78.6403      32 -78.6290      33 -78.6343      34 -78.6279      35 -78.6999
      36 -72.6895      37 -39.4543      38 -39.0161      39 -75.3007
 
 
 
 E-fermi :   0.1339     XC(G=0):  -5.3833     alpha+bet : -5.0382

 Fermi energy:         0.1338669701

 k-point     1 :       0.0000    0.0000    0.0000
  band No.  band energies     occupation 
      1     -19.9481      2.00000
      2      -7.7926      2.00000
      3      -6.9797      2.00000
      4      -6.1128      2.00000
      5      -5.8329      2.00000
      6      -5.7095      2.00000
      7      -5.6839      2.00000
      8      -5.6836      2.00000
      9      -5.6767      2.00000
     10      -5.6753      2.00000
     11      -5.6752      2.00000
     12      -5.6569      2.00000
     13      -5.6389      2.00000
     14      -5.6357      2.00000
     15      -5.6356      2.00000
     16      -5.6294      2.00000
     17      -5.6293      2.00000
     18      -5.6161      2.00000
     19      -5.4764      2.00000
     20      -5.4675      2.00000
     21      -5.4673      2.00000
     22      -5.4619      2.00000
     23      -5.4618      2.00000
     24      -5.4608      2.00000
     25      -5.2987      2.00000
     26      -5.2712      2.00000
     27      -5.2711      2.00000
     28      -5.2635      2.00000
     29      -5.2551      2.00000
     30      -5.2438      2.00000
     31      -5.2437      2.00000
     32      -5.2375      2.00000
     33      -5.2176      2.00000
     34      -5.2175      2.00000
     35      -5.2125      2.00000
     36      -5.2124      2.00000
     37      -5.1506      2.00000
     38      -5.1008      2.00000
     39      -5.1006      2.00000
     40      -5.0963      2.00000
     41      -5.0211      2.00000
     42      -5.0209      2.00000
     43      -4.8894      2.00000
     44      -4.8890      2.00000
     45      -4.8733      2.00000
     46      -4.8728      2.00000
     47      -4.8700      2.00000
     48      -4.8603      2.00000
     49      -4.8600      2.00000
     50      -4.8515      2.00000
     51      -4.8211      2.00000
     52      -4.8208      2.00000
     53      -4.7270      2.00000
     54      -4.7264      2.00000
     55      -4.6955      2.00000
     56      -4.6898      2.00000
     57      -4.4914      2.00000
     58      -4.4867      2.00000
     59      -4.4865      2.00000
     60      -4.4831      2.00000
     61      -4.4733      2.00000
     62      -4.4731      2.00000
     63      -4.4633      2.00000
     64      -4.4581      2.00000
     65      -4.4581      2.00000
     66      -4.4213      2.00000
     67      -4.4212      2.00000
     68      -4.3228      2.00000
     69      -4.3226      2.00000
     70      -4.3083      2.00000
     71      -4.3063      2.00000
     72      -4.3059      2.00000
     73      -4.3008      2.00000
     74      -4.2865      2.00000
     75      -4.2862      2.00000
     76      -4.2555      2.00000
     77      -4.2553      2.00000
     78      -4.2521      2.00000
     79      -4.2500      2.00000
     80      -4.2499      2.00000
     81      -4.2402      2.00000
     82      -4.2304      2.00000
     83      -4.2255      2.00000
     84      -4.2250      2.00000
     85      -4.1734      2.00000
     86      -4.1733      2.00000
     87      -4.1551      2.00000
     88      -4.0977      2.00000
     89      -4.0971      2.00000
     90      -4.0866      2.00000
     91      -4.0759      2.00000
     92      -4.0751      2.00000
     93      -4.0290      2.00000
     94      -4.0290      2.00000
     95      -4.0266      2.00000
     96      -4.0265      2.00000
     97      -4.0109      2.00000
     98      -3.9990      2.00000
     99      -3.9989      2.00000
    100      -3.9152      2.00000
    101      -3.9147      2.00000
[...]
  0.000   0.000   0.000   0.000   0.000   0.000   0.000   0.000   0.000   0.000   1.000   0.000   0.000   0.000   0.000   0.000
  0.000   0.000   0.000   0.000   0.000   0.000   0.000   0.000   0.000   0.000   0.000   0.000   0.000   0.000   0.000   0.000
  0.000   0.000   0.000   0.000   0.000   0.000   0.000   0.000   0.000   0.000   0.000   0.000   0.000   0.000   0.000   0.000
  0.000   0.000   0.000   0.000   0.000   0.000   0.000   0.000   0.000   0.000   0.000   0.000   0.000   0.000   0.000   0.000
  0.000   0.000   0.000   0.000   0.000   0.000   0.000   0.000   0.000   0.000   0.000   0.000   0.000   0.000   0.000   0.000
  0.000   0.000   0.000   0.000   0.000   0.000   0.000   0.000   0.000   0.000   0.000   0.000   0.000   0.000   0.000   0.000
  0.000   0.000   0.000   0.000   0.000   0.000   0.000   0.000   0.000   0.000   0.000   0.000   0.000   0.000   0.000   0.000
  0.000   0.000   0.000   0.000   0.000   0.000   0.000   0.000   0.000   0.000   0.000   0.000   0.000   0.000   0.000   0.000


------------------------ aborting loop because EDIFF is reached ----------------------------------------





 total charge

# of ion       s       p       d       tot
------------------------------------------
    1        0.414   0.204   9.177   9.795
    2        0.417   0.202   9.177   9.797
    3        0.417   0.202   9.177   9.797
    4        0.417   0.203   9.177   9.797
    5        0.417   0.202   9.178   9.797
    6        0.418   0.202   9.177   9.797
    7        0.417   0.202   9.177   9.797
    8        0.417   0.202   9.177   9.797
    9        0.416   0.203   9.177   9.796
   10        0.405   0.270   9.164   9.840
   11        0.407   0.269   9.166   9.842
   12        0.405   0.271   9.164   9.840
   13        0.407   0.269   9.166   9.843
   14        0.407   0.269   9.166   9.842
   15        0.404   0.269   9.166   9.840
   16        0.405   0.270   9.164   9.840
   17        0.404   0.269   9.166   9.839
   18        0.404   0.269   9.166   9.839
   19        0.403   0.269   9.166   9.838
   20        0.408   0.282   9.165   9.855
   21        0.407   0.283   9.165   9.855
   22        0.402   0.271   9.168   9.841
   23        0.407   0.282   9.165   9.855
   24        0.401   0.271   9.168   9.841
   25        0.403   0.269   9.166   9.838
   26        0.403   0.269   9.166   9.838
   27        0.401   0.271   9.167   9.840
   28        0.414   0.196   9.182   9.792
   29        0.408   0.207   9.177   9.792
   30        0.407   0.207   9.177   9.791
   31        0.410   0.208   9.176   9.795
   32        0.409   0.207   9.177   9.793
   33        0.409   0.208   9.176   9.794
   34        0.408   0.207   9.177   9.792
   35        0.411   0.198   9.182   9.791
   36        0.627   0.278   8.189   9.094
   37        0.626   0.119   0.000   0.745
   38        0.605   0.117   0.000   0.722
   39        1.570   3.588   0.000   5.158
--------------------------------------------------
tot         17.740  12.458 329.196 359.394
 
    CHARGE:  cpu time    1.2257: real time    1.2259
    FORLOC:  cpu time    0.0124: real time    0.0124
    FORNL :  cpu time    5.4440: real time    5.4443
    STRESS:  cpu time   16.3477: real time   16.3487
    FORCOR:  cpu time    0.0587: real time    0.0587
    FORHAR:  cpu time    0.0197: real time    0.0198
    OFIELD:  cpu time    0.0003: real time    0.0003

  FORCE on cell =-STRESS in cart. coord.  units (eV):
  Direction    XX          YY          ZZ          XY          YZ          ZX
  --------------------------------------------------------------------------------------
  Alpha Z   682.75153   682.75153   682.75153
  Ewald  161314.36190161233.74631************   -14.17267    -3.88310   -26.52983
  Hartree171310.91655171296.26637************    -2.60409    -0.13248    -5.99945
  E(xc)   -2109.98901 -2110.33566 -2115.46871    -0.06203    -0.02743    -0.08236
  Local  ************************343853.53225    12.50612     2.62341    25.30804
  n-local  -352.02823  -352.17484  -356.38820     0.01385     0.02686    -0.26703
  augment  3278.89403  3280.56873  3288.56162     0.29045     0.09572     0.43498
  Kinetic  5056.97586  5080.03426  5081.76448     4.03710     1.28300     7.20181
  Fock        0.00000     0.00000     0.00000     0.00000     0.00000     0.00000
  -------------------------------------------------------------------------------------
  Total      -8.38690    -8.40767    -0.66212     0.00875    -0.01403     0.06616
  in kB      -8.04570    -8.06563    -0.63518     0.00839    -0.01345     0.06347
  external pressure =       -5.58 kB  Pullay stress =        0.00 kB


 VOLUME and BASIS-vectors are now :
 -----------------------------------------------------------------------------
  energy-cutoff  :      500.00
  volume of cell :     1670.12
      direct lattice vectors                 reciprocal lattice vectors
     8.791366577  0.000000000  0.000000000     0.113747958 -0.065672414  0.000000000
     4.395683289  7.613546790  0.000000000     0.000000000  0.131344829  0.000000000
     0.000000000  0.000000000 24.951963562     0.000000000  0.000000000  0.040077006

  length of vectors
     8.791366577  8.791366577 24.951963562     0.131344829  0.131344829  0.040077006


 FORCES acting on ions
    electron-ion (+dipol)            ewald-force                    non-local-force                 convergence-correction
 -----------------------------------------------------------------------------------------------
   -.209E-01 0.537E-01 0.274E+04   0.927E-02 -.555E-02 -.273E+04   0.950E-03 -.339E-02 -.196E+01   0.105E-01 -.426E-01 -.117E+00
   0.261E+00 0.231E+00 0.274E+04   -.420E+00 -.324E+00 -.273E+04   0.572E-01 0.459E-01 -.170E+01   0.967E-01 0.444E-01 -.841E-01
   -.238E+00 0.255E+00 0.274E+04   0.410E+00 -.338E+00 -.273E+04   -.581E-01 0.358E-01 -.170E+01   -.109E+00 0.440E-01 -.797E-01
   0.358E+00 0.161E+00 0.274E+04   -.481E+00 -.189E+00 -.273E+04   0.500E-01 0.187E-01 -.169E+01   0.702E-01 0.909E-02 -.746E-01
   0.120E-01 0.442E-01 0.274E+04   -.168E-01 0.857E-02 -.273E+04   -.616E-02 -.153E-01 -.161E+01   0.104E-01 -.347E-01 -.815E-01
   -.374E+00 0.127E+00 0.274E+04   0.498E+00 -.187E+00 -.273E+04   -.463E-01 0.225E-01 -.170E+01   -.736E-01 0.369E-01 -.711E-01
   0.184E-01 -.421E+00 0.274E+04   -.781E-01 0.511E+00 -.273E+04   0.117E-01 -.507E-01 -.170E+01   0.453E-01 -.389E-01 -.872E-01
   -.234E-01 -.424E+00 0.274E+04   0.707E-01 0.527E+00 -.273E+04   -.157E-01 -.534E-01 -.171E+01   -.292E-01 -.466E-01 -.912E-01
   0.124E-01 -.290E-01 0.274E+04   0.742E-02 -.293E-02 -.273E+04   0.436E-02 0.676E-03 -.181E+01   -.244E-01 0.301E-01 -.734E-01
   0.506E+01 0.295E+01 0.949E+03   -.495E+01 -.285E+01 -.948E+03   -.130E+00 -.755E-01 -.652E+00   0.177E-01 -.306E-01 -.444E-01
   0.999E-01 0.292E+01 0.954E+03   -.979E-01 -.281E+01 -.953E+03   -.382E-02 -.495E-01 -.556E+00   0.339E-02 -.722E-01 -.183E-01
   -.517E+01 0.302E+01 0.949E+03   0.505E+01 -.292E+01 -.948E+03   0.135E+00 -.783E-01 -.670E+00   -.143E-01 -.174E-01 -.477E-01
   0.253E+01 -.148E+01 0.953E+03   -.248E+01 0.143E+01 -.953E+03   -.431E-01 0.234E-01 -.570E+00   -.132E-01 0.304E-01 -.534E-01
   -.245E+01 -.155E+01 0.954E+03   0.237E+01 0.148E+01 -.953E+03   0.352E-01 0.233E-01 -.584E+00   0.427E-01 0.465E-01 -.521E-01
   -.907E-01 0.125E+01 0.950E+03   0.108E+00 -.135E+01 -.949E+03   -.503E-03 0.212E-01 -.639E+00   -.167E-01 0.648E-01 -.647E-01
   -.239E-02 -.586E+01 0.949E+03   -.133E-01 0.572E+01 -.948E+03   0.336E-03 0.152E+00 -.645E+00   0.153E-01 -.341E-02 -.370E-01
   0.113E+01 -.678E+00 0.950E+03   -.121E+01 0.708E+00 -.949E+03   0.173E-01 -.112E-01 -.654E+00   0.408E-01 -.892E-02 -.591E-01
   -.113E+01 -.576E+00 0.950E+03   0.122E+01 0.592E+00 -.949E+03   -.153E-01 -.897E-02 -.649E+00   -.561E-01 0.395E-02 -.581E-01
   -.768E+00 0.412E+01 -.872E+03   0.776E+00 -.397E+01 0.871E+03   -.491E-02 -.874E-01 0.509E+00   -.337E-02 -.642E-01 0.386E-01
   0.930E+01 0.480E+01 -.836E+03   -.908E+01 -.460E+01 0.836E+03   -.236E+00 -.144E+00 -.224E+00   0.597E-02 -.603E-01 -.549E-01
   -.859E+01 0.509E+01 -.834E+03   0.834E+01 -.490E+01 0.835E+03   0.256E+00 -.145E+00 -.226E+00   -.422E-02 -.439E-01 -.483E-01
   0.302E+01 -.180E+01 -.860E+03   -.320E+01 0.188E+01 0.860E+03   0.183E+00 -.995E-01 0.588E+00   -.158E-01 0.285E-01 -.332E-01
   0.600E+00 -.105E+02 -.836E+03   -.626E+00 0.102E+02 0.836E+03   0.887E-02 0.281E+00 -.221E+00   0.173E-01 0.526E-01 -.496E-01
   -.362E+01 -.240E+01 -.859E+03   0.383E+01 0.249E+01 0.859E+03   -.194E+00 -.109E+00 0.581E+00   -.247E-03 0.294E-01 -.349E-01
   -.388E+01 -.138E+01 -.872E+03   0.377E+01 0.132E+01 0.871E+03   0.695E-01 0.464E-01 0.516E+00   0.419E-01 0.232E-01 0.329E-01
   0.366E+01 -.214E+01 -.872E+03   -.356E+01 0.209E+01 0.872E+03   -.704E-01 0.422E-01 0.520E+00   -.345E-01 0.128E-01 0.290E-01
   0.216E+00 0.424E+01 -.859E+03   -.211E+00 -.449E+01 0.859E+03   0.213E-02 0.216E+00 0.574E+00   -.795E-02 0.218E-01 -.510E-01
   -.213E+01 0.139E+01 -.266E+04   0.214E+01 -.137E+01 0.266E+04   -.646E-02 0.147E-02 0.208E+01   0.526E-02 -.208E-01 0.109E+00
   0.192E+02 0.283E+02 -.265E+04   -.189E+02 -.278E+02 0.265E+04   -.334E+00 -.487E+00 0.189E+01   0.416E-01 -.479E-01 0.876E-01
   -.172E+02 0.342E+02 -.265E+04   0.169E+02 -.337E+02 0.264E+04   0.343E+00 -.492E+00 0.195E+01   -.340E-01 -.442E-01 0.878E-01
   0.305E+02 -.109E+01 -.266E+04   -.298E+02 0.117E+01 0.265E+04   -.635E+00 -.770E-01 0.177E+01   -.422E-01 0.301E-02 0.853E-01
   -.387E+02 -.175E+01 -.265E+04   0.380E+02 0.179E+01 0.264E+04   0.639E+00 -.690E-01 0.188E+01   0.511E-01 0.289E-01 0.844E-01
   0.163E+02 -.261E+02 -.266E+04   -.161E+02 0.255E+02 0.265E+04   -.236E+00 0.577E+00 0.182E+01   -.101E-01 0.610E-01 0.859E-01
   -.148E+02 -.316E+02 -.265E+04   0.145E+02 0.310E+02 0.265E+04   0.243E+00 0.563E+00 0.189E+01   0.446E-01 0.505E-01 0.865E-01
   -.154E+01 0.586E+00 -.266E+04   0.157E+01 -.619E+00 0.265E+04   0.951E-03 0.157E-02 0.208E+01   -.277E-01 0.275E-01 0.129E+00
   0.788E+01 -.351E+01 -.228E+04   -.777E+01 0.357E+01 0.227E+04   -.128E+00 -.164E-01 0.103E+01   0.905E-02 -.314E-01 0.507E-01
   0.817E+02 -.138E+02 -.259E+03   -.896E+02 0.152E+02 0.261E+03   0.781E+01 -.133E+01 -.236E+01   -.159E-02 -.437E-03 0.326E-02
   -.339E+01 -.795E+01 -.198E+03   0.365E+01 0.868E+01 0.190E+03   -.254E+00 -.735E+00 0.763E+01   0.152E-02 -.152E-02 0.595E-02
   -.479E+02 0.132E+02 -.150E+04   0.853E+02 -.234E+02 0.152E+04   -.374E+02 0.102E+02 -.264E+02   0.444E-02 -.691E-02 0.183E-01
 -----------------------------------------------------------------------------------------------
   0.299E+02 -.818E+01 0.237E+02   -.284E-13 0.238E-12 -.114E-11   -.300E+02 0.817E+01 -.233E+02   0.577E-01 0.322E-01 -.532E+00
 
 
 POSITION                                       TOTAL-FORCE (eV/Angst)
 -----------------------------------------------------------------------------------
      0.00000      0.00000      5.28219        -0.000045      0.001762      0.052787
      2.93046      0.00000      5.28219        -0.004842     -0.003608      0.031615
      5.86091      0.00000      5.28219         0.005122     -0.003256      0.030151
      1.46523      2.53785      5.28219        -0.002882     -0.000407      0.030598
      4.39568      2.53785      5.28219        -0.000376      0.002369      0.027402
      7.32614      2.53785      5.28219         0.003769     -0.001482      0.029182
      2.93046      5.07570      5.28219        -0.002565      0.000948      0.030758
      5.86091      5.07570      5.28219         0.002532      0.002163      0.031119
      8.79137      5.07570      5.28219        -0.000009     -0.001593      0.035759
      1.46523      0.84595      7.67490         0.000044     -0.001109     -0.010550
      4.39568      0.84595      7.67490         0.001701     -0.006456     -0.067477
      7.32614      0.84595      7.67490        -0.001259     -0.000002     -0.009808
      2.93046      3.38380      7.67490        -0.005129      0.003026     -0.067687
      5.86091      3.38380      7.67490         0.006318      0.001376     -0.069543
      8.79137      3.38380      7.67490        -0.000215     -0.019555     -0.029626
      4.39568      5.92165      7.67490         0.000002      0.000083     -0.008794
      7.32614      5.92165      7.67490        -0.016266      0.009477     -0.032211
     10.25659      5.92165      7.67490         0.017038      0.009787     -0.031106
      8.79137      1.70009     10.06101        -0.000351     -0.003451      0.017937
      2.92042      1.68610     10.02751        -0.008935     -0.004112     -0.025078
      5.87095      1.68610     10.02751         0.001572      0.000955     -0.012425
     10.25445      4.23098     10.04520        -0.009989      0.004564      0.008181
      4.39568      4.24134     10.02751         0.000540      0.002077     -0.020293
      7.32828      4.23098     10.04520         0.011870      0.006253      0.010890
     11.71473      6.76350     10.06101         0.002662      0.002551      0.022696
      5.86800      6.76350     10.06101        -0.001843      0.001465      0.022318
      8.79137      6.76512     10.04520        -0.000479     -0.013754      0.014583
      0.00000      0.00000     12.42233         0.002438      0.000526     -0.000452
      2.94927      0.03214     12.43461        -0.007258     -0.003581     -0.002894
      5.84210      0.03214     12.43461         0.006286     -0.005755      0.004260
      1.50247      2.53807     12.43461        -0.005685      0.001250     -0.010624
      7.28890      2.53807     12.43461         0.010792      0.000208     -0.002922
      2.94888      5.04334     12.43461        -0.004633      0.001779     -0.004926
      5.84248      5.04334     12.43461         0.002190      0.003338      0.004097
      8.79137      5.07570     12.41249         0.003143     -0.003725      0.002826
      4.39568      2.53785     12.25656        -0.014352      0.012744     -0.003666
      3.80427      2.53163     15.86323         0.002800     -0.002044      0.015652
      4.73074      2.47137     14.63174         0.007488     -0.010987     -0.010838
      4.73092      2.37127     15.61346        -0.001193      0.016175     -0.001891
 -----------------------------------------------------------------------------------
    total drift:                               -0.004884      0.015066     -0.158052


--------------------------------------------------------------------------------------------------------



  FREE ENERGIE OF THE ION-ELECTRON SYSTEM (eV)
  ---------------------------------------------------
  free  energy   TOTEN  =      -109.28338391 eV

  energy  without entropy=     -109.28338391  energy(sigma->0) =     -109.28338391
 


--------------------------------------------------------------------------------------------------------


    POTLOK:  cpu time    0.0488: real time    0.0488


--------------------------------------------------------------------------------------------------------


 stress matrix after NEB project (eV)
     -8.38690      0.00875      0.06616
      0.00875     -8.40767     -0.01403
      0.06616     -0.01403     -0.66212
  FORCES: max atom, RMS     0.017153    0.004579
  FORCE total and by dimension    0.028598    0.016175
  Stress total and by dimension   11.894396    8.407669
     LOOP+:  cpu time  257.0517: real time  257.0752
 -----------------------------------------------------------------------------
|                                                                             |
|           W    W    AA    RRRRR   N    N  II  N    N   GGGG   !!!           |
|           W    W   A  A   R    R  NN   N  II  NN   N  G    G  !!!           |
|           W    W  A    A  R    R  N N  N  II  N N  N  G       !!!           |
|           W WW W  AAAAAA  RRRRR   N  N N  II  N  N N  G  GGG   !            |
|           WW  WW  A    A  R   R   N   NN  II  N   NN  G    G                |
|           W    W  A    A  R    R  N    N  II  N    N   GGGG   !!!           |
|                                                                             |
|     Tetrahedron method does not include variations of the Fermi             |
|     occupations, so forces and stress will be inaccurate. We suggest        |
|     using a different smearing scheme ISMEAR = 1 or 2 for metals in         |
|     relaxations.                                                            |
|                                                                             |
 -----------------------------------------------------------------------------

    4ORBIT:  cpu time    0.0000: real time    0.0000



 total charge

# of ion       s       p       d       tot
------------------------------------------
    1        0.414   0.204   9.177   9.795
    2        0.417   0.202   9.177   9.797
    3        0.417   0.202   9.177   9.797
    4        0.417   0.203   9.177   9.797
    5        0.417   0.202   9.178   9.797
    6        0.418   0.202   9.177   9.797
    7        0.417   0.202   9.177   9.797
    8        0.417   0.202   9.177   9.797
    9        0.416   0.203   9.177   9.796
   10        0.405   0.270   9.164   9.840
   11        0.407   0.269   9.166   9.842
   12        0.405   0.271   9.164   9.840
   13        0.407   0.269   9.166   9.843
   14        0.407   0.269   9.166   9.842
   15        0.404   0.269   9.166   9.840
   16        0.405   0.270   9.164   9.840
   17        0.404   0.269   9.166   9.839
   18        0.404   0.269   9.166   9.839
   19        0.403   0.269   9.166   9.838
   20        0.408   0.282   9.165   9.855
   21        0.407   0.283   9.165   9.855
   22        0.402   0.271   9.168   9.841
   23        0.407   0.282   9.165   9.855
   24        0.401   0.271   9.168   9.841
   25        0.403   0.269   9.166   9.838
   26        0.403   0.269   9.166   9.838
   27        0.401   0.271   9.167   9.840
   28        0.414   0.196   9.182   9.792
   29        0.408   0.207   9.177   9.792
   30        0.407   0.207   9.177   9.791
   31        0.410   0.208   9.176   9.795
   32        0.409   0.207   9.177   9.793
   33        0.409   0.208   9.176   9.794
   34        0.408   0.207   9.177   9.792
   35        0.411   0.198   9.182   9.791
   36        0.627   0.278   8.189   9.094
   37        0.626   0.119   0.000   0.745
   38        0.605   0.117   0.000   0.722
   39        1.570   3.588   0.000   5.158
--------------------------------------------------
tot         17.740  12.458 329.196 359.394
 
 BZINTS: Fermi energy:    0.133867;  403.000000 electrons
         Band energy:-0.159632E+04;  BLOECHL correction:   -0.088818

 total amount of memory used by VASP MPI-rank0   282317. kBytes
=======================================================================

   base      :      30000. kBytes
   nonlr-proj:      15065. kBytes
   fftplans  :       4808. kBytes
   grid      :      20723. kBytes
   one-center:        606. kBytes
   wavefun   :     211115. kBytes
 
  
  
 General timing and accounting informations for this job:
 ========================================================
  
                  Total CPU time used (sec):      280.494
                            User time (sec):      270.403
                          System time (sec):       10.091
                         Elapsed time (sec):      280.937
  
                   Maximum memory used (kb):      587324.
                   Average memory used (kb):          N/A
  
                          Minor page faults:       121851
                          Major page faults:            0
                 Voluntary context switches:         6888
