PROCAR new format
# of k-points:   10         # of bands:  252         # of ions:   39

 k-point     1 :    0.00000000 0.00000000 0.00000000     weight = 0.01562500

band     1 # energy  -24.20948683 # occ.  2.00000000
 
ion      s      p      d    tot
    1  0.000  0.000  0.000  0.000
    2  0.000  0.000  0.000  0.000
    3  0.000  0.000  0.000  0.000
    4  0.000  0.000  0.000  0.000
    5  0.000  0.000  0.000  0.000
    6  0.000  0.000  0.000  0.000
    7  0.000  0.000  0.000  0.000
    8  0.000  0.000  0.000  0.000
    9  0.000  0.000  0.000  0.000
   10  0.000  0.000  0.000  0.000
   11  0.000  0.000  0.000  0.000
   12  0.000  0.000  0.000  0.000
   13  0.000  0.000  0.000  0.000
   14  0.000  0.000  0.000  0.000
   15  0.000  0.000  0.000  0.000
   16  0.000  0.000  0.000  0.000
   17  0.000  0.000  0.000  0.000
   18  0.000  0.000  0.000  0.000
   19  0.000  0.000  0.000  0.000
   20  0.000  0.000  0.000  0.000
   21  0.000  0.000  0.000  0.000
   22  0.000  0.000  0.000  0.000
   23  0.000  0.000  0.000  0.000
   24  0.000  0.000  0.000  0.000
   25  0.000  0.000  0.000  0.000
   26  0.000  0.000  0.000  0.000
   27  0.000  0.000  0.000  0.000
   28  0.000  0.000  0.000  0.000
   29  0.000  0.000  0.000  0.000
   30  0.000  0.000  0.000  0.000
   31  0.000  0.000  0.000  0.000
   32  0.000  0.000  0.000  0.000
   33  0.000  0.000  0.000  0.000
   34  0.000  0.000  0.000  0.000
   35  0.000  0.000  0.000  0.000
   36  0.000  0.000  0.000  0.000
   37  0.072  0.054  0.000  0.126
   38  0.729  0.005  0.000  0.734
   39  0.066  0.014  0.000  0.080
tot    0.867  0.073  0.000  0.940
 
band     2 # energy  -14.92794485 # occ.  2.00000000
 
ion      s      p      d    tot
    1  0.000  0.000  0.000  0.000
    2  0.000  0.000  0.000  0.000
    3  0.000  0.000  0.000  0.000
    4  0.000  0.000  0.000  0.000
    5  0.000  0.000  0.000  0.000
    6  0.000  0.000  0.000  0.000
    7  0.000  0.000  0.000  0.000
    8  0.000  0.000  0.000  0.000
    9  0.000  0.000  0.000  0.000
   10  0.000  0.000  0.000  0.000
   11  0.000  0.000  0.000  0.000
   12  0.000  0.000  0.000  0.000
   13  0.000  0.000  0.000  0.000
   14  0.000  0.000  0.000  0.000
   15  0.000  0.000  0.000  0.000
   16  0.000  0.000  0.000  0.000
   17  0.000  0.000  0.000  0.000
   18  0.000  0.000  0.000  0.000
   19  0.000  0.000  0.000  0.000
   20  0.000  0.000  0.000  0.000
   21  0.000  0.000  0.000  0.000
   22  0.000  0.000  0.000  0.000
   23  0.000  0.000  0.000  0.000
   24  0.000  0.000  0.000  0.000
   25  0.000  0.000  0.000  0.000
   26  0.000  0.000  0.000  0.000
   27  0.000  0.000  0.000  0.000
   28  0.000  0.000  0.000  0.000
   29  0.000  0.000  0.000  0.000
   30  0.000  0.000  0.000  0.000
   31  0.000  0.000  0.000  0.000
   32  0.000  0.000  0.000  0.000
   33  0.000  0.000  0.000  0.000
   34  0.000  0.000  0.000  0.000
   35  0.000  0.000  0.000  0.000
   36  0.002  0.001  0.002  0.005
   37  0.153  0.055  0.000  0.208
   38  0.013  0.530  0.000  0.543
   39  0.202  0.032  0.000  0.234
tot    0.369  0.618  0.002  0.989
 
band     3 # energy   -9.01000630 # occ.  2.00000000
 
ion      s      p      d    tot
    1  0.007  0.001  0.000  0.007
    2  0.007  0.001  0.000  0.007
    3  0.007  0.001  0.000  0.007
    4  0.007  0.001  0.000  0.007
    5  0.007  0.001  0.000  0.007
    6  0.007  0.001  0.000  0.007
    7  0.007  0.001  0.000  0.007
    8  0.007  0.001  0.000  0.007
    9  0.007  0.001  0.000  0.007
   10  0.025  0.000  0.000  0.025
   11  0.024  0.000  0.000  0.025
   12  0.025  0.000  0.000  0.025
   13  0.024  0.000  0.000  0.025
   14  0.024  0.000  0.000  0.025
   15  0.024  0.000  0.000  0.025
   16  0.025  0.000  0.000  0.025
   17  0.024  0.000  0.000  0.025
   18  0.024  0.000  0.000  0.025
   19  0.025  0.000  0.000  0.025
   20  0.024  0.000  0.000  0.024
   21  0.024  0.000  0.000  0.024
   22  0.024  0.000  0.000  0.024
   23  0.024  0.000  0.000  0.024
   24  0.024  0.000  0.000  0.024
   25  0.025  0.000  0.000  0.025
   26  0.025  0.000  0.000  0.025
   27  0.024  0.000  0.000  0.024
   28  0.007  0.001  0.000  0.008
   29  0.007  0.001  0.000  0.007
   30  0.007  0.001  0.000  0.007
   31  0.007  0.001  0.000  0.007
   32  0.007  0.001  0.000  0.007
   33  0.007  0.001  0.000  0.007
   34  0.007  0.001  0.000  0.007
   35  0.007  0.001  0.000  0.007
   36  0.010  0.000  0.000  0.010
   37  0.001  0.001  0.000  0.001
   38  0.000  0.000  0.000  0.000
   39  0.000  0.000  0.000  0.000
tot    0.566  0.017  0.001  0.584
 
band     4 # energy   -7.73449256 # occ.  2.00000000
 
ion      s      p      d    tot
    1  0.017  0.001  0.000  0.018
    2  0.017  0.001  0.000  0.018
    3  0.017  0.001  0.000  0.018
    4  0.017  0.001  0.000  0.018
    5  0.017  0.001  0.000  0.018
    6  0.017  0.001  0.000  0.018
    7  0.017  0.001  0.000  0.018
    8  0.017  0.001  0.000  0.018
    9  0.017  0.001  0.000  0.018
   10  0.010  0.002  0.001  0.013
   11  0.010  0.002  0.001  0.013
   12  0.010  0.002  0.001  0.013
   13  0.010  0.002  0.001  0.013
   14  0.010  0.002  0.001  0.013
   15  0.010  0.002  0.001  0.012
   16  0.010  0.002  0.001  0.013
   17  0.010  0.002  0.001  0.012
   18  0.010  0.002  0.001  0.012
   19  0.009  0.002  0.000  0.012
   20  0.009  0.002  0.001  0.011
   21  0.009  0.002  0.001  0.011
   22  0.009  0.002  0.000  0.012
   23  0.009  0.002  0.001  0.011
   24  0.009  0.002  0.000  0.012
   25  0.009  0.002  0.000  0.012
   26  0.009  0.002  0.000  0.012
   27  0.009  0.002  0.000  0.012
   28  0.019  0.001  0.001  0.020
   29  0.018  0.001  0.000  0.019
   30  0.018  0.001  0.000  0.019
   31  0.018  0.001  0.000  0.019
   32  0.018  0.001  0.000  0.019
   33  0.018  0.001  0.000  0.019
   34  0.018  0.001  0.000  0.019
   35  0.018  0.001  0.001  0.020
   36  0.033  0.000  0.001  0.035
   37  0.007  0.007  0.000  0.014
   38  0.001  0.002  0.000  0.003
   39  0.001  0.000  0.000  0.001
tot    0.516  0.059  0.019  0.594
 
band     5 # energy   -6.91323021 # occ.  2.00000000
 
ion      s      p      d    tot
    1  0.000  0.000  0.000  0.000
    2  0.000  0.000  0.000  0.000
    3  0.000  0.000  0.000  0.000
    4  0.000  0.000  0.000  0.000
    5  0.000  0.000  0.000  0.000
    6  0.000  0.000  0.000  0.000
    7  0.000  0.000  0.000  0.000
    8  0.000  0.000  0.000  0.000
    9  0.000  0.000  0.000  0.000
   10  0.000  0.000  0.000  0.000
   11  0.000  0.000  0.000  0.000
   12  0.000  0.000  0.000  0.000
   13  0.000  0.000  0.000  0.000
   14  0.000  0.000  0.000  0.000
   15  0.000  0.000  0.000  0.000
   16  0.000  0.000  0.000  0.000
   17  0.000  0.000  0.000  0.000
   18  0.000  0.000  0.000  0.000
   19  0.000  0.000  0.000  0.000
   20  0.000  0.000  0.000  0.000
   21  0.000  0.000  0.000  0.000
   22  0.000  0.000  0.000  0.000
   23  0.000  0.000  0.000  0.000
   24  0.000  0.000  0.000  0.000
   25  0.000  0.000  0.000  0.000
   26  0.000  0.000  0.000  0.000
   27  0.000  0.000  0.000  0.000
   28  0.000  0.000  0.000  0.000
   29  0.000  0.000  0.000  0.000
   30  0.000  0.000  0.000  0.000
   31  0.000  0.000  0.000  0.000
   32  0.000  0.000  0.000  0.000
   33  0.000  0.000  0.000  0.000
   34  0.000  0.000  0.000  0.000
   35  0.000  0.000  0.000  0.000
   36  0.000  0.002  0.005  0.007
   37  0.000  0.099  0.000  0.099
   38  0.000  0.566  0.000  0.566
   39  0.000  0.008  0.000  0.008
tot    0.001  0.675  0.006  0.682
 
band     6 # energy   -6.91313498 # occ.  2.00000000
 
ion      s      p      d    tot
    1  0.000  0.000  0.000  0.000
    2  0.000  0.000  0.000  0.000
    3  0.000  0.000  0.000  0.000
    4  0.000  0.000  0.000  0.000
    5  0.000  0.000  0.000  0.000
    6  0.000  0.000  0.000  0.000
    7  0.000  0.000  0.000  0.000
    8  0.000  0.000  0.000  0.000
    9  0.000  0.000  0.000  0.000
   10  0.000  0.000  0.000  0.000
   11  0.000  0.000  0.000  0.000
   12  0.000  0.000  0.000  0.000
   13  0.000  0.000  0.000  0.000
   14  0.000  0.000  0.000  0.000
   15  0.000  0.000  0.000  0.000
   16  0.000  0.000  0.000  0.000
   17  0.000  0.000  0.000  0.000
   18  0.000  0.000  0.000  0.000
   19  0.000  0.000  0.000  0.000
   20  0.000  0.000  0.000  0.000
   21  0.000  0.000  0.000  0.000
   22  0.000  0.000  0.000  0.000
   23  0.000  0.000  0.000  0.000
   24  0.000  0.000  0.000  0.000
   25  0.000  0.000  0.000  0.000
   26  0.000  0.000  0.000  0.000
   27  0.000  0.000  0.000  0.000
   28  0.000  0.000  0.000  0.000
   29  0.000  0.000  0.000  0.000
   30  0.000  0.000  0.000  0.001
   31  0.000  0.000  0.000  0.000
   32  0.000  0.000  0.000  0.000
   33  0.000  0.000  0.000  0.001
   34  0.000  0.000  0.000  0.000
   35  0.000  0.000  0.000  0.000
   36  0.000  0.002  0.005  0.007
   37  0.000  0.099  0.000  0.099
   38  0.000  0.566  0.000  0.566
   39  0.000  0.008  0.000  0.008
tot    0.001  0.675  0.006  0.682
 
band     7 # energy   -6.57587464 # occ.  2.00000000
 
ion      s      p      d    tot
    1  0.003  0.000  0.001  0.004
    2  0.004  0.000  0.001  0.004
    3  0.004  0.000  0.001  0.004
    4  0.004  0.000  0.001  0.004
    5  0.005  0.000  0.000  0.006
    6  0.004  0.000  0.001  0.004
    7  0.004  0.000  0.001  0.004
    8  0.004  0.000  0.001  0.004
    9  0.002  0.000  0.001  0.003
   10  0.000  0.001  0.000  0.001
   11  0.000  0.001  0.000  0.001
   12  0.000  0.001  0.000  0.002
   13  0.000  0.001  0.000  0.001
   14  0.000  0.001  0.000  0.001
   15  0.001  0.001  0.000  0.002
   16  0.000  0.001  0.000  0.002
   17  0.001  0.001  0.000  0.002
   18  0.001  0.001  0.000  0.002
   19  0.008  0.000  0.001  0.009
   20  0.000  0.002  0.003  0.005
   21  0.000  0.002  0.003  0.005
   22  0.006  0.000  0.001  0.007
   23  0.000  0.002  0.003  0.005
   24  0.006  0.000  0.001  0.007
   25  0.008  0.000  0.001  0.009
   26  0.008  0.000  0.001  0.009
   27  0.006  0.000  0.001  0.007
   28  0.000  0.001  0.001  0.002
   29  0.001  0.001  0.001  0.003
   30  0.001  0.001  0.001  0.003
   31  0.001  0.001  0.001  0.003
   32  0.001  0.001  0.001  0.003
   33  0.001  0.001  0.001  0.003
   34  0.001  0.001  0.001  0.003
   35  0.000  0.000  0.000  0.001
   36  0.118  0.057  0.105  0.280
   37  0.178  0.133  0.000  0.311
   38  0.015  0.040  0.000  0.055
   39  0.013  0.001  0.000  0.013
tot    0.404  0.255  0.134  0.793
 
band     8 # energy   -6.07285518 # occ.  2.00000000
 
ion      s      p      d    tot
    1  0.015  0.000  0.004  0.019
    2  0.011  0.001  0.005  0.016
    3  0.011  0.001  0.005  0.016
    4  0.011  0.001  0.005  0.016
    5  0.001  0.001  0.006  0.008
    6  0.011  0.000  0.005  0.016
    7  0.011  0.001  0.005  0.016
    8  0.011  0.001  0.005  0.016
    9  0.024  0.000  0.002  0.027
   10  0.001  0.003  0.004  0.009
   11  0.020  0.006  0.001  0.027
   12  0.001  0.003  0.004  0.009
   13  0.020  0.006  0.001  0.027
   14  0.020  0.006  0.001  0.027
   15  0.001  0.002  0.006  0.008
   16  0.001  0.003  0.004  0.009
   17  0.001  0.002  0.006  0.008
   18  0.001  0.002  0.006  0.009
   19  0.000  0.002  0.007  0.009
   20  0.026  0.006  0.002  0.033
   21  0.026  0.006  0.002  0.033
   22  0.000  0.005  0.004  0.008
   23  0.026  0.006  0.002  0.033
   24  0.000  0.004  0.004  0.008
   25  0.000  0.002  0.007  0.009
   26  0.000  0.002  0.007  0.009
   27  0.000  0.004  0.004  0.008
   28  0.023  0.000  0.003  0.026
   29  0.012  0.001  0.007  0.019
   30  0.012  0.001  0.007  0.019
   31  0.012  0.001  0.007  0.019
   32  0.012  0.001  0.007  0.019
   33  0.012  0.001  0.007  0.019
   34  0.012  0.001  0.007  0.019
   35  0.027  0.000  0.004  0.031
   36  0.001  0.000  0.020  0.021
   37  0.005  0.003  0.000  0.008
   38  0.000  0.001  0.000  0.001
   39  0.000  0.000  0.000  0.000
tot    0.373  0.084  0.182  0.639
 
band     9 # energy   -6.02516803 # occ.  2.00000000
 
ion      s      p      d    tot
    1  0.000  0.003  0.005  0.008
    2  0.006  0.002  0.002  0.010
    3  0.005  0.002  0.002  0.009
    4  0.009  0.002  0.002  0.013
    5  0.000  0.001  0.002  0.003
    6  0.000  0.001  0.002  0.003
    7  0.008  0.002  0.002  0.012
    8  0.000  0.001  0.002  0.003
    9  0.000  0.001  0.004  0.005
   10  0.051  0.002  0.006  0.060
   11  0.001  0.007  0.004  0.011
   12  0.006  0.008  0.008  0.022
   13  0.000  0.010  0.003  0.013
   14  0.001  0.001  0.005  0.007
   15  0.015  0.002  0.010  0.027
   16  0.022  0.006  0.008  0.035
   17  0.004  0.001  0.014  0.019
   18  0.036  0.005  0.003  0.043
   19  0.025  0.006  0.009  0.039
   20  0.031  0.005  0.003  0.039
   21  0.004  0.001  0.015  0.020
   22  0.000  0.011  0.002  0.014
   23  0.013  0.002  0.011  0.027
   24  0.004  0.001  0.006  0.010
   25  0.058  0.003  0.006  0.067
   26  0.007  0.007  0.010  0.024
   27  0.002  0.008  0.004  0.013
   28  0.000  0.004  0.006  0.010
   29  0.005  0.002  0.002  0.009
   30  0.009  0.002  0.003  0.014
   31  0.009  0.002  0.003  0.014
   32  0.001  0.001  0.003  0.005
   33  0.011  0.003  0.003  0.017
   34  0.000  0.001  0.003  0.003
   35  0.000  0.001  0.003  0.004
   36  0.000  0.001  0.004  0.005
   37  0.000  0.000  0.000  0.000
   38  0.000  0.000  0.000  0.000
   39  0.000  0.000  0.000  0.000
tot    0.346  0.115  0.179  0.640
 
band    10 # energy   -6.02509124 # occ.  2.00000000
 
ion      s      p      d    tot
    1  0.000  0.003  0.005  0.008
    2  0.004  0.001  0.002  0.007
    3  0.004  0.002  0.002  0.008
    4  0.001  0.001  0.002  0.004
    5  0.000  0.001  0.002  0.003
    6  0.009  0.002  0.002  0.014
    7  0.001  0.001  0.002  0.005
    8  0.009  0.002  0.002  0.014
    9  0.000  0.001  0.004  0.005
   10  0.002  0.008  0.009  0.019
   11  0.001  0.005  0.004  0.010
   12  0.047  0.003  0.006  0.056
   13  0.001  0.002  0.005  0.008
   14  0.000  0.011  0.003  0.014
   15  0.022  0.003  0.008  0.032
   16  0.031  0.005  0.007  0.043
   17  0.032  0.004  0.004  0.040
   18  0.001  0.000  0.015  0.017
   19  0.036  0.005  0.008  0.048
   20  0.001  0.001  0.016  0.018
   21  0.029  0.004  0.004  0.037
   22  0.004  0.002  0.005  0.011
   23  0.019  0.003  0.008  0.030
   24  0.000  0.012  0.002  0.014
   25  0.002  0.007  0.010  0.020
   26  0.053  0.003  0.006  0.063
   27  0.002  0.005  0.004  0.012
   28  0.000  0.004  0.006  0.010
   29  0.007  0.002  0.003  0.012
   30  0.003  0.001  0.002  0.007
   31  0.003  0.001  0.003  0.007
   32  0.010  0.003  0.003  0.016
   33  0.000  0.001  0.002  0.004
   34  0.012  0.003  0.003  0.017
   35  0.000  0.001  0.003  0.004
   36  0.000  0.001  0.004  0.005
   37  0.000  0.000  0.000  0.000
   38  0.000  0.000  0.000  0.000
   39  0.000  0.000  0.000  0.000
tot    0.346  0.115  0.179  0.640
 
band    11 # energy   -6.01860321 # occ.  2.00000000
 
ion      s      p      d    tot
    1  0.019  0.003  0.001  0.023
    2  0.000  0.002  0.004  0.006
    3  0.000  0.002  0.004  0.006
    4  0.000  0.002  0.004  0.006
    5  0.002  0.000  0.000  0.002
    6  0.000  0.002  0.004  0.006
    7  0.000  0.002  0.004  0.006
    8  0.000  0.002  0.004  0.006
    9  0.010  0.001  0.000  0.012
   10  0.030  0.006  0.006  0.042
   11  0.005  0.000  0.011  0.016
   12  0.031  0.006  0.006  0.042
   13  0.005  0.000  0.011  0.016
   14  0.004  0.000  0.011  0.016
   15  0.011  0.008  0.003  0.023
   16  0.031  0.006  0.006  0.042
   17  0.011  0.008  0.003  0.023
   18  0.011  0.008  0.003  0.023
   19  0.023  0.010  0.002  0.035
   20  0.000  0.002  0.011  0.013
   21  0.000  0.002  0.011  0.013
   22  0.025  0.002  0.009  0.036
   23  0.000  0.002  0.011  0.013
   24  0.024  0.002  0.009  0.036
   25  0.023  0.010  0.002  0.035
   26  0.023  0.009  0.002  0.035
   27  0.025  0.002  0.009  0.036
   28  0.017  0.003  0.001  0.020
   29  0.000  0.002  0.005  0.006
   30  0.000  0.002  0.005  0.006
   31  0.000  0.002  0.005  0.006
   32  0.000  0.002  0.005  0.006
   33  0.000  0.002  0.005  0.006
   34  0.000  0.002  0.005  0.006
   35  0.016  0.002  0.001  0.019
   36  0.000  0.000  0.000  0.000
   37  0.000  0.000  0.000  0.000
   38  0.000  0.000  0.000  0.000
   39  0.000  0.000  0.000  0.000
tot    0.345  0.115  0.181  0.641
 
band    12 # energy   -6.00528627 # occ.  2.00000000
 
ion      s      p      d    tot
    1  0.000  0.000  0.003  0.003
    2  0.006  0.002  0.002  0.010
    3  0.005  0.002  0.002  0.009
    4  0.009  0.002  0.003  0.014
    5  0.000  0.003  0.006  0.008
    6  0.000  0.001  0.002  0.003
    7  0.009  0.002  0.002  0.014
    8  0.001  0.001  0.002  0.004
    9  0.000  0.002  0.003  0.006
   10  0.000  0.005  0.010  0.015
   11  0.033  0.003  0.009  0.046
   12  0.008  0.003  0.004  0.015
   13  0.055  0.004  0.005  0.064
   14  0.003  0.002  0.015  0.020
   15  0.013  0.006  0.005  0.024
   16  0.005  0.004  0.006  0.015
   17  0.021  0.001  0.006  0.029
   18  0.001  0.013  0.002  0.016
   19  0.003  0.004  0.006  0.013
   20  0.001  0.013  0.003  0.017
   21  0.028  0.002  0.007  0.037
   22  0.054  0.004  0.004  0.062
   23  0.017  0.006  0.005  0.029
   24  0.003  0.001  0.016  0.020
   25  0.000  0.006  0.009  0.015
   26  0.004  0.003  0.004  0.011
   27  0.033  0.003  0.009  0.045
   28  0.000  0.000  0.003  0.003
   29  0.005  0.002  0.002  0.009
   30  0.007  0.002  0.003  0.012
   31  0.009  0.002  0.003  0.014
   32  0.001  0.001  0.003  0.005
   33  0.010  0.003  0.003  0.016
   34  0.000  0.001  0.002  0.003
   35  0.000  0.003  0.006  0.009
   36  0.000  0.004  0.004  0.008
   37  0.000  0.000  0.000  0.000
   38  0.000  0.000  0.000  0.000
   39  0.000  0.000  0.000  0.000
tot    0.344  0.117  0.179  0.641
 
band    13 # energy   -6.00518004 # occ.  2.00000000
 
ion      s      p      d    tot
    1  0.000  0.000  0.003  0.003
    2  0.004  0.001  0.002  0.008
    3  0.005  0.002  0.002  0.009
    4  0.001  0.001  0.002  0.004
    5  0.000  0.003  0.006  0.008
    6  0.010  0.002  0.003  0.015
    7  0.001  0.001  0.002  0.004
    8  0.010  0.002  0.002  0.014
    9  0.000  0.002  0.003  0.006
   10  0.008  0.003  0.003  0.015
   11  0.028  0.003  0.010  0.041
   12  0.001  0.005  0.010  0.015
   13  0.006  0.002  0.014  0.022
   14  0.058  0.004  0.004  0.067
   15  0.011  0.007  0.004  0.022
   16  0.004  0.004  0.007  0.015
   17  0.002  0.012  0.003  0.017
   18  0.022  0.001  0.006  0.030
   19  0.002  0.005  0.006  0.013
   20  0.030  0.001  0.007  0.038
   21  0.003  0.012  0.004  0.018
   22  0.005  0.002  0.015  0.022
   23  0.014  0.008  0.005  0.027
   24  0.057  0.005  0.004  0.065
   25  0.005  0.003  0.004  0.011
   26  0.000  0.006  0.008  0.015
   27  0.027  0.003  0.010  0.040
   28  0.000  0.000  0.003  0.003
   29  0.006  0.002  0.003  0.011
   30  0.004  0.001  0.002  0.007
   31  0.002  0.001  0.003  0.006
   32  0.010  0.002  0.003  0.015
   33  0.000  0.001  0.002  0.004
   34  0.010  0.003  0.003  0.016
   35  0.000  0.003  0.006  0.009
   36  0.000  0.004  0.004  0.008
   37  0.000  0.000  0.000  0.000
   38  0.000  0.000  0.000  0.000
   39  0.000  0.000  0.000  0.000
tot    0.344  0.117  0.179  0.641
 
band    14 # energy   -5.84027364 # occ.  2.00000000
 
ion      s      p      d    tot
    1  0.000  0.000  0.002  0.003
    2  0.004  0.002  0.007  0.013
    3  0.004  0.002  0.007  0.013
    4  0.004  0.002  0.007  0.013
    5  0.044  0.003  0.000  0.047
    6  0.004  0.002  0.007  0.013
    7  0.004  0.002  0.007  0.013
    8  0.004  0.002  0.007  0.013
    9  0.002  0.002  0.006  0.010
   10  0.004  0.004  0.008  0.016
   11  0.013  0.008  0.005  0.026
   12  0.004  0.004  0.008  0.016
   13  0.013  0.008  0.005  0.026
   14  0.013  0.008  0.005  0.026
   15  0.029  0.002  0.010  0.041
   16  0.004  0.004  0.008  0.016
   17  0.029  0.002  0.010  0.041
   18  0.029  0.002  0.010  0.041
   19  0.004  0.003  0.005  0.012
   20  0.009  0.002  0.008  0.019
   21  0.009  0.002  0.008  0.019
   22  0.005  0.005  0.004  0.015
   23  0.009  0.002  0.008  0.019
   24  0.005  0.005  0.004  0.015
   25  0.004  0.003  0.005  0.012
   26  0.004  0.003  0.005  0.012
   27  0.005  0.005  0.004  0.015
   28  0.005  0.000  0.004  0.009
   29  0.005  0.000  0.004  0.008
   30  0.005  0.000  0.004  0.008
   31  0.005  0.000  0.004  0.008
   32  0.005  0.000  0.004  0.008
   33  0.005  0.000  0.004  0.008
   34  0.005  0.000  0.004  0.008
   35  0.002  0.000  0.003  0.005
   36  0.000  0.019  0.023  0.042
   37  0.026  0.017  0.000  0.043
   38  0.002  0.005  0.000  0.007
   39  0.002  0.000  0.000  0.002
tot    0.327  0.128  0.222  0.677
 
band    15 # energy   -5.26663857 # occ.  2.00000000
 
ion      s      p      d    tot
    1  0.001  0.001  0.009  0.011
    2  0.004  0.001  0.009  0.014
    3  0.004  0.001  0.009  0.014
    4  0.004  0.001  0.009  0.014
    5  0.000  0.001  0.008  0.009
    6  0.004  0.001  0.009  0.014
    7  0.004  0.001  0.009  0.014
    8  0.004  0.001  0.009  0.014
    9  0.023  0.000  0.005  0.029
   10  0.010  0.000  0.023  0.034
   11  0.009  0.000  0.020  0.029
   12  0.010  0.000  0.023  0.033
   13  0.009  0.000  0.020  0.029
   14  0.009  0.000  0.020  0.029
   15  0.001  0.001  0.021  0.023
   16  0.010  0.000  0.023  0.033
   17  0.001  0.001  0.021  0.023
   18  0.001  0.001  0.021  0.023
   19  0.006  0.000  0.020  0.026
   20  0.011  0.001  0.024  0.035
   21  0.011  0.001  0.024  0.035
   22  0.001  0.001  0.021  0.023
   23  0.011  0.001  0.024  0.035
   24  0.001  0.001  0.021  0.023
   25  0.006  0.000  0.020  0.026
   26  0.006  0.000  0.020  0.026
   27  0.001  0.001  0.021  0.023
   28  0.000  0.001  0.007  0.008
   29  0.003  0.001  0.009  0.013
   30  0.004  0.001  0.009  0.014
   31  0.003  0.001  0.009  0.013
   32  0.003  0.001  0.009  0.013
   33  0.004  0.001  0.009  0.014
   34  0.003  0.001  0.009  0.014
   35  0.022  0.000  0.006  0.027
   36  0.000  0.001  0.006  0.008
   37  0.000  0.000  0.000  0.000
   38  0.000  0.000  0.000  0.000
   39  0.000  0.000  0.000  0.000
tot    0.205  0.024  0.541  0.770
 
band    16 # energy   -5.26410642 # occ.  2.00000000
 
ion      s      p      d    tot
    1  0.000  0.005  0.010  0.015
    2  0.003  0.002  0.005  0.010
    3  0.021  0.004  0.005  0.030
    4  0.007  0.002  0.005  0.015
    5  0.000  0.000  0.011  0.011
    6  0.009  0.002  0.005  0.016
    7  0.020  0.004  0.005  0.030
    8  0.004  0.002  0.005  0.011
    9  0.000  0.005  0.008  0.013
   10  0.011  0.002  0.006  0.019
   11  0.001  0.002  0.012  0.015
   12  0.002  0.003  0.021  0.026
   13  0.000  0.002  0.014  0.016
   14  0.002  0.001  0.009  0.012
   15  0.009  0.002  0.016  0.027
   16  0.004  0.003  0.017  0.024
   17  0.003  0.001  0.020  0.024
   18  0.023  0.005  0.006  0.035
   19  0.006  0.002  0.015  0.024
   20  0.001  0.001  0.011  0.013
   21  0.000  0.002  0.014  0.016
   22  0.001  0.003  0.025  0.028
   23  0.001  0.002  0.013  0.015
   24  0.008  0.002  0.005  0.015
   25  0.017  0.006  0.008  0.031
   26  0.002  0.001  0.018  0.021
   27  0.003  0.002  0.019  0.025
   28  0.000  0.005  0.008  0.013
   29  0.004  0.002  0.006  0.012
   30  0.023  0.004  0.007  0.034
   31  0.009  0.002  0.006  0.018
   32  0.008  0.002  0.006  0.017
   33  0.023  0.004  0.007  0.034
   34  0.003  0.002  0.006  0.011
   35  0.000  0.005  0.011  0.016
   36  0.000  0.000  0.009  0.009
   37  0.000  0.000  0.000  0.000
   38  0.000  0.000  0.000  0.000
   39  0.000  0.000  0.000  0.000
tot    0.231  0.094  0.377  0.702
 
band    17 # energy   -5.26406532 # occ.  2.00000000
 
ion      s      p      d    tot
    1  0.000  0.004  0.010  0.015
    2  0.019  0.004  0.005  0.027
    3  0.000  0.002  0.005  0.007
    4  0.014  0.003  0.005  0.022
    5  0.000  0.000  0.011  0.011
    6  0.013  0.003  0.005  0.021
    7  0.001  0.002  0.005  0.007
    8  0.018  0.004  0.005  0.026
    9  0.000  0.005  0.008  0.013
   10  0.000  0.004  0.023  0.027
   11  0.001  0.002  0.011  0.014
   12  0.010  0.002  0.008  0.020
   13  0.002  0.001  0.010  0.013
   14  0.000  0.003  0.014  0.017
   15  0.015  0.003  0.012  0.030
   16  0.007  0.002  0.012  0.022
   17  0.020  0.005  0.008  0.033
   18  0.000  0.000  0.022  0.022
   19  0.011  0.004  0.012  0.027
   20  0.000  0.002  0.015  0.017
   21  0.001  0.001  0.011  0.013
   22  0.008  0.002  0.008  0.017
   23  0.001  0.001  0.012  0.014
   24  0.000  0.003  0.028  0.030
   25  0.000  0.000  0.019  0.019
   26  0.015  0.005  0.009  0.029
   27  0.006  0.002  0.013  0.021
   28  0.000  0.005  0.008  0.013
   29  0.020  0.004  0.007  0.030
   30  0.001  0.002  0.006  0.008
   31  0.014  0.003  0.007  0.024
   32  0.015  0.003  0.007  0.025
   33  0.000  0.002  0.006  0.008
   34  0.020  0.004  0.007  0.031
   35  0.000  0.005  0.011  0.016
   36  0.000  0.000  0.009  0.009
   37  0.000  0.000  0.000  0.000
   38  0.000  0.000  0.000  0.000
   39  0.000  0.000  0.000  0.000
tot    0.231  0.094  0.377  0.702
 
band    18 # energy   -5.25509370 # occ.  2.00000000
 
ion      s      p      d    tot
    1  0.038  0.003  0.000  0.041
    2  0.001  0.003  0.010  0.013
    3  0.001  0.003  0.010  0.013
    4  0.001  0.003  0.010  0.013
    5  0.000  0.000  0.002  0.002
    6  0.001  0.003  0.010  0.013
    7  0.001  0.003  0.010  0.013
    8  0.001  0.003  0.010  0.013
    9  0.019  0.003  0.002  0.025
   10  0.005  0.003  0.012  0.020
   11  0.003  0.000  0.016  0.019
   12  0.005  0.003  0.012  0.020
   13  0.003  0.000  0.016  0.019
   14  0.003  0.000  0.016  0.019
   15  0.009  0.003  0.016  0.028
   16  0.005  0.003  0.012  0.020
   17  0.009  0.003  0.016  0.028
   18  0.009  0.003  0.016  0.028
   19  0.002  0.003  0.021  0.026
   20  0.000  0.000  0.015  0.015
   21  0.000  0.000  0.015  0.016
   22  0.013  0.003  0.010  0.026
   23  0.000  0.000  0.015  0.015
   24  0.013  0.003  0.010  0.026
   25  0.002  0.003  0.021  0.026
   26  0.002  0.003  0.021  0.026
   27  0.013  0.003  0.010  0.026
   28  0.042  0.003  0.000  0.045
   29  0.000  0.003  0.012  0.015
   30  0.000  0.003  0.012  0.015
   31  0.000  0.003  0.012  0.015
   32  0.000  0.003  0.012  0.015
   33  0.000  0.003  0.012  0.015
   34  0.000  0.003  0.012  0.015
   35  0.019  0.003  0.002  0.025
   36  0.000  0.000  0.000  0.001
   37  0.000  0.000  0.000  0.000
   38  0.000  0.000  0.000  0.000
   39  0.000  0.000  0.000  0.000
tot    0.223  0.083  0.406  0.712
 
band    19 # energy   -5.23944514 # occ.  2.00000000
 
ion      s      p      d    tot
    1  0.000  0.002  0.010  0.011
    2  0.001  0.002  0.005  0.008
    3  0.020  0.004  0.005  0.029
    4  0.008  0.002  0.005  0.016
    5  0.000  0.006  0.009  0.015
    6  0.010  0.003  0.005  0.018
    7  0.020  0.004  0.005  0.029
    8  0.003  0.002  0.005  0.009
    9  0.000  0.001  0.012  0.013
   10  0.001  0.001  0.016  0.017
   11  0.011  0.003  0.015  0.029
   12  0.011  0.004  0.010  0.024
   13  0.018  0.004  0.007  0.029
   14  0.001  0.001  0.026  0.028
   15  0.001  0.002  0.013  0.015
   16  0.007  0.002  0.012  0.021
   17  0.001  0.000  0.009  0.010
   18  0.000  0.004  0.019  0.022
   19  0.001  0.002  0.014  0.017
   20  0.001  0.001  0.030  0.032
   21  0.018  0.004  0.008  0.030
   22  0.010  0.004  0.010  0.024
   23  0.011  0.003  0.017  0.031
   24  0.000  0.001  0.015  0.016
   25  0.000  0.003  0.021  0.025
   26  0.001  0.000  0.009  0.011
   27  0.006  0.003  0.012  0.021
   28  0.000  0.001  0.014  0.016
   29  0.002  0.002  0.006  0.010
   30  0.020  0.004  0.007  0.030
   31  0.010  0.003  0.006  0.019
   32  0.009  0.003  0.007  0.018
   33  0.020  0.004  0.007  0.031
   34  0.002  0.002  0.006  0.009
   35  0.000  0.002  0.011  0.012
   36  0.000  0.009  0.006  0.016
   37  0.000  0.000  0.000  0.000
   38  0.000  0.000  0.000  0.000
   39  0.000  0.000  0.000  0.000
tot    0.224  0.096  0.392  0.712
 
band    20 # energy   -5.23940234 # occ.  2.00000000
 
ion      s      p      d    tot
    1  0.000  0.002  0.010  0.011
    2  0.019  0.004  0.005  0.028
    3  0.001  0.002  0.005  0.007
    4  0.013  0.003  0.005  0.020
    5  0.000  0.006  0.009  0.015
    6  0.011  0.003  0.005  0.019
    7  0.001  0.002  0.005  0.008
    8  0.018  0.004  0.005  0.027
    9  0.000  0.001  0.012  0.013
   10  0.012  0.004  0.009  0.024
   11  0.009  0.003  0.017  0.029
   12  0.001  0.001  0.015  0.017
   13  0.002  0.002  0.025  0.028
   14  0.019  0.004  0.006  0.029
   15  0.000  0.002  0.014  0.017
   16  0.005  0.002  0.013  0.020
   17  0.000  0.003  0.018  0.022
   18  0.001  0.000  0.008  0.009
   19  0.001  0.002  0.016  0.018
   20  0.019  0.005  0.007  0.030
   21  0.002  0.002  0.028  0.032
   22  0.001  0.001  0.014  0.016
   23  0.009  0.003  0.020  0.031
   24  0.011  0.004  0.010  0.024
   25  0.001  0.000  0.009  0.010
   26  0.000  0.003  0.021  0.024
   27  0.005  0.002  0.013  0.020
   28  0.000  0.001  0.014  0.016
   29  0.018  0.004  0.007  0.029
   30  0.001  0.002  0.006  0.009
   31  0.011  0.003  0.007  0.020
   32  0.012  0.003  0.006  0.021
   33  0.001  0.002  0.006  0.008
   34  0.019  0.004  0.007  0.030
   35  0.000  0.002  0.011  0.012
   36  0.000  0.009  0.006  0.016
   37  0.000  0.000  0.000  0.000
   38  0.000  0.000  0.000  0.000
   39  0.000  0.000  0.000  0.000