PROCAR new format
# of k-points:   10         # of bands:  252         # of ions:   37

 k-point     1 :    0.00000000 0.00000000 0.00000000     weight = 0.01562500

band     1 # energy   -9.46229173 # occ.  2.00000000
 
ion      s      p      d    tot
    1  0.004  0.000  0.000  0.004
    2  0.004  0.000  0.000  0.004
    3  0.004  0.000  0.000  0.004
    4  0.004  0.000  0.000  0.004
    5  0.004  0.000  0.000  0.004
    6  0.004  0.000  0.000  0.004
    7  0.004  0.000  0.000  0.004
    8  0.004  0.000  0.000  0.004
    9  0.004  0.000  0.000  0.004
   10  0.016  0.000  0.000  0.016
   11  0.016  0.000  0.000  0.016
   12  0.016  0.000  0.000  0.016
   13  0.016  0.000  0.000  0.016
   14  0.016  0.000  0.000  0.016
   15  0.015  0.000  0.000  0.015
   16  0.016  0.000  0.000  0.016
   17  0.015  0.000  0.000  0.015
   18  0.015  0.000  0.000  0.015
   19  0.019  0.000  0.000  0.019
   20  0.023  0.000  0.000  0.024
   21  0.023  0.000  0.000  0.024
   22  0.019  0.000  0.000  0.019
   23  0.023  0.000  0.000  0.024
   24  0.019  0.000  0.000  0.019
   25  0.019  0.000  0.000  0.019
   26  0.019  0.000  0.000  0.019
   27  0.019  0.000  0.000  0.019
   28  0.007  0.001  0.000  0.007
   29  0.009  0.001  0.000  0.010
   30  0.009  0.001  0.000  0.010
   31  0.009  0.001  0.000  0.010
   32  0.009  0.001  0.000  0.010
   33  0.009  0.001  0.000  0.010
   34  0.009  0.001  0.000  0.010
   35  0.007  0.001  0.000  0.007
   36  0.058  0.009  0.026  0.093
   37  0.102  0.004  0.000  0.106
tot    0.584  0.023  0.028  0.634
 
band     2 # energy   -8.99014482 # occ.  2.00000000
 
ion      s      p      d    tot
    1  0.005  0.000  0.000  0.005
    2  0.005  0.000  0.000  0.005
    3  0.005  0.000  0.000  0.005
    4  0.005  0.000  0.000  0.005
    5  0.005  0.000  0.000  0.005
    6  0.005  0.000  0.000  0.005
    7  0.005  0.000  0.000  0.005
    8  0.005  0.000  0.000  0.005
    9  0.005  0.000  0.000  0.005
   10  0.012  0.000  0.000  0.012
   11  0.011  0.000  0.000  0.011
   12  0.012  0.000  0.000  0.012
   13  0.011  0.000  0.000  0.011
   14  0.011  0.000  0.000  0.011
   15  0.012  0.000  0.000  0.012
   16  0.012  0.000  0.000  0.012
   17  0.012  0.000  0.000  0.012
   18  0.012  0.000  0.000  0.013
   19  0.005  0.000  0.000  0.005
   20  0.002  0.001  0.000  0.003
   21  0.002  0.001  0.000  0.003
   22  0.004  0.000  0.000  0.005
   23  0.002  0.001  0.000  0.003
   24  0.004  0.000  0.000  0.005
   25  0.005  0.000  0.000  0.005
   26  0.005  0.000  0.000  0.005
   27  0.004  0.000  0.000  0.005
   28  0.000  0.000  0.000  0.000
   29  0.000  0.001  0.001  0.002
   30  0.000  0.001  0.001  0.002
   31  0.000  0.001  0.001  0.002
   32  0.000  0.001  0.001  0.002
   33  0.000  0.001  0.001  0.002
   34  0.000  0.001  0.001  0.002
   35  0.000  0.000  0.000  0.000
   36  0.072  0.053  0.079  0.204
   37  0.299  0.009  0.000  0.308
tot    0.557  0.077  0.085  0.720
 
band     3 # energy   -7.91726477 # occ.  2.00000000
 
ion      s      p      d    tot
    1  0.017  0.001  0.001  0.019
    2  0.017  0.001  0.001  0.019
    3  0.017  0.001  0.001  0.019
    4  0.017  0.001  0.001  0.019
    5  0.018  0.001  0.001  0.019
    6  0.017  0.001  0.001  0.019
    7  0.017  0.001  0.001  0.019
    8  0.017  0.001  0.001  0.019
    9  0.017  0.001  0.001  0.018
   10  0.007  0.003  0.000  0.010
   11  0.008  0.002  0.000  0.010
   12  0.007  0.003  0.000  0.010
   13  0.008  0.002  0.000  0.010
   14  0.008  0.002  0.000  0.010
   15  0.006  0.003  0.001  0.010
   16  0.007  0.003  0.000  0.010
   17  0.006  0.003  0.001  0.010
   18  0.006  0.003  0.001  0.010
   19  0.015  0.002  0.001  0.017
   20  0.009  0.001  0.001  0.012
   21  0.009  0.001  0.001  0.012
   22  0.014  0.002  0.001  0.017
   23  0.009  0.001  0.001  0.012
   24  0.014  0.002  0.001  0.017
   25  0.015  0.002  0.001  0.017
   26  0.015  0.002  0.001  0.017
   27  0.014  0.002  0.001  0.017
   28  0.019  0.001  0.000  0.020
   29  0.013  0.001  0.000  0.015
   30  0.013  0.001  0.000  0.015
   31  0.013  0.001  0.000  0.015
   32  0.013  0.001  0.000  0.015
   33  0.013  0.001  0.000  0.015
   34  0.013  0.001  0.000  0.015
   35  0.019  0.001  0.000  0.020
   36  0.000  0.014  0.019  0.033
   37  0.042  0.001  0.000  0.043
tot    0.495  0.069  0.041  0.604
 
band     4 # energy   -6.41134469 # occ.  2.00000000
 
ion      s      p      d    tot
    1  0.014  0.000  0.004  0.018
    2  0.010  0.001  0.005  0.016
    3  0.010  0.001  0.005  0.016
    4  0.010  0.001  0.005  0.016
    5  0.001  0.001  0.006  0.008
    6  0.010  0.001  0.005  0.016
    7  0.010  0.001  0.005  0.016
    8  0.010  0.001  0.005  0.016
    9  0.026  0.000  0.002  0.028
   10  0.001  0.003  0.004  0.009
   11  0.021  0.006  0.001  0.028
   12  0.001  0.003  0.004  0.009
   13  0.021  0.006  0.001  0.028
   14  0.021  0.006  0.001  0.028
   15  0.001  0.002  0.006  0.009
   16  0.001  0.003  0.004  0.009
   17  0.001  0.002  0.006  0.009
   18  0.001  0.002  0.006  0.009
   19  0.000  0.002  0.007  0.009
   20  0.027  0.006  0.002  0.035
   21  0.027  0.006  0.002  0.035
   22  0.000  0.005  0.004  0.009
   23  0.027  0.006  0.002  0.035
   24  0.000  0.005  0.004  0.009
   25  0.000  0.002  0.007  0.009
   26  0.000  0.002  0.007  0.009
   27  0.000  0.005  0.004  0.009
   28  0.021  0.000  0.003  0.024
   29  0.011  0.001  0.006  0.018
   30  0.011  0.001  0.006  0.018
   31  0.011  0.001  0.006  0.018
   32  0.011  0.001  0.006  0.018
   33  0.011  0.001  0.006  0.018
   34  0.011  0.001  0.006  0.018
   35  0.027  0.000  0.003  0.031
   36  0.000  0.002  0.013  0.015
   37  0.001  0.000  0.000  0.001
tot    0.373  0.084  0.176  0.633
 
band     5 # energy   -6.36926974 # occ.  2.00000000
 
ion      s      p      d    tot
    1  0.000  0.002  0.005  0.007
    2  0.001  0.001  0.002  0.004
    3  0.009  0.002  0.002  0.014
    4  0.001  0.001  0.002  0.004
    5  0.000  0.003  0.004  0.007
    6  0.005  0.002  0.002  0.008
    7  0.009  0.002  0.002  0.014
    8  0.005  0.002  0.002  0.008
    9  0.000  0.000  0.002  0.002
   10  0.000  0.000  0.016  0.017
   11  0.029  0.004  0.006  0.038
   12  0.039  0.004  0.006  0.049
   13  0.028  0.004  0.006  0.038
   14  0.000  0.012  0.005  0.017
   15  0.001  0.003  0.004  0.009
   16  0.040  0.004  0.006  0.050
   17  0.001  0.003  0.004  0.009
   18  0.000  0.008  0.006  0.014
   19  0.013  0.003  0.005  0.021
   20  0.000  0.004  0.016  0.020
   21  0.049  0.004  0.008  0.061
   22  0.011  0.004  0.005  0.020
   23  0.051  0.004  0.008  0.062
   24  0.000  0.003  0.012  0.016
   25  0.000  0.014  0.001  0.015
   26  0.012  0.004  0.005  0.021
   27  0.012  0.004  0.005  0.020
   28  0.000  0.002  0.003  0.005
   29  0.000  0.001  0.002  0.003
   30  0.009  0.002  0.003  0.014
   31  0.000  0.001  0.002  0.003
   32  0.007  0.002  0.003  0.012
   33  0.009  0.002  0.003  0.015
   34  0.007  0.002  0.003  0.012
   35  0.000  0.000  0.003  0.004
   36  0.000  0.006  0.006  0.012
   37  0.000  0.000  0.000  0.000
tot    0.346  0.117  0.180  0.643
 
band     6 # energy   -6.36918361 # occ.  2.00000000
 
ion      s      p      d    tot
    1  0.000  0.002  0.005  0.007
    2  0.009  0.002  0.002  0.013
    3  0.001  0.001  0.002  0.003
    4  0.009  0.002  0.002  0.013
    5  0.000  0.003  0.004  0.007
    6  0.005  0.002  0.002  0.009
    7  0.001  0.001  0.002  0.003
    8  0.005  0.002  0.002  0.009
    9  0.000  0.000  0.002  0.002
   10  0.052  0.005  0.003  0.060
   11  0.009  0.009  0.005  0.024
   12  0.014  0.002  0.013  0.028
   13  0.010  0.009  0.005  0.024
   14  0.038  0.001  0.007  0.045
   15  0.000  0.006  0.006  0.012
   16  0.013  0.001  0.013  0.027
   17  0.000  0.006  0.006  0.012
   18  0.001  0.002  0.004  0.007
   19  0.004  0.011  0.003  0.017
   20  0.067  0.004  0.005  0.076
   21  0.017  0.004  0.013  0.034
   22  0.004  0.003  0.010  0.017
   23  0.016  0.004  0.013  0.033
   24  0.015  0.004  0.003  0.021
   25  0.017  0.000  0.007  0.024
   26  0.004  0.010  0.003  0.017
   27  0.004  0.003  0.010  0.017
   28  0.000  0.002  0.003  0.005
   29  0.011  0.003  0.003  0.017
   30  0.002  0.001  0.002  0.006
   31  0.011  0.003  0.003  0.017
   32  0.004  0.001  0.002  0.008
   33  0.002  0.001  0.002  0.005
   34  0.004  0.001  0.002  0.008
   35  0.000  0.000  0.003  0.004
   36  0.000  0.006  0.006  0.012
   37  0.000  0.000  0.000  0.000
tot    0.346  0.117  0.180  0.643
 
band     7 # energy   -6.34522187 # occ.  2.00000000
 
ion      s      p      d    tot
    1  0.020  0.003  0.001  0.024
    2  0.000  0.002  0.004  0.006
    3  0.000  0.002  0.004  0.006
    4  0.000  0.002  0.004  0.006
    5  0.001  0.000  0.000  0.002
    6  0.000  0.002  0.004  0.006
    7  0.000  0.002  0.004  0.006
    8  0.000  0.002  0.004  0.006
    9  0.009  0.001  0.000  0.011
   10  0.031  0.006  0.006  0.042
   11  0.005  0.000  0.012  0.017
   12  0.030  0.006  0.006  0.041
   13  0.005  0.000  0.012  0.017
   14  0.005  0.000  0.011  0.016
   15  0.011  0.008  0.003  0.023
   16  0.030  0.006  0.006  0.041
   17  0.011  0.008  0.003  0.023
   18  0.012  0.008  0.003  0.023
   19  0.023  0.009  0.002  0.035
   20  0.000  0.003  0.011  0.013
   21  0.000  0.002  0.011  0.013
   22  0.025  0.002  0.009  0.036
   23  0.000  0.002  0.011  0.013
   24  0.024  0.002  0.009  0.035
   25  0.022  0.009  0.002  0.034
   26  0.023  0.009  0.002  0.035
   27  0.025  0.002  0.009  0.036
   28  0.018  0.003  0.001  0.021
   29  0.000  0.002  0.004  0.006
   30  0.000  0.002  0.004  0.006
   31  0.000  0.002  0.004  0.006
   32  0.000  0.002  0.004  0.006
   33  0.000  0.002  0.004  0.006
   34  0.000  0.002  0.004  0.006
   35  0.013  0.002  0.001  0.017
   36  0.000  0.000  0.000  0.000
   37  0.000  0.000  0.000  0.000
tot    0.345  0.114  0.181  0.640
 
band     8 # energy   -6.34031738 # occ.  2.00000000
 
ion      s      p      d    tot
    1  0.000  0.001  0.003  0.004
    2  0.001  0.001  0.002  0.004
    3  0.009  0.002  0.003  0.014
    4  0.001  0.001  0.002  0.004
    5  0.000  0.000  0.004  0.004
    6  0.005  0.002  0.002  0.009
    7  0.009  0.002  0.002  0.014
    8  0.005  0.002  0.002  0.009
    9  0.000  0.003  0.006  0.009
   10  0.009  0.000  0.006  0.015
   11  0.006  0.002  0.011  0.019
   12  0.002  0.010  0.003  0.015
   13  0.006  0.002  0.011  0.019
   14  0.024  0.004  0.002  0.030
   15  0.015  0.005  0.010  0.030
   16  0.002  0.010  0.003  0.015
   17  0.016  0.005  0.010  0.031
   18  0.060  0.003  0.005  0.068
   19  0.011  0.001  0.014  0.026
   20  0.000  0.001  0.005  0.006
   21  0.000  0.008  0.005  0.013
   22  0.012  0.008  0.006  0.027
   23  0.000  0.008  0.005  0.013
   24  0.049  0.001  0.006  0.057
   25  0.047  0.005  0.002  0.054
   26  0.011  0.001  0.013  0.026
   27  0.012  0.008  0.006  0.026
   28  0.000  0.002  0.005  0.007
   29  0.000  0.001  0.002  0.003
   30  0.009  0.002  0.002  0.014
   31  0.000  0.001  0.002  0.003
   32  0.007  0.002  0.003  0.012
   33  0.009  0.002  0.002  0.014
   34  0.007  0.002  0.003  0.012
   35  0.000  0.003  0.005  0.008
   36  0.000  0.001  0.002  0.003
   37  0.000  0.000  0.000  0.000
tot    0.344  0.116  0.178  0.638
 
band     9 # energy   -6.34022525 # occ.  2.00000000
 
ion      s      p      d    tot
    1  0.000  0.001  0.003  0.004
    2  0.009  0.002  0.002  0.014
    3  0.001  0.001  0.002  0.004
    4  0.009  0.002  0.002  0.014
    5  0.000  0.000  0.004  0.004
    6  0.005  0.002  0.002  0.009
    7  0.001  0.001  0.002  0.004
    8  0.005  0.002  0.002  0.009
    9  0.000  0.003  0.006  0.009
   10  0.000  0.013  0.002  0.015
   11  0.018  0.004  0.005  0.026
   12  0.007  0.003  0.005  0.015
   13  0.017  0.003  0.005  0.026
   14  0.000  0.002  0.014  0.016
   15  0.046  0.004  0.007  0.056
   16  0.007  0.003  0.005  0.015
   17  0.045  0.004  0.007  0.056
   18  0.000  0.006  0.012  0.018
   19  0.035  0.004  0.006  0.045
   20  0.000  0.010  0.005  0.015
   21  0.000  0.004  0.005  0.009
   22  0.036  0.004  0.006  0.046
   23  0.000  0.004  0.005  0.009
   24  0.000  0.010  0.006  0.017
   25  0.000  0.000  0.017  0.017
   26  0.035  0.004  0.006  0.045
   27  0.036  0.004  0.006  0.046
   28  0.000  0.002  0.005  0.007
   29  0.011  0.003  0.003  0.016
   30  0.002  0.001  0.003  0.006
   31  0.011  0.003  0.003  0.016
   32  0.004  0.001  0.002  0.007
   33  0.002  0.001  0.003  0.006
   34  0.004  0.001  0.002  0.007
   35  0.000  0.003  0.005  0.008
   36  0.000  0.001  0.002  0.003
   37  0.000  0.000  0.000  0.000
tot    0.344  0.116  0.178  0.638
 
band    10 # energy   -6.23759351 # occ.  2.00000000
 
ion      s      p      d    tot
    1  0.001  0.000  0.003  0.005
    2  0.006  0.002  0.007  0.014
    3  0.006  0.002  0.007  0.014
    4  0.006  0.002  0.007  0.014
    5  0.044  0.002  0.001  0.047
    6  0.006  0.002  0.007  0.014
    7  0.006  0.002  0.007  0.014
    8  0.006  0.002  0.007  0.014
    9  0.000  0.002  0.007  0.009
   10  0.005  0.004  0.008  0.017
   11  0.010  0.007  0.006  0.023
   12  0.005  0.004  0.008  0.017
   13  0.010  0.007  0.006  0.023
   14  0.010  0.007  0.006  0.023
   15  0.029  0.002  0.009  0.040
   16  0.005  0.004  0.008  0.017
   17  0.029  0.002  0.009  0.040
   18  0.028  0.002  0.009  0.040
   19  0.007  0.003  0.006  0.016
   20  0.010  0.003  0.007  0.019
   21  0.010  0.003  0.007  0.019
   22  0.007  0.006  0.004  0.017
   23  0.010  0.003  0.007  0.019
   24  0.007  0.006  0.004  0.017
   25  0.007  0.003  0.006  0.016
   26  0.007  0.003  0.006  0.016
   27  0.007  0.006  0.004  0.017
   28  0.004  0.000  0.005  0.009
   29  0.007  0.000  0.004  0.011
   30  0.007  0.000  0.004  0.011
   31  0.007  0.000  0.004  0.011
   32  0.007  0.000  0.004  0.011
   33  0.007  0.000  0.004  0.011
   34  0.007  0.000  0.004  0.011
   35  0.002  0.000  0.003  0.006
   36  0.009  0.007  0.007  0.022
   37  0.009  0.000  0.000  0.009
tot    0.348  0.099  0.206  0.653
 
band    11 # energy   -5.60552904 # occ.  2.00000000
 
ion      s      p      d    tot
    1  0.006  0.000  0.008  0.014
    2  0.004  0.001  0.009  0.014
    3  0.004  0.001  0.009  0.014
    4  0.004  0.001  0.009  0.014
    5  0.000  0.002  0.009  0.011
    6  0.004  0.001  0.009  0.014
    7  0.004  0.001  0.009  0.014
    8  0.004  0.001  0.009  0.014
    9  0.017  0.000  0.006  0.023
   10  0.006  0.000  0.024  0.031
   11  0.012  0.001  0.020  0.033
   12  0.006  0.000  0.024  0.031
   13  0.012  0.001  0.020  0.033
   14  0.012  0.001  0.020  0.033
   15  0.001  0.000  0.020  0.022
   16  0.006  0.000  0.024  0.031
   17  0.001  0.000  0.020  0.022
   18  0.001  0.000  0.020  0.022
   19  0.003  0.000  0.019  0.022
   20  0.012  0.001  0.026  0.039
   21  0.012  0.001  0.026  0.039
   22  0.002  0.000  0.022  0.024
   23  0.012  0.001  0.026  0.039
   24  0.002  0.000  0.022  0.024
   25  0.003  0.000  0.019  0.022
   26  0.003  0.000  0.019  0.022
   27  0.002  0.000  0.022  0.024
   28  0.004  0.000  0.006  0.011
   29  0.004  0.001  0.008  0.013
   30  0.004  0.001  0.008  0.013
   31  0.004  0.001  0.008  0.013
   32  0.004  0.001  0.008  0.013
   33  0.004  0.001  0.008  0.013
   34  0.004  0.001  0.008  0.013
   35  0.015  0.000  0.006  0.021
   36  0.000  0.003  0.010  0.013
   37  0.000  0.000  0.000  0.000
tot    0.202  0.022  0.548  0.773
 
band    12 # energy   -5.59354526 # occ.  2.00000000
 
ion      s      p      d    tot
    1  0.000  0.001  0.010  0.011
    2  0.009  0.003  0.005  0.016
    3  0.021  0.004  0.005  0.030
    4  0.008  0.002  0.005  0.016
    5  0.000  0.006  0.008  0.014
    6  0.003  0.002  0.005  0.009
    7  0.021  0.004  0.005  0.030
    8  0.003  0.002  0.005  0.010
    9  0.000  0.002  0.012  0.014
   10  0.000  0.001  0.015  0.017
   11  0.018  0.004  0.010  0.032
   12  0.006  0.002  0.011  0.019
   13  0.017  0.004  0.010  0.032
   14  0.000  0.001  0.025  0.026
   15  0.003  0.001  0.010  0.014
   16  0.006  0.002  0.011  0.019
   17  0.003  0.001  0.010  0.015
   18  0.000  0.004  0.021  0.025
   19  0.000  0.001  0.011  0.011
   20  0.000  0.002  0.035  0.037
   21  0.012  0.003  0.013  0.027
   22  0.011  0.004  0.011  0.026
   23  0.012  0.003  0.012  0.027
   24  0.000  0.000  0.016  0.016
   25  0.000  0.003  0.018  0.021
   26  0.000  0.001  0.011  0.012
   27  0.011  0.004  0.011  0.026
   28  0.000  0.001  0.013  0.014
   29  0.011  0.003  0.006  0.019
   30  0.021  0.004  0.006  0.030
   31  0.010  0.003  0.006  0.019
   32  0.002  0.002  0.005  0.009
   33  0.020  0.004  0.006  0.030
   34  0.002  0.002  0.005  0.009
   35  0.000  0.003  0.009  0.011
   36  0.000  0.010  0.006  0.016
   37  0.000  0.000  0.000  0.000
tot    0.227  0.097  0.384  0.708
 
band    13 # energy   -5.59346682 # occ.  2.00000000
 
ion      s      p      d    tot
    1  0.000  0.001  0.010  0.011
    2  0.013  0.003  0.005  0.021
    3  0.000  0.002  0.005  0.007
    4  0.013  0.003  0.005  0.021
    5  0.000  0.006  0.008  0.014
    6  0.019  0.004  0.005  0.028
    7  0.001  0.002  0.005  0.007
    8  0.018  0.004  0.005  0.027
    9  0.000  0.002  0.012  0.014
   10  0.008  0.003  0.009  0.020
   11  0.006  0.002  0.020  0.028
   12  0.002  0.002  0.014  0.018
   13  0.006  0.002  0.020  0.028
   14  0.023  0.005  0.005  0.034
   15  0.001  0.003  0.017  0.021
   16  0.002  0.002  0.014  0.018
   17  0.001  0.003  0.017  0.021
   18  0.004  0.000  0.007  0.011
   19  0.000  0.002  0.016  0.018
   20  0.016  0.004  0.005  0.024
   21  0.004  0.002  0.027  0.034
   22  0.004  0.001  0.014  0.019
   23  0.004  0.002  0.028  0.034
   24  0.014  0.005  0.009  0.029
   25  0.000  0.000  0.008  0.008
   26  0.000  0.002  0.015  0.018
   27  0.004  0.001  0.014  0.019
   28  0.000  0.001  0.013  0.014
   29  0.011  0.003  0.006  0.019
   30  0.001  0.002  0.006  0.008
   31  0.012  0.003  0.006  0.020
   32  0.020  0.004  0.006  0.030
   33  0.001  0.002  0.006  0.009
   34  0.020  0.004  0.006  0.030
   35  0.000  0.003  0.009  0.011
   36  0.000  0.010  0.006  0.016
   37  0.000  0.000  0.000  0.000
tot    0.227  0.097  0.384  0.708
 
band    14 # energy   -5.58284739 # occ.  2.00000000
 
ion      s      p      d    tot
    1  0.036  0.003  0.000  0.039
    2  0.000  0.003  0.010  0.013
    3  0.000  0.003  0.010  0.013
    4  0.000  0.003  0.010  0.013
    5  0.000  0.000  0.001  0.001
    6  0.000  0.003  0.010  0.013
    7  0.000  0.003  0.010  0.013
    8  0.000  0.003  0.010  0.013
    9  0.027  0.004  0.001  0.032
   10  0.008  0.004  0.011  0.022
   11  0.002  0.000  0.016  0.017
   12  0.008  0.003  0.011  0.022
   13  0.002  0.000  0.016  0.017
   14  0.002  0.000  0.015  0.017
   15  0.007  0.003  0.017  0.028
   16  0.008  0.003  0.011  0.022
   17  0.007  0.003  0.017  0.028
   18  0.008  0.003  0.017  0.028
   19  0.004  0.004  0.018  0.026
   20  0.000  0.000  0.016  0.017
   21  0.000  0.000  0.016  0.016
   22  0.012  0.003  0.010  0.025
   23  0.000  0.000  0.016  0.016
   24  0.012  0.003  0.010  0.025
   25  0.004  0.003  0.018  0.026
   26  0.004  0.004  0.018  0.026
   27  0.012  0.003  0.010  0.025
   28  0.038  0.003  0.000  0.041
   29  0.000  0.003  0.011  0.014
   30  0.000  0.003  0.011  0.014
   31  0.000  0.003  0.011  0.014
   32  0.000  0.003  0.011  0.014
   33  0.000  0.003  0.011  0.014
   34  0.000  0.003  0.011  0.014
   35  0.025  0.003  0.001  0.030
   36  0.000  0.000  0.000  0.000
   37  0.000  0.000  0.000  0.000
tot    0.226  0.090  0.390  0.706
 
band    15 # energy   -5.58042438 # occ.  2.00000000
 
ion      s      p      d    tot
    1  0.000  0.005  0.010  0.016
    2  0.009  0.003  0.005  0.017
    3  0.021  0.004  0.005  0.030
    4  0.009  0.003  0.005  0.016
    5  0.000  0.000  0.012  0.012
    6  0.003  0.002  0.005  0.010
    7  0.021  0.004  0.005  0.030
    8  0.003  0.002  0.005  0.010
    9  0.000  0.004  0.009  0.012
   10  0.015  0.003  0.005  0.023
   11  0.000  0.003  0.014  0.017
   12  0.004  0.003  0.021  0.028
   13  0.000  0.002  0.014  0.017
   14  0.000  0.000  0.009  0.010
   15  0.005  0.001  0.016  0.022
   16  0.004  0.003  0.021  0.028
   17  0.005  0.001  0.016  0.023
   18  0.019  0.005  0.008  0.031
   19  0.005  0.002  0.019  0.026
   20  0.004  0.002  0.011  0.018
   21  0.001  0.002  0.014  0.017
   22  0.002  0.003  0.020  0.024
   23  0.001  0.002  0.014  0.017
   24  0.006  0.001  0.005  0.013
   25  0.021  0.006  0.006  0.032
   26  0.005  0.002  0.019  0.026
   27  0.001  0.003  0.020  0.024
   28  0.000  0.006  0.008  0.014
   29  0.010  0.003  0.006  0.019
   30  0.021  0.004  0.005  0.030
   31  0.010  0.003  0.006  0.019
   32  0.002  0.002  0.006  0.010
   33  0.021  0.004  0.005  0.030
   34  0.002  0.002  0.006  0.010
   35  0.000  0.003  0.012  0.015
   36  0.000  0.000  0.009  0.009
   37  0.000  0.000  0.000  0.000
tot    0.227  0.094  0.381  0.702
 
band    16 # energy   -5.58033255 # occ.  2.00000000
 
ion      s      p      d    tot
    1  0.000  0.005  0.010  0.016
    2  0.013  0.003  0.005  0.021
    3  0.001  0.002  0.005  0.007
    4  0.013  0.003  0.005  0.021
    5  0.000  0.000  0.012  0.012
    6  0.019  0.004  0.005  0.028
    7  0.001  0.002  0.005  0.007
    8  0.019  0.004  0.005  0.028
    9  0.000  0.004  0.009  0.012
   10  0.000  0.003  0.027  0.030
   11  0.000  0.001  0.011  0.012
   12  0.011  0.003  0.011  0.025
   13  0.000  0.001  0.011  0.012
   14  0.000  0.003  0.016  0.019
   15  0.014  0.004  0.010  0.028
   16  0.011  0.003  0.010  0.025
   17  0.014  0.004  0.010  0.028
   18  0.000  0.000  0.019  0.019
   19  0.015  0.004  0.010  0.030
   20  0.000  0.002  0.015  0.016
   21  0.003  0.002  0.012  0.018
   22  0.005  0.002  0.010  0.017
   23  0.003  0.002  0.012  0.018
   24  0.000  0.003  0.025  0.028
   25  0.000  0.000  0.024  0.024
   26  0.015  0.004  0.010  0.030
   27  0.005  0.002  0.010  0.016
   28  0.000  0.006  0.008  0.014
   29  0.012  0.003  0.006  0.020
   30  0.001  0.002  0.006  0.009
   31  0.012  0.003  0.006  0.020
   32  0.020  0.004  0.006  0.029
   33  0.001  0.002  0.006  0.009
   34  0.020  0.004  0.006  0.029
   35  0.000  0.003  0.012  0.015
   36  0.000  0.000  0.009  0.009
   37  0.000  0.000  0.000  0.000
tot    0.227  0.094  0.381  0.702
 
band    17 # energy   -5.41448632 # occ.  2.00000000
 
ion      s      p      d    tot
    1  0.012  0.002  0.001  0.014
    2  0.000  0.003  0.011  0.014
    3  0.000  0.003  0.011  0.014
    4  0.000  0.003  0.011  0.014
    5  0.043  0.003  0.000  0.046
    6  0.000  0.003  0.011  0.014
    7  0.000  0.003  0.011  0.014
    8  0.000  0.003  0.011  0.014
    9  0.004  0.001  0.001  0.006
   10  0.002  0.001  0.026  0.028
   11  0.003  0.004  0.021  0.027
   12  0.002  0.001  0.026  0.028
   13  0.003  0.004  0.021  0.027
   14  0.003  0.004  0.021  0.027
   15  0.004  0.001  0.010  0.015
   16  0.002  0.001  0.026  0.028
   17  0.004  0.001  0.010  0.015
   18  0.004  0.001  0.010  0.015
   19  0.012  0.001  0.023  0.036
   20  0.008  0.003  0.009  0.021
   21  0.008  0.003  0.009  0.021
   22  0.003  0.001  0.019  0.023
   23  0.008  0.003  0.009  0.021
   24  0.003  0.001  0.019  0.023
   25  0.012  0.001  0.023  0.036
   26  0.012  0.001  0.023  0.036
   27  0.003  0.001  0.019  0.023
   28  0.000  0.002  0.008  0.010
   29  0.002  0.001  0.011  0.015
   30  0.002  0.001  0.011  0.015
   31  0.002  0.001  0.011  0.015
   32  0.002  0.001  0.011  0.015
   33  0.002  0.001  0.011  0.015
   34  0.002  0.001  0.011  0.015
   35  0.001  0.001  0.004  0.006
   36  0.023  0.011  0.004  0.038
   37  0.007  0.000  0.000  0.007
tot    0.199  0.079  0.475  0.753
 
band    18 # energy   -4.90579606 # occ.  2.00000000
 
ion      s      p      d    tot
    1  0.000  0.000  0.036  0.036
    2  0.003  0.001  0.009  0.013
    3  0.006  0.001  0.010  0.016
    4  0.002  0.001  0.009  0.012
    5  0.000  0.001  0.009  0.010
    6  0.016  0.001  0.010  0.027
    7  0.005  0.001  0.010  0.015
    8  0.016  0.001  0.010  0.026
    9  0.000  0.003  0.009  0.012
   10  0.000  0.000  0.007  0.008
   11  0.000  0.002  0.011  0.013
   12  0.000  0.000  0.045  0.045
   13  0.000  0.001  0.010  0.012
   14  0.001  0.006  0.020  0.027
   15  0.000  0.001  0.030  0.031
   16  0.000  0.000  0.042  0.042
   17  0.000  0.001  0.032  0.033
   18  0.001  0.005  0.009  0.015
   19  0.000  0.002  0.013  0.015
   20  0.000  0.000  0.008  0.009
   21  0.000  0.000  0.058  0.058
   22  0.000  0.001  0.024  0.026
   23  0.000  0.000  0.054  0.054
   24  0.002  0.005  0.014  0.021
   25  0.001  0.005  0.017  0.023
   26  0.000  0.001  0.013  0.015
   27  0.000  0.001  0.023  0.025
   28  0.000  0.001  0.012  0.013
   29  0.002  0.001  0.011  0.013
   30  0.015  0.001  0.010  0.026
   31  0.002  0.001  0.010  0.014
   32  0.006  0.001  0.013  0.020
   33  0.014  0.001  0.010  0.025
   34  0.005  0.001  0.012  0.019
   35  0.000  0.002  0.006  0.009
   36  0.000  0.001  0.021  0.021
   37  0.000  0.000  0.000  0.000
tot    0.098  0.052  0.650  0.800
 
band    19 # energy   -4.90578500 # occ.  2.00000000
 
ion      s      p      d    tot
    1  0.000  0.000  0.036  0.036
    2  0.012  0.001  0.010  0.023
    3  0.011  0.001  0.009  0.021
    4  0.013  0.001  0.010  0.024
    5  0.000  0.002  0.008  0.009
    6  0.000  0.001  0.009  0.010
    7  0.012  0.001  0.009  0.022
    8  0.000  0.001  0.009  0.010
    9  0.000  0.003  0.011  0.013
   10  0.000  0.000  0.054  0.054
   11  0.000  0.005  0.017  0.022
   12  0.000  0.000  0.018  0.018
   13  0.000  0.005  0.018  0.023
   14  0.000  0.000  0.007  0.007
   15  0.001  0.003  0.017  0.021
   16  0.000  0.000  0.021  0.021
   17  0.001  0.004  0.015  0.020
   18  0.000  0.000  0.040  0.040
   19  0.001  0.003  0.016  0.020
   20  0.000  0.000  0.073  0.073
   21  0.000  0.000  0.022  0.022
   22  0.001  0.004  0.017  0.022
   23  0.000  0.000  0.026  0.026
   24  0.000  0.000  0.025  0.025
   25  0.000  0.000  0.013  0.013
   26  0.001  0.004  0.016  0.020
   27  0.001  0.004  0.018  0.023
   28  0.000  0.001  0.014  0.015
   29  0.014  0.001  0.011  0.026
   30  0.000  0.001  0.012  0.013
   31  0.013  0.001  0.012  0.026
   32  0.008  0.001  0.010  0.018
   33  0.001  0.001  0.012  0.014
   34  0.009  0.001  0.010  0.019
   35  0.000  0.002  0.005  0.007
   36  0.000  0.001  0.020  0.021
   37  0.000  0.000  0.000  0.000
tot    0.098  0.052  0.650  0.801
 
band    20 # energy   -4.90463231 # occ.  2.00000000
 
ion      s      p      d    tot
    1  0.000  0.003  0.001  0.003
    2  0.003  0.001  0.008  0.012
    3  0.005  0.001  0.009  0.015
    4  0.003  0.001  0.008  0.012
    5  0.000  0.001  0.025  0.027
    6  0.015  0.001  0.009  0.025
    7  0.005  0.001  0.009  0.015
    8  0.015  0.001  0.009  0.025
    9  0.000  0.000  0.025  0.025
   10  0.000  0.000  0.011  0.012
   11  0.000  0.001  0.016  0.017
   12  0.001  0.005  0.016  0.022
   13  0.000  0.001  0.016  0.018
   14  0.000  0.000  0.056  0.056
   15  0.000  0.002  0.017  0.019
   16  0.001  0.005  0.016  0.022
   17  0.000  0.002  0.017  0.019
   18  0.000  0.000  0.025  0.025
   19  0.001  0.002  0.017  0.019
   20  0.000  0.000  0.011  0.011
   21  0.001  0.005  0.022  0.028
   22  0.000  0.001  0.018  0.019
   23  0.001  0.005  0.022  0.028
   24  0.000  0.000  0.037  0.037
   25  0.000  0.000  0.052  0.052
   26  0.001  0.002  0.017  0.019
   27  0.000  0.001  0.018  0.019
   28  0.000  0.002  0.024  0.026
   29  0.001  0.001  0.010  0.012
   30  0.016  0.001  0.012  0.029
   31  0.001  0.001  0.010  0.012
   32  0.008  0.001  0.012  0.021
   33  0.016  0.001  0.012  0.029
   34  0.008  0.001  0.012  0.021
   35  0.000  0.000  0.035  0.035
   36  0.000  0.004  0.002  0.006
   37  0.000  0.002  0.000  0.002
tot    0.102  0.055  0.641  0.797
 
band    21 # energy   -4.90462337 # occ.  2.00000000
 
ion      s      p      d    tot
    1  0.000  0.002  0.001  0.003
    2  0.013  0.001  0.009  0.023
    3  0.009  0.001  0.009  0.019
    4  0.013  0.001  0.009  0.023
    5  0.000  0.002  0.024  0.026
    6  0.000  0.001  0.009  0.010
    7  0.009  0.001  0.009  0.019
    8  0.000  0.001  0.009  0.010
    9  0.000  0.000  0.026  0.026
   10  0.001  0.007  0.019  0.027
   11  0.000  0.000  0.043  0.043
   12  0.000  0.002  0.012  0.014
   13  0.000  0.000  0.042  0.043
   14  0.001  0.002  0.003  0.005
   15  0.000  0.001  0.024  0.025
   16  0.000  0.002  0.012  0.014
   17  0.000  0.001  0.024  0.025
   18  0.000  0.002  0.014  0.016
   19  0.000  0.000  0.041  0.042
   20  0.002  0.006  0.025  0.034
   21  0.000  0.002  0.015  0.017
   22  0.000  0.000  0.029  0.030
   23  0.000  0.002  0.015  0.017
   24  0.000  0.002  0.012  0.014
   25  0.001  0.002  0.004  0.007
   26  0.000  0.000  0.041  0.042
   27  0.000  0.000  0.029  0.030
   28  0.000  0.002  0.026  0.028
   29  0.015  0.001  0.013  0.029
   30  0.001  0.001  0.011  0.013
   31  0.015  0.001  0.013  0.029
   32  0.010  0.001  0.011  0.021
   33  0.001  0.001  0.011  0.013
   34  0.010  0.001  0.011  0.021
   35  0.000  0.000  0.034  0.034
   36  0.000  0.004  0.001  0.006