PROCAR new format
# of k-points:   10         # of bands:  252         # of ions:   37

 k-point     1 :    0.00000000 0.00000000 0.00000000     weight = 0.01562500

band     1 # energy   -8.19648196 # occ.  2.00000000
 
ion      s      p      d    tot
    1  0.006  0.001  0.000  0.007
    2  0.006  0.001  0.000  0.007
    3  0.006  0.001  0.000  0.007
    4  0.006  0.001  0.000  0.007
    5  0.006  0.001  0.000  0.007
    6  0.006  0.001  0.000  0.007
    7  0.006  0.001  0.000  0.007
    8  0.006  0.001  0.000  0.007
    9  0.006  0.000  0.000  0.007
   10  0.025  0.000  0.000  0.026
   11  0.027  0.000  0.000  0.027
   12  0.025  0.000  0.000  0.026
   13  0.027  0.000  0.000  0.027
   14  0.027  0.000  0.000  0.027
   15  0.025  0.000  0.000  0.025
   16  0.025  0.000  0.000  0.026
   17  0.025  0.000  0.000  0.025
   18  0.025  0.000  0.000  0.025
   19  0.022  0.000  0.000  0.023
   20  0.028  0.000  0.000  0.029
   21  0.028  0.000  0.000  0.029
   22  0.024  0.000  0.000  0.024
   23  0.028  0.000  0.000  0.029
   24  0.024  0.000  0.000  0.024
   25  0.022  0.000  0.000  0.023
   26  0.022  0.000  0.000  0.023
   27  0.024  0.000  0.000  0.024
   28  0.005  0.000  0.000  0.005
   29  0.005  0.000  0.000  0.006
   30  0.005  0.000  0.000  0.006
   31  0.005  0.000  0.000  0.006
   32  0.005  0.000  0.000  0.006
   33  0.005  0.000  0.000  0.006
   34  0.005  0.000  0.000  0.006
   35  0.005  0.000  0.000  0.005
   36  0.011  0.001  0.000  0.012
   37  0.001  0.000  0.000  0.001
tot    0.567  0.011  0.004  0.582
 
band     2 # energy   -7.06006428 # occ.  2.00000000
 
ion      s      p      d    tot
    1  0.016  0.000  0.001  0.017
    2  0.016  0.000  0.001  0.018
    3  0.016  0.000  0.001  0.018
    4  0.016  0.000  0.001  0.018
    5  0.016  0.000  0.001  0.017
    6  0.016  0.000  0.001  0.018
    7  0.016  0.000  0.001  0.018
    8  0.016  0.000  0.001  0.018
    9  0.017  0.001  0.001  0.018
   10  0.011  0.001  0.003  0.015
   11  0.010  0.001  0.002  0.014
   12  0.011  0.001  0.003  0.015
   13  0.010  0.001  0.002  0.014
   14  0.010  0.001  0.002  0.014
   15  0.012  0.001  0.002  0.016
   16  0.011  0.001  0.003  0.015
   17  0.012  0.001  0.002  0.016
   18  0.012  0.001  0.002  0.016
   19  0.010  0.001  0.003  0.014
   20  0.016  0.002  0.003  0.020
   21  0.016  0.002  0.003  0.020
   22  0.010  0.001  0.003  0.014
   23  0.016  0.002  0.003  0.020
   24  0.010  0.001  0.003  0.014
   25  0.010  0.001  0.003  0.014
   26  0.010  0.001  0.003  0.014
   27  0.010  0.001  0.003  0.014
   28  0.012  0.000  0.001  0.014
   29  0.015  0.001  0.001  0.017
   30  0.015  0.001  0.001  0.017
   31  0.015  0.001  0.001  0.017
   32  0.015  0.001  0.001  0.017
   33  0.015  0.001  0.001  0.017
   34  0.015  0.001  0.001  0.017
   35  0.012  0.000  0.001  0.013
   36  0.030  0.000  0.000  0.031
   37  0.002  0.000  0.000  0.002
tot    0.504  0.032  0.063  0.599
 
band     3 # energy   -6.12582360 # occ.  2.00000000
 
ion      s      p      d    tot
    1  0.014  0.001  0.000  0.014
    2  0.003  0.000  0.005  0.008
    3  0.003  0.000  0.005  0.008
    4  0.003  0.000  0.005  0.008
    5  0.006  0.000  0.002  0.008
    6  0.003  0.000  0.005  0.008
    7  0.003  0.000  0.005  0.008
    8  0.003  0.000  0.005  0.008
    9  0.001  0.001  0.004  0.007
   10  0.003  0.000  0.020  0.023
   11  0.002  0.002  0.008  0.012
   12  0.003  0.000  0.020  0.023
   13  0.002  0.002  0.008  0.012
   14  0.002  0.002  0.008  0.012
   15  0.022  0.002  0.003  0.028
   16  0.003  0.000  0.020  0.023
   17  0.022  0.002  0.003  0.028
   18  0.022  0.002  0.003  0.028
   19  0.006  0.001  0.019  0.025
   20  0.010  0.001  0.029  0.041
   21  0.010  0.001  0.029  0.040
   22  0.028  0.003  0.002  0.033
   23  0.010  0.001  0.029  0.040
   24  0.028  0.003  0.002  0.033
   25  0.006  0.001  0.019  0.025
   26  0.006  0.001  0.019  0.025
   27  0.028  0.003  0.002  0.033
   28  0.000  0.000  0.006  0.006
   29  0.004  0.001  0.008  0.013
   30  0.004  0.001  0.008  0.013
   31  0.004  0.001  0.008  0.013
   32  0.004  0.001  0.008  0.013
   33  0.004  0.001  0.008  0.013
   34  0.004  0.001  0.008  0.013
   35  0.001  0.001  0.004  0.006
   36  0.052  0.001  0.000  0.053
   37  0.005  0.000  0.000  0.005
tot    0.331  0.037  0.340  0.707
 
band     4 # energy   -6.06346646 # occ.  2.00000000
 
ion      s      p      d    tot
    1  0.013  0.000  0.021  0.034
    2  0.019  0.000  0.018  0.036
    3  0.019  0.000  0.018  0.036
    4  0.019  0.000  0.018  0.036
    5  0.013  0.000  0.017  0.030
    6  0.019  0.000  0.018  0.036
    7  0.019  0.000  0.018  0.036
    8  0.019  0.000  0.018  0.036
    9  0.033  0.000  0.013  0.046
   10  0.011  0.001  0.017  0.029
   11  0.014  0.001  0.015  0.030
   12  0.011  0.001  0.017  0.029
   13  0.014  0.001  0.015  0.030
   14  0.014  0.001  0.015  0.030
   15  0.000  0.001  0.021  0.022
   16  0.011  0.001  0.017  0.029
   17  0.000  0.001  0.021  0.022
   18  0.000  0.001  0.021  0.022
   19  0.000  0.001  0.003  0.004
   20  0.005  0.001  0.003  0.009
   21  0.005  0.001  0.003  0.009
   22  0.001  0.001  0.001  0.003
   23  0.005  0.001  0.003  0.009
   24  0.001  0.001  0.001  0.003
   25  0.000  0.001  0.003  0.004
   26  0.000  0.001  0.003  0.004
   27  0.001  0.001  0.001  0.003
   28  0.007  0.000  0.001  0.009
   29  0.006  0.000  0.003  0.009
   30  0.006  0.000  0.003  0.009
   31  0.006  0.000  0.003  0.009
   32  0.006  0.000  0.003  0.009
   33  0.006  0.000  0.003  0.009
   34  0.006  0.000  0.003  0.009
   35  0.009  0.000  0.002  0.011
   36  0.001  0.001  0.003  0.004
   37  0.000  0.000  0.000  0.000
tot    0.316  0.019  0.363  0.698
 
band     5 # energy   -6.04933606 # occ.  2.00000000
 
ion      s      p      d    tot
    1  0.000  0.000  0.008  0.009
    2  0.004  0.001  0.004  0.008
    3  0.006  0.001  0.003  0.010
    4  0.004  0.001  0.004  0.008
    5  0.000  0.001  0.007  0.008
    6  0.000  0.000  0.003  0.003
    7  0.006  0.001  0.003  0.010
    8  0.000  0.000  0.003  0.003
    9  0.000  0.000  0.001  0.001
   10  0.000  0.000  0.035  0.035
   11  0.039  0.002  0.015  0.055
   12  0.027  0.002  0.013  0.041
   13  0.039  0.001  0.015  0.056
   14  0.000  0.004  0.026  0.030
   15  0.001  0.001  0.010  0.013
   16  0.026  0.002  0.013  0.041
   17  0.001  0.001  0.010  0.013
   18  0.000  0.003  0.004  0.008
   19  0.006  0.001  0.010  0.018
   20  0.000  0.002  0.033  0.035
   21  0.048  0.001  0.017  0.066
   22  0.013  0.001  0.010  0.024
   23  0.047  0.001  0.017  0.066
   24  0.000  0.000  0.027  0.027
   25  0.000  0.004  0.003  0.007
   26  0.007  0.001  0.010  0.018
   27  0.013  0.001  0.010  0.024
   28  0.000  0.000  0.001  0.001
   29  0.000  0.000  0.002  0.002
   30  0.005  0.001  0.003  0.009
   31  0.000  0.000  0.002  0.002
   32  0.005  0.001  0.004  0.009
   33  0.005  0.001  0.003  0.009
   34  0.005  0.001  0.004  0.009
   35  0.000  0.000  0.004  0.004
   36  0.000  0.003  0.008  0.010
   37  0.000  0.000  0.000  0.000
tot    0.307  0.043  0.344  0.694
 
band     6 # energy   -6.04931169 # occ.  2.00000000
 
ion      s      p      d    tot
    1  0.000  0.000  0.008  0.009
    2  0.003  0.001  0.003  0.006
    3  0.001  0.000  0.003  0.004
    4  0.003  0.001  0.003  0.006
    5  0.000  0.001  0.007  0.008
    6  0.007  0.001  0.003  0.011
    7  0.001  0.000  0.003  0.004
    8  0.007  0.001  0.003  0.011
    9  0.000  0.000  0.001  0.001
   10  0.035  0.002  0.005  0.043
   11  0.013  0.003  0.022  0.038
   12  0.009  0.001  0.028  0.037
   13  0.013  0.003  0.022  0.038
   14  0.052  0.001  0.011  0.064
   15  0.000  0.003  0.006  0.009
   16  0.009  0.001  0.027  0.037
   17  0.000  0.003  0.006  0.009
   18  0.002  0.000  0.012  0.014
   19  0.002  0.003  0.006  0.011
   20  0.063  0.001  0.011  0.076
   21  0.016  0.002  0.028  0.045
   22  0.004  0.001  0.021  0.026
   23  0.016  0.002  0.028  0.046
   24  0.017  0.002  0.005  0.023
   25  0.009  0.000  0.013  0.022
   26  0.002  0.003  0.005  0.011
   27  0.004  0.001  0.021  0.026
   28  0.000  0.000  0.001  0.001
   29  0.006  0.001  0.004  0.011
   30  0.002  0.000  0.003  0.005
   31  0.006  0.001  0.004  0.011
   32  0.002  0.000  0.002  0.004
   33  0.002  0.001  0.003  0.005
   34  0.002  0.000  0.002  0.004
   35  0.000  0.000  0.004  0.004
   36  0.000  0.003  0.008  0.010
   37  0.000  0.000  0.000  0.000
tot    0.307  0.043  0.344  0.694
 
band     7 # energy   -6.00503078 # occ.  2.00000000
 
ion      s      p      d    tot
    1  0.009  0.000  0.001  0.010
    2  0.001  0.000  0.003  0.004
    3  0.001  0.000  0.003  0.004
    4  0.001  0.000  0.003  0.004
    5  0.000  0.000  0.004  0.004
    6  0.001  0.000  0.003  0.004
    7  0.001  0.000  0.003  0.004
    8  0.001  0.000  0.003  0.004
    9  0.000  0.000  0.001  0.002
   10  0.002  0.001  0.016  0.019
   11  0.006  0.000  0.012  0.019
   12  0.002  0.001  0.016  0.019
   13  0.006  0.000  0.012  0.019
   14  0.006  0.000  0.012  0.019
   15  0.007  0.001  0.009  0.017
   16  0.002  0.001  0.016  0.019
   17  0.007  0.001  0.009  0.017
   18  0.007  0.001  0.009  0.017
   19  0.019  0.001  0.015  0.035
   20  0.008  0.000  0.035  0.043
   21  0.008  0.000  0.035  0.043
   22  0.000  0.000  0.026  0.027
   23  0.008  0.000  0.035  0.043
   24  0.000  0.000  0.026  0.027
   25  0.019  0.001  0.015  0.035
   26  0.019  0.001  0.015  0.035
   27  0.000  0.000  0.026  0.027
   28  0.003  0.000  0.011  0.014
   29  0.012  0.000  0.012  0.025
   30  0.012  0.000  0.012  0.025
   31  0.012  0.000  0.012  0.025
   32  0.012  0.000  0.012  0.025
   33  0.012  0.000  0.012  0.025
   34  0.012  0.000  0.012  0.025
   35  0.023  0.000  0.006  0.030
   36  0.008  0.001  0.014  0.023
   37  0.000  0.000  0.000  0.000
tot    0.250  0.014  0.474  0.738
 
band     8 # energy   -5.98385581 # occ.  2.00000000
 
ion      s      p      d    tot
    1  0.004  0.001  0.002  0.007
    2  0.000  0.001  0.006  0.007
    3  0.000  0.001  0.006  0.007
    4  0.000  0.001  0.006  0.007
    5  0.019  0.002  0.000  0.021
    6  0.000  0.001  0.006  0.007
    7  0.000  0.001  0.006  0.007
    8  0.000  0.001  0.006  0.007
    9  0.000  0.000  0.003  0.004
   10  0.022  0.003  0.002  0.027
   11  0.017  0.001  0.023  0.041
   12  0.022  0.003  0.002  0.027
   13  0.017  0.001  0.023  0.041
   14  0.017  0.001  0.023  0.041
   15  0.002  0.000  0.024  0.027
   16  0.022  0.003  0.002  0.027
   17  0.002  0.000  0.024  0.027
   18  0.002  0.000  0.024  0.027
   19  0.012  0.001  0.013  0.027
   20  0.012  0.003  0.014  0.029
   21  0.012  0.003  0.014  0.029
   22  0.009  0.000  0.025  0.034
   23  0.012  0.003  0.014  0.029
   24  0.009  0.000  0.025  0.034
   25  0.012  0.001  0.013  0.027
   26  0.012  0.001  0.013  0.027
   27  0.009  0.000  0.025  0.034
   28  0.019  0.001  0.000  0.020
   29  0.003  0.000  0.005  0.008
   30  0.003  0.000  0.005  0.008
   31  0.003  0.000  0.005  0.008
   32  0.003  0.000  0.005  0.008
   33  0.003  0.000  0.005  0.008
   34  0.003  0.000  0.005  0.008
   35  0.000  0.001  0.008  0.008
   36  0.000  0.000  0.001  0.001
   37  0.000  0.000  0.000  0.000
tot    0.285  0.034  0.384  0.703
 
band     9 # energy   -5.97510886 # occ.  2.00000000
 
ion      s      p      d    tot
    1  0.000  0.001  0.004  0.005
    2  0.005  0.001  0.004  0.010
    3  0.008  0.001  0.004  0.013
    4  0.005  0.001  0.004  0.010
    5  0.000  0.000  0.005  0.005
    6  0.001  0.000  0.003  0.004
    7  0.008  0.001  0.004  0.013
    8  0.000  0.000  0.003  0.004
    9  0.000  0.001  0.011  0.013
   10  0.027  0.000  0.017  0.044
   11  0.002  0.002  0.020  0.024
   12  0.006  0.004  0.007  0.017
   13  0.002  0.002  0.021  0.024
   14  0.008  0.001  0.008  0.017
   15  0.017  0.001  0.034  0.052
   16  0.007  0.004  0.007  0.018
   17  0.015  0.001  0.035  0.051
   18  0.064  0.002  0.005  0.071
   19  0.010  0.001  0.027  0.038
   20  0.001  0.001  0.013  0.014
   21  0.000  0.002  0.012  0.014
   22  0.008  0.003  0.015  0.026
   23  0.000  0.002  0.012  0.014
   24  0.034  0.001  0.012  0.046
   25  0.040  0.002  0.003  0.045
   26  0.010  0.001  0.027  0.038
   27  0.009  0.003  0.015  0.026
   28  0.000  0.000  0.006  0.007
   29  0.000  0.000  0.002  0.002
   30  0.002  0.000  0.002  0.004
   31  0.000  0.000  0.002  0.002
   32  0.004  0.001  0.002  0.007
   33  0.002  0.000  0.001  0.004
   34  0.004  0.001  0.002  0.007
   35  0.000  0.001  0.004  0.004
   36  0.000  0.000  0.001  0.001
   37  0.000  0.000  0.000  0.000
tot    0.298  0.041  0.353  0.692
 
band    10 # energy   -5.97507802 # occ.  2.00000000
 
ion      s      p      d    tot
    1  0.000  0.001  0.004  0.005
    2  0.004  0.001  0.003  0.009
    3  0.001  0.000  0.004  0.005
    4  0.004  0.001  0.003  0.008
    5  0.000  0.000  0.005  0.005
    6  0.008  0.001  0.004  0.014
    7  0.001  0.000  0.004  0.005
    8  0.008  0.001  0.004  0.014
    9  0.000  0.001  0.011  0.013
   10  0.000  0.005  0.004  0.009
   11  0.006  0.001  0.012  0.019
   12  0.020  0.001  0.013  0.035
   13  0.006  0.001  0.012  0.019
   14  0.000  0.002  0.025  0.026
   15  0.047  0.001  0.015  0.064
   16  0.020  0.001  0.013  0.035
   17  0.048  0.001  0.015  0.065
   18  0.000  0.001  0.044  0.045
   19  0.030  0.002  0.011  0.043
   20  0.000  0.002  0.011  0.013
   21  0.001  0.001  0.012  0.014
   22  0.026  0.001  0.013  0.040
   23  0.001  0.001  0.012  0.014
   24  0.000  0.004  0.016  0.019
   25  0.000  0.000  0.035  0.035
   26  0.030  0.002  0.011  0.043
   27  0.025  0.001  0.013  0.039
   28  0.000  0.000  0.006  0.007
   29  0.004  0.001  0.002  0.007
   30  0.002  0.000  0.002  0.004
   31  0.004  0.001  0.002  0.007
   32  0.000  0.000  0.001  0.002
   33  0.002  0.000  0.002  0.005
   34  0.001  0.000  0.001  0.002
   35  0.000  0.001  0.004  0.004
   36  0.000  0.000  0.001  0.001
   37  0.000  0.000  0.000  0.000
tot    0.298  0.041  0.353  0.692
 
band    11 # energy   -5.58486722 # occ.  2.00000000
 
ion      s      p      d    tot
    1  0.004  0.000  0.000  0.005
    2  0.000  0.001  0.006  0.007
    3  0.000  0.001  0.006  0.007
    4  0.000  0.001  0.006  0.007
    5  0.014  0.002  0.000  0.016
    6  0.000  0.001  0.006  0.007
    7  0.000  0.001  0.006  0.007
    8  0.000  0.001  0.006  0.007
    9  0.003  0.001  0.002  0.005
   10  0.000  0.000  0.032  0.032
   11  0.009  0.002  0.002  0.013
   12  0.000  0.000  0.032  0.032
   13  0.009  0.002  0.002  0.013
   14  0.009  0.002  0.002  0.013
   15  0.010  0.001  0.029  0.040
   16  0.000  0.000  0.032  0.032
   17  0.010  0.001  0.029  0.040
   18  0.010  0.001  0.029  0.040
   19  0.012  0.001  0.013  0.026
   20  0.005  0.002  0.024  0.030
   21  0.004  0.002  0.024  0.030
   22  0.001  0.001  0.038  0.040
   23  0.004  0.002  0.024  0.030
   24  0.001  0.001  0.038  0.040
   25  0.012  0.001  0.013  0.026
   26  0.012  0.001  0.013  0.026
   27  0.001  0.001  0.038  0.040
   28  0.015  0.001  0.000  0.017
   29  0.000  0.001  0.010  0.011
   30  0.000  0.001  0.010  0.011
   31  0.000  0.001  0.010  0.011
   32  0.000  0.001  0.010  0.011
   33  0.000  0.001  0.010  0.011
   34  0.000  0.001  0.010  0.011
   35  0.004  0.000  0.002  0.006
   36  0.029  0.002  0.003  0.034
   37  0.003  0.000  0.000  0.003
tot    0.188  0.038  0.515  0.741
 
band    12 # energy   -5.55759307 # occ.  2.00000000
 
ion      s      p      d    tot
    1  0.000  0.001  0.004  0.004
    2  0.001  0.001  0.005  0.006
    3  0.009  0.001  0.005  0.015
    4  0.001  0.001  0.005  0.006
    5  0.000  0.001  0.010  0.012
    6  0.005  0.001  0.004  0.009
    7  0.009  0.001  0.005  0.015
    8  0.005  0.001  0.004  0.009
    9  0.000  0.000  0.009  0.009
   10  0.000  0.001  0.048  0.049
   11  0.016  0.001  0.021  0.038
   12  0.006  0.002  0.019  0.027
   13  0.016  0.001  0.020  0.038
   14  0.000  0.000  0.052  0.052
   15  0.002  0.000  0.020  0.022
   16  0.006  0.002  0.019  0.027
   17  0.002  0.000  0.020  0.022
   18  0.000  0.001  0.012  0.013
   19  0.004  0.000  0.018  0.022
   20  0.000  0.000  0.076  0.076
   21  0.017  0.001  0.023  0.041
   22  0.004  0.001  0.018  0.024
   23  0.017  0.001  0.024  0.042
   24  0.000  0.001  0.037  0.037
   25  0.000  0.001  0.009  0.010
   26  0.004  0.000  0.018  0.022
   27  0.004  0.001  0.019  0.024
   28  0.000  0.000  0.007  0.008
   29  0.003  0.001  0.005  0.008
   30  0.009  0.001  0.004  0.015
   31  0.003  0.001  0.005  0.008
   32  0.001  0.001  0.004  0.006
   33  0.009  0.001  0.004  0.015
   34  0.001  0.001  0.004  0.006
   35  0.000  0.000  0.003  0.003
   36  0.000  0.003  0.007  0.010
   37  0.000  0.000  0.000  0.000
tot    0.154  0.031  0.565  0.750
 
band    13 # energy   -5.55758839 # occ.  2.00000000
 
ion      s      p      d    tot
    1  0.000  0.001  0.004  0.004
    2  0.009  0.001  0.004  0.014
    3  0.001  0.000  0.004  0.005
    4  0.009  0.001  0.004  0.014
    5  0.000  0.001  0.010  0.012
    6  0.005  0.001  0.005  0.011
    7  0.001  0.000  0.004  0.005
    8  0.005  0.001  0.005  0.011
    9  0.000  0.000  0.009  0.009
   10  0.008  0.002  0.009  0.019
   11  0.005  0.000  0.042  0.047
   12  0.002  0.001  0.038  0.041
   13  0.005  0.000  0.042  0.047
   14  0.021  0.001  0.010  0.033
   15  0.001  0.001  0.015  0.016
   16  0.002  0.001  0.038  0.041
   17  0.001  0.001  0.015  0.016
   18  0.002  0.000  0.022  0.025
   19  0.001  0.001  0.012  0.014
   20  0.022  0.001  0.006  0.030
   21  0.006  0.000  0.058  0.064
   22  0.001  0.001  0.031  0.033
   23  0.006  0.000  0.058  0.064
   24  0.005  0.001  0.012  0.019
   25  0.005  0.000  0.021  0.026
   26  0.001  0.001  0.012  0.014
   27  0.001  0.001  0.030  0.033
   28  0.000  0.000  0.007  0.008
   29  0.006  0.001  0.004  0.011
   30  0.000  0.000  0.004  0.004
   31  0.006  0.001  0.004  0.011
   32  0.008  0.001  0.005  0.013
   33  0.000  0.000  0.004  0.004
   34  0.008  0.001  0.005  0.014
   35  0.000  0.000  0.003  0.003
   36  0.000  0.003  0.007  0.010
   37  0.000  0.000  0.000  0.000
tot    0.154  0.031  0.565  0.750
 
band    14 # energy   -5.55186376 # occ.  2.00000000
 
ion      s      p      d    tot
    1  0.011  0.002  0.003  0.015
    2  0.000  0.001  0.009  0.010
    3  0.000  0.001  0.009  0.010
    4  0.000  0.001  0.009  0.010
    5  0.002  0.000  0.002  0.004
    6  0.000  0.001  0.009  0.010
    7  0.000  0.001  0.009  0.010
    8  0.000  0.001  0.009  0.010
    9  0.021  0.002  0.000  0.023
   10  0.010  0.001  0.020  0.032
   11  0.001  0.000  0.048  0.049
   12  0.010  0.001  0.020  0.032
   13  0.001  0.000  0.048  0.049
   14  0.001  0.000  0.048  0.048
   15  0.007  0.002  0.015  0.023
   16  0.010  0.001  0.020  0.032
   17  0.007  0.002  0.015  0.023
   18  0.007  0.002  0.015  0.023
   19  0.001  0.000  0.018  0.019
   20  0.003  0.001  0.048  0.051
   21  0.003  0.001  0.048  0.051
   22  0.011  0.001  0.013  0.026
   23  0.003  0.001  0.048  0.051
   24  0.011  0.001  0.013  0.026
   25  0.001  0.000  0.018  0.019
   26  0.001  0.000  0.018  0.019
   27  0.011  0.001  0.013  0.026
   28  0.007  0.001  0.000  0.008
   29  0.000  0.000  0.005  0.005
   30  0.000  0.000  0.005  0.005
   31  0.000  0.000  0.005  0.005
   32  0.000  0.000  0.005  0.005
   33  0.000  0.000  0.005  0.005
   34  0.000  0.000  0.005  0.005
   35  0.010  0.001  0.003  0.014
   36  0.001  0.000  0.004  0.005
   37  0.001  0.000  0.000  0.001
tot    0.153  0.028  0.574  0.755
 
band    15 # energy   -5.49452263 # occ.  2.00000000
 
ion      s      p      d    tot
    1  0.000  0.001  0.015  0.015
    2  0.001  0.001  0.005  0.007
    3  0.008  0.001  0.005  0.014
    4  0.000  0.000  0.005  0.006
    5  0.000  0.000  0.006  0.006
    6  0.004  0.001  0.005  0.010
    7  0.009  0.001  0.005  0.015
    8  0.007  0.001  0.005  0.012
    9  0.000  0.001  0.006  0.007
   10  0.010  0.000  0.018  0.029
   11  0.000  0.001  0.017  0.018
   12  0.004  0.000  0.028  0.032
   13  0.000  0.001  0.018  0.019
   14  0.000  0.001  0.021  0.022
   15  0.002  0.000  0.053  0.055
   16  0.002  0.001  0.031  0.033
   17  0.005  0.001  0.042  0.047
   18  0.013  0.002  0.007  0.022
   19  0.003  0.000  0.058  0.062
   20  0.000  0.000  0.024  0.024
   21  0.000  0.001  0.022  0.023
   22  0.008  0.001  0.025  0.034
   23  0.000  0.002  0.021  0.023
   24  0.022  0.001  0.018  0.041
   25  0.020  0.001  0.004  0.026
   26  0.007  0.001  0.045  0.053
   27  0.004  0.001  0.027  0.031
   28  0.000  0.001  0.005  0.006
   29  0.002  0.000  0.004  0.006
   30  0.006  0.001  0.002  0.010
   31  0.001  0.000  0.004  0.005
   32  0.001  0.001  0.005  0.007
   33  0.006  0.001  0.003  0.010
   34  0.002  0.001  0.004  0.008
   35  0.000  0.001  0.008  0.009
   36  0.000  0.000  0.002  0.002
   37  0.000  0.000  0.000  0.000
tot    0.148  0.028  0.575  0.751
 
band    16 # energy   -5.49452231 # occ.  2.00000000
 
ion      s      p      d    tot
    1  0.000  0.001  0.015  0.015
    2  0.009  0.001  0.004  0.014
    3  0.002  0.000  0.005  0.007
    4  0.010  0.001  0.004  0.015
    5  0.000  0.000  0.006  0.006
    6  0.005  0.001  0.005  0.011
    7  0.000  0.000  0.005  0.006
    8  0.003  0.001  0.005  0.009
    9  0.000  0.001  0.006  0.007
   10  0.000  0.001  0.033  0.034
   11  0.000  0.001  0.020  0.022
   12  0.007  0.000  0.024  0.031
   13  0.000  0.001  0.019  0.021
   14  0.000  0.001  0.016  0.018
   15  0.011  0.002  0.015  0.028
   16  0.009  0.000  0.021  0.030
   17  0.008  0.002  0.026  0.036
   18  0.000  0.000  0.061  0.061
   19  0.017  0.001  0.014  0.032
   20  0.000  0.002  0.021  0.023
   21  0.000  0.001  0.023  0.024
   22  0.014  0.001  0.022  0.037
   23  0.000  0.001  0.023  0.024
   24  0.000  0.001  0.029  0.030
   25  0.000  0.000  0.067  0.068
   26  0.013  0.001  0.027  0.041
   27  0.019  0.001  0.020  0.039
   28  0.000  0.001  0.005  0.006
   29  0.004  0.001  0.004  0.009
   30  0.000  0.000  0.005  0.006
   31  0.005  0.001  0.003  0.010
   32  0.005  0.001  0.002  0.008
   33  0.000  0.000  0.005  0.005
   34  0.004  0.001  0.003  0.007
   35  0.000  0.001  0.008  0.009
   36  0.000  0.000  0.002  0.002
   37  0.000  0.000  0.000  0.000
tot    0.148  0.028  0.575  0.751
 
band    17 # energy   -5.20242792 # occ.  2.00000000
 
ion      s      p      d    tot
    1  0.012  0.000  0.008  0.021
    2  0.000  0.001  0.022  0.023
    3  0.000  0.001  0.022  0.023
    4  0.000  0.001  0.022  0.023
    5  0.001  0.000  0.000  0.001
    6  0.000  0.001  0.022  0.023
    7  0.000  0.001  0.022  0.023
    8  0.000  0.001  0.022  0.023
    9  0.023  0.001  0.006  0.030
   10  0.001  0.001  0.021  0.022
   11  0.000  0.000  0.012  0.012
   12  0.001  0.001  0.021  0.022
   13  0.000  0.000  0.012  0.012
   14  0.000  0.000  0.012  0.012
   15  0.000  0.000  0.033  0.033
   16  0.001  0.001  0.021  0.022
   17  0.000  0.000  0.033  0.033
   18  0.000  0.000  0.033  0.033
   19  0.000  0.000  0.030  0.030
   20  0.000  0.000  0.032  0.032
   21  0.000  0.000  0.032  0.032
   22  0.000  0.000  0.022  0.022
   23  0.000  0.000  0.032  0.032
   24  0.000  0.000  0.022  0.022
   25  0.000  0.000  0.030  0.030
   26  0.000  0.000  0.030  0.030
   27  0.000  0.000  0.022  0.022
   28  0.006  0.000  0.012  0.019
   29  0.000  0.001  0.020  0.021
   30  0.000  0.001  0.020  0.021
   31  0.000  0.001  0.020  0.021
   32  0.000  0.001  0.020  0.021
   33  0.000  0.001  0.020  0.021
   34  0.000  0.001  0.020  0.021
   35  0.007  0.000  0.000  0.007
   36  0.024  0.000  0.001  0.025
   37  0.002  0.000  0.000  0.002
tot    0.080  0.015  0.724  0.820
 
band    18 # energy   -5.18181707 # occ.  2.00000000
 
ion      s      p      d    tot
    1  0.000  0.000  0.025  0.025
    2  0.008  0.000  0.013  0.021
    3  0.008  0.001  0.008  0.017
    4  0.008  0.000  0.013  0.021
    5  0.000  0.001  0.020  0.022
    6  0.000  0.000  0.012  0.012
    7  0.008  0.001  0.008  0.017
    8  0.000  0.000  0.012  0.012
    9  0.000  0.001  0.004  0.005
   10  0.000  0.000  0.010  0.011
   11  0.000  0.000  0.050  0.051
   12  0.000  0.000  0.020  0.021
   13  0.000  0.000  0.050  0.051
   14  0.000  0.000  0.055  0.056
   15  0.000  0.000  0.023  0.023
   16  0.000  0.000  0.020  0.021
   17  0.000  0.000  0.023  0.023
   18  0.000  0.000  0.014  0.014
   19  0.000  0.000  0.012  0.012
   20  0.000  0.000  0.035  0.035
   21  0.001  0.000  0.068  0.069
   22  0.001  0.000  0.021  0.022
   23  0.001  0.000  0.068  0.069
   24  0.000  0.000  0.027  0.028
   25  0.000  0.000  0.006  0.006
   26  0.000  0.000  0.012  0.012
   27  0.001  0.000  0.021  0.022
   28  0.000  0.001  0.005  0.005
   29  0.000  0.000  0.006  0.006
   30  0.008  0.001  0.011  0.020
   31  0.000  0.000  0.006  0.006
   32  0.005  0.001  0.015  0.021
   33  0.008  0.001  0.011  0.020
   34  0.005  0.001  0.015  0.021
   35  0.000  0.000  0.018  0.018
   36  0.000  0.003  0.010  0.012
   37  0.000  0.000  0.000  0.000
tot    0.064  0.017  0.746  0.828
 
band    19 # energy   -5.18180880 # occ.  2.00000000
 
ion      s      p      d    tot
    1  0.000  0.000  0.025  0.025
    2  0.003  0.001  0.009  0.013
    3  0.003  0.000  0.014  0.017
    4  0.003  0.001  0.009  0.013
    5  0.000  0.001  0.020  0.022
    6  0.011  0.001  0.010  0.021
    7  0.003  0.000  0.014  0.017
    8  0.011  0.001  0.010  0.021
    9  0.000  0.001  0.004  0.005
   10  0.000  0.001  0.024  0.024
   11  0.000  0.000  0.054  0.054
   12  0.000  0.000  0.014  0.014
   13  0.000  0.000  0.054  0.054
   14  0.001  0.001  0.048  0.049
   15  0.000  0.000  0.017  0.017
   16  0.000  0.000  0.014  0.014
   17  0.000  0.000  0.017  0.017
   18  0.000  0.000  0.026  0.027
   19  0.000  0.000  0.008  0.008
   20  0.001  0.000  0.079  0.081
   21  0.000  0.000  0.046  0.047
   22  0.000  0.000  0.025  0.026
   23  0.000  0.000  0.046  0.047
   24  0.001  0.000  0.019  0.020
   25  0.000  0.000  0.013  0.014
   26  0.000  0.000  0.008  0.008
   27  0.000  0.000  0.025  0.026
   28  0.000  0.001  0.005  0.005
   29  0.009  0.001  0.015  0.025
   30  0.001  0.000  0.010  0.011
   31  0.009  0.001  0.015  0.025
   32  0.004  0.000  0.006  0.010
   33  0.001  0.000  0.010  0.011
   34  0.004  0.000  0.006  0.010
   35  0.000  0.000  0.018  0.018
   36  0.000  0.003  0.010  0.012
   37  0.000  0.000  0.000  0.000
tot    0.064  0.017  0.746  0.828
 
band    20 # energy   -5.15988489 # occ.  2.00000000
 
ion      s      p      d    tot
    1  0.006  0.000  0.001  0.007
    2  0.000  0.000  0.007  0.007
    3  0.000  0.000  0.007  0.007
    4  0.000  0.000  0.007  0.007
    5  0.001  0.000  0.013  0.015
    6  0.000  0.000  0.007  0.007
    7  0.000  0.000  0.007  0.007
    8  0.000  0.000  0.007  0.007
    9  0.001  0.000  0.005  0.006
   10  0.000  0.000  0.019  0.019
   11  0.000  0.000  0.046  0.047
   12  0.000  0.000  0.019  0.019
   13  0.000  0.000  0.046  0.047
   14  0.000  0.000  0.046  0.047
   15  0.000  0.000  0.032  0.032
   16  0.000  0.000  0.019  0.019
   17  0.000  0.000  0.032  0.032
   18  0.000  0.000  0.032  0.032
   19  0.000  0.000  0.022  0.023
   20  0.001  0.000  0.046  0.048
   21  0.001  0.000  0.046  0.048
   22  0.001  0.000  0.032  0.034
   23  0.001  0.000  0.046  0.048
   24  0.001  0.000  0.033  0.034
   25  0.000  0.000  0.022  0.023
   26  0.000  0.000  0.022  0.023
   27  0.001  0.000  0.032  0.034
   28  0.017  0.001  0.001  0.019
   29  0.000  0.001  0.017  0.018
   30  0.000  0.001  0.017  0.018
   31  0.000  0.001  0.017  0.018
   32  0.000  0.001  0.017  0.018
   33  0.000  0.001  0.017  0.018
   34  0.000  0.001  0.017  0.018
   35  0.014  0.000  0.004  0.019
   36  0.002  0.000  0.010  0.012
   37  0.002  0.000  0.000  0.002
tot    0.050  0.012  0.770  0.832
 
band    21 # energy   -5.12553293 # occ.  2.00000000
 
ion      s      p      d    tot
    1  0.000  0.002  0.010  0.012
    2  0.014  0.001  0.021  0.035
    3  0.011  0.001  0.014  0.026
    4  0.014  0.001  0.021  0.035
    5  0.000  0.001  0.025  0.026
    6  0.000  0.001  0.017  0.018
    7  0.011  0.001  0.013  0.026
    8  0.000  0.001  0.017  0.018
    9  0.000  0.000  0.046  0.047
   10  0.000  0.001  0.046  0.047
   11  0.000  0.000  0.016  0.016
   12  0.000  0.000  0.035  0.035
   13  0.000  0.000  0.016  0.016
   14  0.000  0.000  0.018  0.018
   15  0.000  0.001  0.036  0.037
   16  0.000  0.000  0.035  0.035
   17  0.000  0.001  0.036  0.037
   18  0.000  0.001  0.032  0.033
   19  0.000  0.000  0.018  0.018
   20  0.000  0.000  0.014  0.014
   21  0.000  0.000  0.013  0.013
   22  0.001  0.000  0.015  0.015
   23  0.000  0.000  0.013  0.013
   24  0.003  0.000  0.026  0.030
   25  0.000  0.000  0.025  0.026
   26  0.000  0.000  0.018  0.018
   27  0.001  0.000  0.015  0.015
   28  0.000  0.000  0.019  0.020
   29  0.000  0.000  0.010  0.010
   30  0.007  0.001  0.006  0.014
   31  0.000  0.000  0.010  0.010
   32  0.007  0.001  0.014  0.021
   33  0.007  0.001  0.006  0.014
   34  0.007  0.001  0.014  0.021
   35  0.000  0.001  0.005  0.006
   36  0.000  0.000  0.011  0.011