PROCAR new format
# of k-points:   10         # of bands:  252         # of ions:   38

 k-point     1 :    0.00000000 0.00000000 0.00000000     weight = 0.01562500

band     1 # energy  -23.19677591 # occ.  2.00000000
 
ion      s      p      d    tot
    1  0.000  0.000  0.000  0.000
    2  0.000  0.000  0.000  0.000
    3  0.000  0.000  0.000  0.000
    4  0.000  0.000  0.000  0.000
    5  0.000  0.000  0.000  0.000
    6  0.000  0.000  0.000  0.000
    7  0.000  0.000  0.000  0.000
    8  0.000  0.000  0.000  0.000
    9  0.000  0.000  0.000  0.000
   10  0.000  0.000  0.000  0.000
   11  0.000  0.000  0.000  0.000
   12  0.000  0.000  0.000  0.000
   13  0.000  0.000  0.000  0.000
   14  0.000  0.000  0.000  0.000
   15  0.000  0.000  0.000  0.000
   16  0.000  0.000  0.000  0.000
   17  0.000  0.000  0.000  0.000
   18  0.000  0.000  0.000  0.000
   19  0.000  0.000  0.000  0.000
   20  0.000  0.000  0.000  0.000
   21  0.000  0.000  0.000  0.000
   22  0.000  0.000  0.000  0.000
   23  0.000  0.000  0.000  0.000
   24  0.000  0.000  0.000  0.000
   25  0.000  0.000  0.000  0.000
   26  0.000  0.000  0.000  0.000
   27  0.000  0.000  0.000  0.000
   28  0.000  0.000  0.000  0.000
   29  0.000  0.000  0.000  0.000
   30  0.000  0.000  0.000  0.000
   31  0.000  0.000  0.000  0.000
   32  0.000  0.000  0.000  0.000
   33  0.000  0.000  0.000  0.000
   34  0.000  0.000  0.000  0.000
   35  0.000  0.000  0.000  0.000
   36  0.000  0.000  0.000  0.000
   37  0.163  0.121  0.000  0.284
   38  0.639  0.099  0.000  0.737
tot    0.802  0.220  0.000  1.021
 
band     2 # energy   -8.77654748 # occ.  2.00000000
 
ion      s      p      d    tot
    1  0.000  0.000  0.000  0.000
    2  0.000  0.000  0.000  0.000
    3  0.000  0.000  0.000  0.000
    4  0.000  0.000  0.000  0.000
    5  0.000  0.000  0.000  0.000
    6  0.000  0.000  0.000  0.000
    7  0.000  0.000  0.000  0.000
    8  0.000  0.000  0.000  0.000
    9  0.000  0.000  0.000  0.000
   10  0.000  0.000  0.000  0.000
   11  0.000  0.000  0.000  0.000
   12  0.000  0.000  0.000  0.000
   13  0.000  0.000  0.000  0.000
   14  0.000  0.000  0.000  0.000
   15  0.000  0.000  0.000  0.000
   16  0.000  0.000  0.000  0.000
   17  0.000  0.000  0.000  0.000
   18  0.000  0.000  0.000  0.000
   19  0.000  0.000  0.000  0.000
   20  0.001  0.000  0.000  0.002
   21  0.001  0.000  0.000  0.002
   22  0.000  0.000  0.000  0.000
   23  0.001  0.000  0.000  0.002
   24  0.000  0.000  0.000  0.000
   25  0.000  0.000  0.000  0.000
   26  0.000  0.000  0.000  0.000
   27  0.000  0.000  0.000  0.000
   28  0.000  0.000  0.000  0.000
   29  0.001  0.000  0.000  0.001
   30  0.001  0.000  0.000  0.001
   31  0.001  0.000  0.000  0.001
   32  0.001  0.000  0.000  0.001
   33  0.001  0.000  0.000  0.001
   34  0.001  0.000  0.000  0.001
   35  0.000  0.000  0.000  0.000
   36  0.045  0.029  0.091  0.166
   37  0.278  0.010  0.000  0.288
   38  0.132  0.194  0.000  0.326
tot    0.469  0.234  0.095  0.797
 
band     3 # energy   -7.94702799 # occ.  2.00000000
 
ion      s      p      d    tot
    1  0.007  0.001  0.000  0.007
    2  0.007  0.001  0.000  0.007
    3  0.007  0.001  0.000  0.007
    4  0.007  0.001  0.000  0.007
    5  0.007  0.001  0.000  0.007
    6  0.007  0.001  0.000  0.007
    7  0.007  0.001  0.000  0.007
    8  0.007  0.001  0.000  0.007
    9  0.007  0.001  0.000  0.007
   10  0.027  0.000  0.000  0.027
   11  0.027  0.000  0.000  0.027
   12  0.027  0.000  0.000  0.027
   13  0.027  0.000  0.000  0.027
   14  0.027  0.000  0.000  0.027
   15  0.027  0.000  0.000  0.027
   16  0.027  0.000  0.000  0.027
   17  0.027  0.000  0.000  0.027
   18  0.027  0.000  0.000  0.027
   19  0.024  0.000  0.000  0.024
   20  0.023  0.000  0.000  0.023
   21  0.023  0.000  0.000  0.023
   22  0.024  0.000  0.000  0.024
   23  0.023  0.000  0.000  0.023
   24  0.024  0.000  0.000  0.024
   25  0.024  0.000  0.000  0.024
   26  0.024  0.000  0.000  0.024
   27  0.024  0.000  0.000  0.024
   28  0.005  0.000  0.000  0.005
   29  0.004  0.000  0.000  0.005
   30  0.004  0.000  0.000  0.005
   31  0.004  0.000  0.000  0.005
   32  0.004  0.000  0.000  0.005
   33  0.004  0.000  0.000  0.005
   34  0.004  0.000  0.000  0.005
   35  0.005  0.000  0.000  0.005
   36  0.002  0.002  0.000  0.004
   37  0.004  0.000  0.000  0.004
   38  0.003  0.009  0.000  0.012
tot    0.560  0.022  0.004  0.585
 
band     4 # energy   -6.80868160 # occ.  2.00000000
 
ion      s      p      d    tot
    1  0.015  0.000  0.001  0.017
    2  0.015  0.000  0.001  0.016
    3  0.015  0.000  0.001  0.016
    4  0.015  0.000  0.001  0.016
    5  0.015  0.000  0.001  0.016
    6  0.015  0.000  0.001  0.016
    7  0.015  0.000  0.001  0.016
    8  0.015  0.000  0.001  0.016
    9  0.015  0.000  0.001  0.016
   10  0.010  0.001  0.002  0.013
   11  0.010  0.001  0.002  0.013
   12  0.010  0.001  0.002  0.013
   13  0.010  0.001  0.002  0.013
   14  0.010  0.001  0.002  0.013
   15  0.010  0.001  0.002  0.013
   16  0.010  0.001  0.002  0.013
   17  0.010  0.001  0.002  0.013
   18  0.010  0.001  0.002  0.013
   19  0.012  0.001  0.003  0.016
   20  0.013  0.001  0.003  0.018
   21  0.013  0.001  0.003  0.018
   22  0.012  0.001  0.003  0.016
   23  0.013  0.001  0.003  0.018
   24  0.012  0.001  0.003  0.016
   25  0.012  0.001  0.003  0.016
   26  0.012  0.001  0.003  0.016
   27  0.012  0.001  0.003  0.016
   28  0.014  0.000  0.001  0.015
   29  0.013  0.000  0.000  0.014
   30  0.013  0.000  0.000  0.014
   31  0.013  0.000  0.000  0.014
   32  0.013  0.000  0.000  0.014
   33  0.013  0.000  0.000  0.014
   34  0.013  0.000  0.000  0.014
   35  0.014  0.000  0.001  0.015
   36  0.018  0.000  0.005  0.024
   37  0.000  0.018  0.000  0.018
   38  0.006  0.042  0.000  0.049
tot    0.467  0.089  0.066  0.622
 
band     5 # energy   -6.34888073 # occ.  2.00000000
 
ion      s      p      d    tot
    1  0.003  0.000  0.000  0.003
    2  0.002  0.000  0.000  0.002
    3  0.002  0.000  0.000  0.002
    4  0.002  0.000  0.000  0.002
    5  0.002  0.000  0.000  0.002
    6  0.002  0.000  0.000  0.002
    7  0.002  0.000  0.000  0.002
    8  0.002  0.000  0.000  0.002
    9  0.001  0.000  0.001  0.001
   10  0.001  0.000  0.001  0.002
   11  0.000  0.000  0.000  0.001
   12  0.001  0.000  0.001  0.002
   13  0.000  0.000  0.000  0.001
   14  0.000  0.000  0.000  0.001
   15  0.000  0.000  0.000  0.001
   16  0.001  0.000  0.001  0.002
   17  0.000  0.000  0.000  0.001
   18  0.000  0.000  0.000  0.001
   19  0.004  0.000  0.002  0.006
   20  0.000  0.001  0.008  0.009
   21  0.000  0.001  0.008  0.009
   22  0.007  0.000  0.001  0.008
   23  0.000  0.001  0.008  0.009
   24  0.007  0.000  0.001  0.008
   25  0.004  0.000  0.002  0.006
   26  0.004  0.000  0.002  0.006
   27  0.007  0.000  0.001  0.008
   28  0.002  0.000  0.000  0.003
   29  0.000  0.000  0.001  0.002
   30  0.000  0.000  0.001  0.002
   31  0.000  0.000  0.001  0.002
   32  0.000  0.000  0.001  0.002
   33  0.000  0.000  0.001  0.002
   34  0.000  0.000  0.001  0.002
   35  0.003  0.000  0.000  0.003
   36  0.044  0.022  0.178  0.244
   37  0.010  0.192  0.000  0.203
   38  0.028  0.275  0.000  0.303
tot    0.146  0.497  0.224  0.868
 
band     6 # energy   -5.98855312 # occ.  2.00000000
 
ion      s      p      d    tot
    1  0.000  0.000  0.000  0.000
    2  0.000  0.000  0.000  0.000
    3  0.000  0.000  0.000  0.000
    4  0.000  0.000  0.000  0.000
    5  0.000  0.000  0.000  0.000
    6  0.000  0.000  0.000  0.000
    7  0.000  0.000  0.000  0.000
    8  0.000  0.000  0.000  0.000
    9  0.000  0.000  0.000  0.000
   10  0.001  0.000  0.000  0.001
   11  0.000  0.000  0.000  0.000
   12  0.000  0.000  0.000  0.001
   13  0.000  0.000  0.000  0.000
   14  0.000  0.000  0.000  0.000
   15  0.000  0.000  0.000  0.001
   16  0.000  0.000  0.000  0.001
   17  0.000  0.000  0.000  0.001
   18  0.000  0.000  0.000  0.001
   19  0.000  0.000  0.001  0.001
   20  0.001  0.000  0.001  0.002
   21  0.000  0.000  0.001  0.001
   22  0.000  0.000  0.000  0.000
   23  0.000  0.000  0.001  0.001
   24  0.000  0.000  0.000  0.001
   25  0.001  0.000  0.000  0.001
   26  0.000  0.000  0.001  0.001
   27  0.000  0.000  0.000  0.000
   28  0.000  0.000  0.000  0.000
   29  0.001  0.000  0.001  0.002
   30  0.000  0.000  0.001  0.001
   31  0.001  0.000  0.001  0.002
   32  0.001  0.000  0.001  0.003
   33  0.000  0.000  0.001  0.001
   34  0.001  0.000  0.001  0.003
   35  0.000  0.000  0.000  0.000
   36  0.000  0.003  0.038  0.041
   37  0.000  0.177  0.000  0.177
   38  0.000  0.445  0.000  0.445
tot    0.009  0.626  0.054  0.688
 
band     7 # energy   -5.98844729 # occ.  2.00000000
 
ion      s      p      d    tot
    1  0.000  0.000  0.000  0.000
    2  0.000  0.000  0.000  0.000
    3  0.000  0.000  0.000  0.000
    4  0.000  0.000  0.000  0.000
    5  0.000  0.000  0.000  0.000
    6  0.000  0.000  0.000  0.000
    7  0.000  0.000  0.000  0.000
    8  0.000  0.000  0.000  0.000
    9  0.000  0.000  0.000  0.000
   10  0.000  0.000  0.000  0.000
   11  0.000  0.000  0.000  0.000
   12  0.001  0.000  0.000  0.001
   13  0.000  0.000  0.000  0.000
   14  0.000  0.000  0.000  0.000
   15  0.000  0.000  0.000  0.001
   16  0.001  0.000  0.000  0.001
   17  0.000  0.000  0.000  0.001
   18  0.000  0.000  0.001  0.001
   19  0.001  0.000  0.000  0.001
   20  0.000  0.000  0.001  0.001
   21  0.001  0.000  0.001  0.002
   22  0.000  0.000  0.000  0.000
   23  0.001  0.000  0.001  0.002
   24  0.000  0.000  0.000  0.000
   25  0.000  0.000  0.001  0.001
   26  0.001  0.000  0.000  0.001
   27  0.000  0.000  0.000  0.000
   28  0.000  0.000  0.000  0.000
   29  0.001  0.000  0.001  0.002
   30  0.001  0.000  0.002  0.003
   31  0.001  0.000  0.001  0.002
   32  0.000  0.000  0.001  0.001
   33  0.001  0.000  0.002  0.003
   34  0.000  0.000  0.001  0.001
   35  0.000  0.000  0.000  0.000
   36  0.000  0.003  0.038  0.041
   37  0.000  0.177  0.000  0.177
   38  0.000  0.445  0.000  0.445
tot    0.009  0.626  0.054  0.688
 
band     8 # energy   -5.83977249 # occ.  2.00000000
 
ion      s      p      d    tot
    1  0.014  0.000  0.023  0.037
    2  0.020  0.000  0.019  0.039
    3  0.020  0.000  0.019  0.040
    4  0.020  0.000  0.019  0.039
    5  0.018  0.000  0.018  0.036
    6  0.020  0.000  0.019  0.039
    7  0.020  0.000  0.019  0.040
    8  0.020  0.000  0.019  0.039
    9  0.030  0.000  0.017  0.047
   10  0.013  0.001  0.019  0.033
   11  0.010  0.001  0.019  0.030
   12  0.013  0.001  0.019  0.033
   13  0.010  0.001  0.019  0.030
   14  0.010  0.001  0.019  0.030
   15  0.001  0.001  0.023  0.025
   16  0.013  0.001  0.019  0.033
   17  0.001  0.001  0.023  0.025
   18  0.001  0.001  0.023  0.025
   19  0.000  0.001  0.002  0.003
   20  0.002  0.001  0.003  0.005
   21  0.002  0.001  0.003  0.005
   22  0.001  0.001  0.000  0.002
   23  0.002  0.001  0.003  0.005
   24  0.001  0.001  0.000  0.002
   25  0.000  0.001  0.002  0.003
   26  0.000  0.001  0.002  0.003
   27  0.001  0.001  0.000  0.002
   28  0.005  0.000  0.001  0.006
   29  0.004  0.000  0.002  0.006
   30  0.004  0.000  0.002  0.006
   31  0.004  0.000  0.002  0.006
   32  0.004  0.000  0.002  0.006
   33  0.004  0.000  0.002  0.006
   34  0.004  0.000  0.002  0.006
   35  0.008  0.000  0.001  0.010
   36  0.000  0.000  0.002  0.003
   37  0.000  0.000  0.000  0.000
   38  0.000  0.000  0.000  0.000
tot    0.305  0.016  0.386  0.706
 
band     9 # energy   -5.79510482 # occ.  2.00000000
 
ion      s      p      d    tot
    1  0.016  0.002  0.000  0.018
    2  0.000  0.001  0.006  0.007
    3  0.000  0.001  0.006  0.007
    4  0.000  0.001  0.006  0.007
    5  0.008  0.001  0.004  0.013
    6  0.000  0.001  0.006  0.007
    7  0.000  0.001  0.006  0.007
    8  0.000  0.001  0.006  0.007
    9  0.000  0.000  0.000  0.000
   10  0.024  0.003  0.006  0.033
   11  0.020  0.000  0.024  0.044
   12  0.023  0.003  0.006  0.032
   13  0.020  0.000  0.024  0.044
   14  0.020  0.000  0.023  0.044
   15  0.003  0.002  0.019  0.024
   16  0.023  0.003  0.006  0.032
   17  0.003  0.002  0.019  0.024
   18  0.003  0.002  0.019  0.024
   19  0.029  0.003  0.002  0.034
   20  0.000  0.002  0.018  0.020
   21  0.001  0.002  0.018  0.020
   22  0.012  0.000  0.024  0.036
   23  0.001  0.002  0.018  0.020
   24  0.012  0.000  0.025  0.036
   25  0.028  0.003  0.002  0.033
   26  0.029  0.003  0.002  0.034
   27  0.012  0.000  0.024  0.036
   28  0.007  0.001  0.001  0.009
   29  0.000  0.000  0.004  0.005
   30  0.000  0.000  0.004  0.005
   31  0.000  0.000  0.004  0.005
   32  0.000  0.000  0.004  0.005
   33  0.000  0.000  0.004  0.005
   34  0.000  0.000  0.004  0.005
   35  0.010  0.001  0.001  0.012
   36  0.001  0.000  0.000  0.001
   37  0.000  0.001  0.000  0.001
   38  0.000  0.001  0.000  0.001
tot    0.302  0.044  0.347  0.694
 
band    10 # energy   -5.79396947 # occ.  2.00000000
 
ion      s      p      d    tot
    1  0.000  0.001  0.011  0.012
    2  0.007  0.001  0.003  0.011
    3  0.000  0.000  0.003  0.004
    4  0.007  0.001  0.003  0.011
    5  0.000  0.001  0.003  0.004
    6  0.005  0.001  0.004  0.009
    7  0.000  0.000  0.003  0.004
    8  0.005  0.001  0.004  0.009
    9  0.000  0.000  0.004  0.004
   10  0.058  0.002  0.005  0.065
   11  0.007  0.003  0.008  0.019
   12  0.015  0.001  0.033  0.050
   13  0.007  0.003  0.008  0.019
   14  0.027  0.000  0.016  0.043
   15  0.001  0.002  0.017  0.020
   16  0.015  0.001  0.033  0.050
   17  0.001  0.002  0.017  0.020
   18  0.005  0.001  0.009  0.015
   19  0.008  0.003  0.012  0.024
   20  0.046  0.002  0.004  0.052
   21  0.012  0.001  0.029  0.041
   22  0.000  0.002  0.011  0.013
   23  0.011  0.001  0.029  0.041
   24  0.001  0.001  0.009  0.011
   25  0.034  0.000  0.013  0.047
   26  0.008  0.003  0.012  0.024
   27  0.000  0.002  0.011  0.013
   28  0.000  0.001  0.003  0.004
   29  0.004  0.001  0.002  0.007
   30  0.004  0.001  0.003  0.008
   31  0.004  0.001  0.002  0.007
   32  0.000  0.000  0.002  0.002
   33  0.004  0.001  0.003  0.008
   34  0.000  0.000  0.002  0.002
   35  0.000  0.000  0.002  0.002
   36  0.000  0.002  0.004  0.005
   37  0.000  0.003  0.000  0.003
   38  0.000  0.008  0.000  0.008
tot    0.300  0.054  0.338  0.692
 
band    11 # energy   -5.79395512 # occ.  2.00000000
 
ion      s      p      d    tot
    1  0.000  0.001  0.011  0.012
    2  0.001  0.000  0.003  0.005
    3  0.008  0.001  0.004  0.013
    4  0.001  0.000  0.003  0.005
    5  0.000  0.001  0.003  0.004
    6  0.003  0.001  0.003  0.007
    7  0.008  0.001  0.004  0.013
    8  0.003  0.001  0.003  0.007
    9  0.000  0.000  0.004  0.004
   10  0.000  0.001  0.043  0.043
   11  0.021  0.001  0.013  0.035
   12  0.045  0.002  0.014  0.060
   13  0.021  0.001  0.013  0.035
   14  0.000  0.005  0.006  0.011
   15  0.004  0.001  0.012  0.017
   16  0.045  0.002  0.014  0.060
   17  0.004  0.001  0.012  0.017
   18  0.000  0.002  0.021  0.022
   19  0.025  0.001  0.013  0.039
   20  0.000  0.000  0.038  0.038
   21  0.035  0.002  0.012  0.048
   22  0.001  0.001  0.010  0.012
   23  0.035  0.002  0.012  0.048
   24  0.000  0.002  0.011  0.013
   25  0.000  0.004  0.012  0.016
   26  0.025  0.001  0.013  0.039
   27  0.001  0.001  0.010  0.012
   28  0.000  0.001  0.003  0.004
   29  0.001  0.000  0.002  0.004
   30  0.002  0.000  0.002  0.004
   31  0.001  0.000  0.002  0.004
   32  0.005  0.001  0.003  0.009
   33  0.002  0.000  0.002  0.004
   34  0.005  0.001  0.003  0.009
   35  0.000  0.000  0.002  0.002
   36  0.000  0.002  0.004  0.005
   37  0.000  0.003  0.000  0.003
   38  0.000  0.008  0.000  0.008
tot    0.300  0.054  0.338  0.692
 
band    12 # energy   -5.78825976 # occ.  2.00000000
 
ion      s      p      d    tot
    1  0.000  0.000  0.001  0.002
    2  0.007  0.001  0.003  0.011
    3  0.000  0.000  0.003  0.004
    4  0.007  0.001  0.003  0.012
    5  0.000  0.000  0.008  0.009
    6  0.005  0.001  0.004  0.010
    7  0.000  0.000  0.003  0.004
    8  0.005  0.001  0.004  0.009
    9  0.000  0.001  0.008  0.009
   10  0.000  0.004  0.004  0.008
   11  0.026  0.001  0.012  0.039
   12  0.002  0.001  0.012  0.015
   13  0.024  0.001  0.013  0.039
   14  0.000  0.000  0.040  0.040
   15  0.043  0.001  0.014  0.059
   16  0.002  0.001  0.012  0.016
   17  0.041  0.001  0.015  0.058
   18  0.000  0.003  0.026  0.029
   19  0.015  0.001  0.010  0.027
   20  0.000  0.004  0.003  0.007
   21  0.006  0.001  0.011  0.019
   22  0.039  0.002  0.014  0.054
   23  0.007  0.001  0.012  0.019
   24  0.000  0.002  0.031  0.033
   25  0.000  0.000  0.028  0.029
   26  0.014  0.001  0.011  0.027
   27  0.041  0.002  0.013  0.055
   28  0.000  0.000  0.005  0.005
   29  0.004  0.001  0.002  0.007
   30  0.004  0.001  0.003  0.009
   31  0.004  0.001  0.002  0.007
   32  0.000  0.000  0.002  0.003
   33  0.004  0.001  0.003  0.008
   34  0.000  0.000  0.002  0.003
   35  0.000  0.001  0.007  0.008
   36  0.000  0.000  0.002  0.002
   37  0.000  0.001  0.000  0.001
   38  0.000  0.002  0.000  0.002
tot    0.301  0.045  0.348  0.693
 
band    13 # energy   -5.78825094 # occ.  2.00000000
 
ion      s      p      d    tot
    1  0.000  0.000  0.001  0.002
    2  0.001  0.000  0.004  0.005
    3  0.008  0.001  0.004  0.013
    4  0.001  0.000  0.004  0.005
    5  0.000  0.000  0.008  0.009
    6  0.003  0.001  0.003  0.007
    7  0.008  0.001  0.004  0.013
    8  0.003  0.001  0.003  0.007
    9  0.000  0.001  0.008  0.009
   10  0.003  0.000  0.015  0.018
   11  0.008  0.000  0.031  0.039
   12  0.001  0.003  0.007  0.010
   13  0.009  0.001  0.030  0.039
   14  0.033  0.002  0.003  0.038
   15  0.013  0.003  0.022  0.038
   16  0.001  0.003  0.006  0.010
   17  0.015  0.002  0.022  0.039
   18  0.056  0.001  0.011  0.068
   19  0.005  0.001  0.023  0.028
   20  0.008  0.000  0.014  0.023
   21  0.002  0.003  0.006  0.011
   22  0.014  0.002  0.025  0.041
   23  0.002  0.003  0.006  0.011
   24  0.053  0.001  0.007  0.062
   25  0.020  0.002  0.005  0.026
   26  0.005  0.001  0.022  0.028
   27  0.012  0.002  0.025  0.040
   28  0.000  0.000  0.005  0.005
   29  0.002  0.000  0.003  0.005
   30  0.001  0.000  0.002  0.003
   31  0.002  0.000  0.003  0.005
   32  0.005  0.001  0.003  0.009
   33  0.001  0.000  0.002  0.004
   34  0.005  0.001  0.003  0.009
   35  0.000  0.001  0.007  0.008
   36  0.000  0.000  0.002  0.002
   37  0.000  0.001  0.000  0.001
   38  0.000  0.002  0.000  0.002
tot    0.301  0.045  0.348  0.693
 
band    14 # energy   -5.77610067 # occ.  2.00000000
 
ion      s      p      d    tot
    1  0.003  0.000  0.000  0.003
    2  0.001  0.000  0.005  0.006
    3  0.001  0.000  0.005  0.006
    4  0.001  0.000  0.005  0.006
    5  0.008  0.000  0.001  0.009
    6  0.001  0.000  0.005  0.006
    7  0.001  0.000  0.005  0.006
    8  0.001  0.000  0.005  0.006
    9  0.004  0.001  0.005  0.010
   10  0.000  0.000  0.024  0.024
   11  0.005  0.002  0.012  0.018
   12  0.000  0.000  0.024  0.024
   13  0.005  0.002  0.012  0.018
   14  0.005  0.002  0.012  0.018
   15  0.024  0.000  0.011  0.036
   16  0.000  0.000  0.024  0.024
   17  0.024  0.000  0.011  0.036
   18  0.024  0.000  0.011  0.036
   19  0.000  0.000  0.031  0.031
   20  0.030  0.001  0.009  0.040
   21  0.030  0.001  0.009  0.040
   22  0.000  0.001  0.021  0.022
   23  0.030  0.001  0.009  0.040
   24  0.000  0.001  0.021  0.022
   25  0.000  0.000  0.030  0.031
   26  0.000  0.000  0.031  0.031
   27  0.000  0.001  0.021  0.022
   28  0.016  0.000  0.003  0.020
   29  0.007  0.000  0.009  0.016
   30  0.007  0.000  0.009  0.016
   31  0.007  0.000  0.009  0.016
   32  0.007  0.000  0.009  0.016
   33  0.007  0.000  0.009  0.016
   34  0.007  0.000  0.009  0.016
   35  0.012  0.000  0.008  0.020
   36  0.001  0.005  0.001  0.007
   37  0.000  0.004  0.000  0.005
   38  0.000  0.006  0.000  0.006
tot    0.265  0.037  0.422  0.723
 
band    15 # energy   -5.68944947 # occ.  2.00000000
 
ion      s      p      d    tot
    1  0.003  0.000  0.001  0.004
    2  0.000  0.000  0.004  0.004
    3  0.000  0.000  0.004  0.004
    4  0.000  0.000  0.004  0.004
    5  0.005  0.000  0.000  0.005
    6  0.000  0.000  0.004  0.004
    7  0.000  0.000  0.004  0.004
    8  0.000  0.000  0.004  0.004
    9  0.007  0.001  0.001  0.009
   10  0.003  0.000  0.017  0.020
   11  0.006  0.001  0.003  0.011
   12  0.003  0.000  0.017  0.020
   13  0.006  0.001  0.003  0.011
   14  0.007  0.001  0.003  0.011
   15  0.016  0.001  0.009  0.027
   16  0.003  0.000  0.017  0.020
   17  0.016  0.001  0.009  0.027
   18  0.016  0.001  0.009  0.027
   19  0.003  0.001  0.017  0.021
   20  0.000  0.000  0.023  0.024
   21  0.000  0.000  0.023  0.024
   22  0.015  0.002  0.014  0.031
   23  0.000  0.000  0.023  0.024
   24  0.015  0.002  0.014  0.031
   25  0.003  0.001  0.017  0.021
   26  0.003  0.001  0.017  0.021
   27  0.015  0.002  0.014  0.031
   28  0.016  0.000  0.018  0.034
   29  0.015  0.000  0.013  0.028
   30  0.015  0.000  0.013  0.028
   31  0.015  0.000  0.013  0.028
   32  0.015  0.000  0.013  0.028
   33  0.015  0.000  0.013  0.028
   34  0.015  0.000  0.013  0.028
   35  0.013  0.000  0.015  0.028
   36  0.004  0.002  0.032  0.038
   37  0.002  0.005  0.000  0.007
   38  0.000  0.004  0.000  0.004
tot    0.273  0.035  0.415  0.722
 
band    16 # energy   -5.31321157 # occ.  2.00000000
 
ion      s      p      d    tot
    1  0.000  0.001  0.005  0.006
    2  0.000  0.000  0.005  0.005
    3  0.007  0.001  0.005  0.013
    4  0.000  0.000  0.005  0.005
    5  0.000  0.001  0.012  0.013
    6  0.007  0.001  0.004  0.012
    7  0.007  0.001  0.005  0.013
    8  0.008  0.001  0.004  0.012
    9  0.000  0.000  0.007  0.007
   10  0.000  0.000  0.060  0.060
   11  0.012  0.001  0.021  0.034
   12  0.010  0.002  0.020  0.031
   13  0.012  0.001  0.021  0.034
   14  0.000  0.000  0.040  0.040
   15  0.000  0.001  0.020  0.021
   16  0.010  0.002  0.019  0.031
   17  0.000  0.001  0.020  0.020
   18  0.000  0.001  0.012  0.014
   19  0.012  0.000  0.021  0.033
   20  0.000  0.000  0.069  0.069
   21  0.016  0.001  0.021  0.039
   22  0.000  0.001  0.019  0.021
   23  0.017  0.001  0.020  0.038
   24  0.000  0.002  0.025  0.026
   25  0.000  0.001  0.022  0.023
   26  0.012  0.000  0.021  0.033
   27  0.000  0.001  0.019  0.021
   28  0.000  0.001  0.010  0.010
   29  0.000  0.000  0.004  0.005
   30  0.008  0.001  0.004  0.012
   31  0.000  0.000  0.004  0.005
   32  0.005  0.001  0.004  0.010
   33  0.008  0.001  0.004  0.012
   34  0.005  0.001  0.004  0.010
   35  0.000  0.000  0.004  0.004
   36  0.000  0.002  0.005  0.007
   37  0.000  0.000  0.000  0.000
   38  0.000  0.000  0.000  0.000
tot    0.155  0.031  0.565  0.750
 
band    17 # energy   -5.31319902 # occ.  2.00000000
 
ion      s      p      d    tot
    1  0.000  0.001  0.005  0.006
    2  0.009  0.001  0.004  0.015
    3  0.003  0.000  0.004  0.008
    4  0.009  0.001  0.004  0.015
    5  0.000  0.001  0.012  0.013
    6  0.002  0.001  0.005  0.008
    7  0.003  0.000  0.004  0.008
    8  0.002  0.001  0.005  0.008
    9  0.000  0.000  0.007  0.007
   10  0.013  0.002  0.006  0.022
   11  0.004  0.000  0.034  0.038
   12  0.003  0.001  0.046  0.050
   13  0.004  0.000  0.033  0.038
   14  0.016  0.001  0.015  0.032
   15  0.000  0.001  0.015  0.016
   16  0.003  0.001  0.047  0.051
   17  0.000  0.001  0.015  0.016
   18  0.000  0.001  0.022  0.023
   19  0.004  0.001  0.022  0.026
   20  0.022  0.002  0.005  0.028
   21  0.006  0.000  0.052  0.058
   22  0.000  0.001  0.023  0.024
   23  0.005  0.000  0.053  0.059
   24  0.001  0.001  0.017  0.019
   25  0.016  0.000  0.021  0.036
   26  0.004  0.001  0.022  0.027
   27  0.000  0.001  0.023  0.024
   28  0.000  0.001  0.010  0.010
   29  0.008  0.001  0.004  0.013
   30  0.001  0.001  0.004  0.006
   31  0.008  0.001  0.004  0.013
   32  0.004  0.001  0.003  0.008
   33  0.001  0.001  0.004  0.006
   34  0.004  0.001  0.003  0.008
   35  0.000  0.000  0.004  0.004
   36  0.000  0.002  0.005  0.007
   37  0.000  0.000  0.000  0.000
   38  0.000  0.000  0.000  0.000
tot    0.155  0.031  0.565  0.750
 
band    18 # energy   -5.31069698 # occ.  2.00000000
 
ion      s      p      d    tot
    1  0.015  0.002  0.002  0.018
    2  0.000  0.001  0.008  0.009
    3  0.000  0.001  0.008  0.009
    4  0.000  0.001  0.008  0.009
    5  0.000  0.000  0.002  0.002
    6  0.000  0.001  0.008  0.009
    7  0.000  0.001  0.008  0.009
    8  0.000  0.001  0.008  0.009
    9  0.015  0.001  0.000  0.017
   10  0.009  0.002  0.010  0.022
   11  0.003  0.000  0.039  0.042
   12  0.009  0.002  0.010  0.022
   13  0.003  0.000  0.039  0.042
   14  0.003  0.000  0.039  0.042
   15  0.002  0.001  0.028  0.031
   16  0.009  0.002  0.010  0.022
   17  0.002  0.001  0.028  0.031
   18  0.002  0.001  0.028  0.031
   19  0.005  0.001  0.015  0.021
   20  0.002  0.000  0.044  0.046
   21  0.002  0.000  0.044  0.046
   22  0.013  0.001  0.017  0.032
   23  0.002  0.000  0.044  0.046
   24  0.013  0.001  0.017  0.031
   25  0.005  0.001  0.015  0.021
   26  0.005  0.001  0.015  0.021
   27  0.013  0.001  0.017  0.032
   28  0.014  0.001  0.000  0.016
   29  0.000  0.001  0.007  0.007
   30  0.000  0.001  0.007  0.007
   31  0.000  0.001  0.007  0.007
   32  0.000  0.001  0.007  0.007
   33  0.000  0.001  0.007  0.007
   34  0.000  0.001  0.007  0.007
   35  0.011  0.001  0.002  0.014
   36  0.001  0.000  0.000  0.001
   37  0.000  0.000  0.000  0.000
   38  0.000  0.000  0.000  0.000
tot    0.159  0.032  0.555  0.746
 
band    19 # energy   -5.30326127 # occ.  2.00000000
 
ion      s      p      d    tot
    1  0.000  0.000  0.013  0.013
    2  0.000  0.000  0.005  0.006
    3  0.007  0.001  0.005  0.013
    4  0.000  0.000  0.005  0.006
    5  0.000  0.000  0.004  0.004
    6  0.009  0.001  0.004  0.014
    7  0.007  0.001  0.005  0.014
    8  0.009  0.001  0.004  0.014
    9  0.000  0.001  0.010  0.011
   10  0.006  0.000  0.024  0.029
   11  0.001  0.001  0.028  0.030
   12  0.001  0.001  0.019  0.022
   13  0.001  0.001  0.028  0.030
   14  0.004  0.002  0.014  0.019
   15  0.005  0.000  0.049  0.054
   16  0.001  0.001  0.019  0.021
   17  0.005  0.000  0.049  0.054
   18  0.019  0.002  0.007  0.028
   19  0.003  0.001  0.043  0.046
   20  0.003  0.000  0.023  0.026
   21  0.001  0.001  0.014  0.016
   22  0.006  0.000  0.039  0.046
   23  0.001  0.001  0.013  0.015
   24  0.025  0.001  0.011  0.038
   25  0.010  0.001  0.007  0.019
   26  0.003  0.001  0.042  0.046
   27  0.006  0.000  0.039  0.046
   28  0.000  0.000  0.004  0.004
   29  0.000  0.000  0.003  0.004
   30  0.007  0.001  0.003  0.010
   31  0.000  0.000  0.003  0.004
   32  0.005  0.001  0.004  0.010
   33  0.007  0.001  0.003  0.011
   34  0.005  0.001  0.004  0.010
   35  0.000  0.001  0.008  0.010
   36  0.000  0.000  0.004  0.004
   37  0.000  0.000  0.000  0.000
   38  0.000  0.000  0.000  0.000
tot    0.155  0.030  0.563  0.749
 
band    20 # energy   -5.30325222 # occ.  2.00000000
 
ion      s      p      d    tot
    1  0.000  0.000  0.013  0.013
    2  0.010  0.001  0.005  0.016
    3  0.004  0.001  0.005  0.009
    4  0.010  0.001  0.005  0.016
    5  0.000  0.000  0.004  0.004
    6  0.002  0.001  0.006  0.008
    7  0.003  0.001  0.005  0.009
    8  0.002  0.001  0.006  0.008
    9  0.000  0.001  0.010  0.011
   10  0.000  0.001  0.018  0.019
   11  0.003  0.001  0.018  0.023
   12  0.004  0.000  0.022  0.027
   13  0.003  0.001  0.019  0.023
   14  0.000  0.001  0.033  0.034
   15  0.014  0.001  0.021  0.037
   16  0.004  0.000  0.022  0.027
   17  0.014  0.001  0.022  0.037
   18  0.000  0.000  0.063  0.063
   19  0.008  0.001  0.019  0.028
   20  0.000  0.002  0.010  0.012
   21  0.002  0.000  0.020  0.023
   22  0.019  0.001  0.021  0.040
   23  0.002  0.000  0.020  0.023
   24  0.000  0.000  0.048  0.048
   25  0.000  0.001  0.054  0.055
   26  0.008  0.001  0.019  0.028
   27  0.019  0.001  0.021  0.040
   28  0.000  0.000  0.004  0.004
   29  0.007  0.001  0.004  0.013
   30  0.001  0.001  0.004  0.006
   31  0.008  0.001  0.004  0.013
   32  0.003  0.001  0.003  0.006
   33  0.001  0.001  0.004  0.006
   34  0.003  0.001  0.003  0.006
   35  0.000  0.001  0.009  0.010
   36  0.000  0.000  0.004  0.004
   37  0.000  0.000  0.000  0.000
   38  0.000  0.000  0.000  0.000
tot    0.155  0.030  0.563  0.749
 
band    21 # energy   -5.25680708 # occ.  2.00000000
 
ion      s      p      d    tot
    1  0.011  0.000  0.001  0.012
    2  0.000  0.001  0.009  0.010
    3  0.000  0.001  0.009  0.010
    4  0.000  0.001  0.009  0.010
    5  0.018  0.002  0.001  0.020
    6  0.000  0.001  0.009  0.010
    7  0.000  0.001  0.009  0.010
    8  0.000  0.001  0.009  0.010
    9  0.001  0.000  0.002  0.004
   10  0.000  0.000  0.043  0.044
   11  0.005  0.002  0.015  0.021
   12  0.000  0.000  0.043  0.044
   13  0.005  0.002  0.015  0.021
   14  0.005  0.002  0.015  0.021
   15  0.004  0.001  0.025  0.029
   16  0.000  0.000  0.043  0.044