 vasp.6.2.0 18Jan21 (build Jun 12 2021 23:27:24) complex                        
  
 executed on             LinuxIFC date 2022.05.28  01:09:22
 running on   28 total cores
 distrk:  each k-point on   28 cores,    1 groups
 distr:  one band on NCORE=   1 cores,   28 groups


--------------------------------------------------------------------------------------------------------


 INCAR:
   ISMEAR = -5
   SIGMA = 0.1
   ISPIN = 1
   EDIFF = 1.d-5
   EDIFFG = -0.01
   NSW = 0
   NELM = 150
   ENCUT = 500
   ISIF = 2
   IBRION = 2
   LREAL = Auto
   ALGO = Fast
   ICHARG = 11
   LORBIT = 10
   LCHARG = .F.
   LWAVE = .F.

 POTCAR:    PAW_PBE Au 04Oct2007                  
 POTCAR:    PAW_PBE Ta 17Jan2003                  
 POTCAR:    PAW_PBE O 08Apr2002                   
 POTCAR:    PAW_PBE H 15Jun2001                   
 -----------------------------------------------------------------------------
|                                                                             |
|           W    W    AA    RRRRR   N    N  II  N    N   GGGG   !!!           |
|           W    W   A  A   R    R  NN   N  II  NN   N  G    G  !!!           |
|           W    W  A    A  R    R  N N  N  II  N N  N  G       !!!           |
|           W WW W  AAAAAA  RRRRR   N  N N  II  N  N N  G  GGG   !            |
|           WW  WW  A    A  R   R   N   NN  II  N   NN  G    G                |
|           W    W  A    A  R    R  N    N  II  N    N   GGGG   !!!           |
|                                                                             |
|     For optimal performance we recommend to set                             |
|       NCORE = 2 up to number-of-cores-per-socket                            |
|     NCORE specifies how many cores store one orbital (NPAR=cpu/NCORE).      |
|     This setting can greatly improve the performance of VASP for DFT.       |
|     The default, NCORE=1 might be grossly inefficient on modern             |
|     multi-core architectures or massively parallel machines. Do your        |
|     own testing! More info at https://www.vasp.at/wiki/index.php/NCORE      |
|     Unfortunately you need to use the default for GW and RPA                |
|     calculations (for HF NCORE is supported but not extensively tested      |
|     yet).                                                                   |
|                                                                             |
 -----------------------------------------------------------------------------

 POTCAR:    PAW_PBE Au 04Oct2007                  
   VRHFIN =Au: s1d10                                                                                
   LEXCH  = PE                                                                                      
   EATOM  =   926.0867 eV,   68.0654 Ry                                                             
                                                                                                    
   TITEL  = PAW_PBE Au 04Oct2007                                                                    
   LULTRA =        F    use ultrasoft PP ?                                                          
   IUNSCR =        1    unscreen: 0-lin 1-nonlin 2-no                                               
   RPACOR =    2.330    partial core radius                                                         
   POMASS =  196.966; ZVAL   =   11.000    mass and valenz                                          
   RCORE  =    2.500    outmost cutoff radius                                                       
   RWIGS  =    2.840; RWIGS  =    1.503    wigner-seitz radius (au A)                               
   ENMAX  =  229.943; ENMIN  =  172.457 eV                                                          
   ICORE  =        3    local potential                                                             
   LCOR   =        T    correct aug charges                                                         
   LPAW   =        T    paw PP                                                                      
   EAUG   =  356.670                                                                                
   DEXC   =    0.000                                                                                
   RMAX   =    2.562    core radius for proj-oper                                                   
   RAUG   =    1.300    factor for augmentation sphere                                              
   RDEP   =    2.598    radius for radial grids                                                     
   RDEPT  =    2.193    core radius for aug-charge                                                  
                                                                                                    
   Atomic configuration                                                                             
   16 entries                                                                                       
     n  l   j            E        occ.                                                              
     1  0  0.50    -80748.5001   2.0000                                                             
     2  0  0.50    -14244.7466   2.0000                                                             
     2  1  1.50    -12310.9591   6.0000                                                             
     3  0  0.50     -3362.1768   2.0000                                                             
     3  1  1.50     -2801.5463   6.0000                                                             
     3  2  2.50     -2203.8206  10.0000                                                             
     4  0  0.50      -729.8168   2.0000                                                             
     4  1  1.50      -546.0527   6.0000                                                             
     4  2  2.50      -325.7302  10.0000                                                             
     4  3  3.50       -81.1472  14.0000                                                             
     5  0  0.50      -108.3201   2.0000                                                             
     5  1  1.50       -59.7479   6.0000                                                             
     5  2  2.50        -6.8783  10.0000                                                             
     6  0  0.50        -5.7602   1.0000                                                             
     6  1  1.50        -6.8029   0.0000                                                             
     5  3  2.50        -1.3606   0.0000                                                             
   Description                                                                                      
     l       E           TYP  RCUT    TYP  RCUT                                                     
     2     -6.8782861     23  2.500                                                                 
     2     -8.2388687     23  2.500                                                                 
     0     -5.7601759     23  2.500                                                                 
     0     -0.8493231     23  2.500                                                                 
     1     -2.7211652     23  2.500                                                                 
     1     27.2116520     23  2.500                                                                 
     3     -1.3605826     23  2.500                                                                 
  local pseudopotential read in
  partial core-charges read in
  partial kinetic energy density read in
  atomic valenz-charges read in
  non local Contribution for L=           2  read in
    real space projection operators read in
  non local Contribution for L=           2  read in
    real space projection operators read in
  non local Contribution for L=           0  read in
    real space projection operators read in
  non local Contribution for L=           0  read in
    real space projection operators read in
  non local Contribution for L=           1  read in
    real space projection operators read in
  non local Contribution for L=           1  read in
    real space projection operators read in
    PAW grid and wavefunctions read in
 
   number of l-projection  operators is LMAX  =           6
   number of lm-projection operators is LMMAX =          18
 
 POTCAR:    PAW_PBE Ta 17Jan2003                  
   VRHFIN =Ta:  6s5d                                                                                
   LEXCH  = PE                                                                                      
   EATOM  =   130.6506 eV,    9.6025 Ry                                                             
                                                                                                    
   TITEL  = PAW_PBE Ta 17Jan2003                                                                    
   LULTRA =        F    use ultrasoft PP ?                                                          
   IUNSCR =        1    unscreen: 0-lin 1-nonlin 2-no                                               
   RPACOR =    2.330    partial core radius                                                         
   POMASS =  180.948; ZVAL   =    5.000    mass and valenz                                          
   RCORE  =    2.900    outmost cutoff radius                                                       
   RWIGS  =    2.840; RWIGS  =    1.503    wigner-seitz radius (au A)                               
   ENMAX  =  223.667; ENMIN  =  167.750 eV                                                          
   RCLOC  =    2.205    cutoff for local pot                                                        
   LCOR   =        T    correct aug charges                                                         
   LPAW   =        T    paw PP                                                                      
   EAUG   =  332.075                                                                                
   DEXC   =    0.000                                                                                
   RMAX   =    2.970    core radius for proj-oper                                                   
   RAUG   =    1.300    factor for augmentation sphere                                              
   RDEP   =    3.060    radius for radial grids                                                     
   RDEPT  =    2.354    core radius for aug-charge                                                  
                                                                                                    
   Atomic configuration                                                                             
   16 entries                                                                                       
     n  l   j            E        occ.                                                              
     1  0  0.50    -67341.2807   2.0000                                                             
     2  0  0.50    -11566.9376   2.0000                                                             
     2  1  1.50    -10134.1182   6.0000                                                             
     3  0  0.50     -2648.5620   2.0000                                                             
     3  1  1.50     -2222.6012   6.0000                                                             
     3  2  2.50     -1726.3120  10.0000                                                             
     4  0  0.50      -538.6961   2.0000                                                             
     4  1  1.50      -399.0129   6.0000                                                             
     4  2  2.50      -220.3959  10.0000                                                             
     4  3  3.50       -23.0374  14.0000                                                             
     5  0  0.50       -71.2901   2.0000                                                             
     5  1  1.50       -37.8225   6.0000                                                             
     5  2  2.50        -2.6455   4.0000                                                             
     6  0  0.50        -4.9623   1.0000                                                             
     6  1  1.50        -1.3606   0.0000                                                             
     5  3  2.50        -1.3606   0.0000                                                             
   Description                                                                                      
     l       E           TYP  RCUT    TYP  RCUT                                                     
     2     -2.6455043     23  2.500                                                                 
     2     -0.6258895     23  2.500                                                                 
     0     -4.9622780     23  2.500                                                                 
     0      4.7531321     23  2.500                                                                 
     1     -1.3605826     23  2.900                                                                 
     1     27.2116520     23  2.900                                                                 
  local pseudopotential read in
  partial core-charges read in
  partial kinetic energy density read in
  atomic valenz-charges read in
  non local Contribution for L=           2  read in
    real space projection operators read in
  non local Contribution for L=           2  read in
    real space projection operators read in
  non local Contribution for L=           0  read in
    real space projection operators read in
  non local Contribution for L=           0  read in
    real space projection operators read in
  non local Contribution for L=           1  read in
    real space projection operators read in
  non local Contribution for L=           1  read in
    real space projection operators read in
    PAW grid and wavefunctions read in
 
   number of l-projection  operators is LMAX  =           6
   number of lm-projection operators is LMMAX =          18
 
 POTCAR:    PAW_PBE O 08Apr2002                   
   VRHFIN =O: s2p4                                                                                  
   LEXCH  = PE                                                                                      
   EATOM  =   432.3788 eV,   31.7789 Ry                                                             
                                                                                                    
   TITEL  = PAW_PBE O 08Apr2002                                                                     
   LULTRA =        F    use ultrasoft PP ?                                                          
   IUNSCR =        1    unscreen: 0-lin 1-nonlin 2-no                                               
   RPACOR =    1.200    partial core radius                                                         
   POMASS =   16.000; ZVAL   =    6.000    mass and valenz                                          
   RCORE  =    1.520    outmost cutoff radius                                                       
   RWIGS  =    1.550; RWIGS  =    0.820    wigner-seitz radius (au A)                               
   ENMAX  =  400.000; ENMIN  =  300.000 eV                                                          
   ICORE  =        2    local potential                                                             
   LCOR   =        T    correct aug charges                                                         
   LPAW   =        T    paw PP                                                                      
   EAUG   =  605.392                                                                                
   DEXC   =    0.000                                                                                
   RMAX   =    1.553    core radius for proj-oper                                                   
   RAUG   =    1.300    factor for augmentation sphere                                              
   RDEP   =    1.550    radius for radial grids                                                     
   RDEPT  =    1.329    core radius for aug-charge                                                  
                                                                                                    
   Atomic configuration                                                                             
    4 entries                                                                                       
     n  l   j            E        occ.                                                              
     1  0  0.50      -514.6923   2.0000                                                             
     2  0  0.50       -23.9615   2.0000                                                             
     2  1  0.50        -9.0305   4.0000                                                             
     3  2  1.50        -9.5241   0.0000                                                             
   Description                                                                                      
     l       E           TYP  RCUT    TYP  RCUT                                                     
     0    -23.9615318     23  1.200                                                                 
     0     -9.5240782     23  1.200                                                                 
     1     -9.0304911     23  1.520                                                                 
     1      8.1634956     23  1.520                                                                 
     2     -9.5240782      7  1.500                                                                 
  local pseudopotential read in
  partial core-charges read in
  partial kinetic energy density read in
  kinetic energy density of atom read in
  atomic valenz-charges read in
  non local Contribution for L=           0  read in
    real space projection operators read in
  non local Contribution for L=           0  read in
    real space projection operators read in
  non local Contribution for L=           1  read in
    real space projection operators read in
  non local Contribution for L=           1  read in
    real space projection operators read in
    PAW grid and wavefunctions read in
 
   number of l-projection  operators is LMAX  =           4
   number of lm-projection operators is LMMAX =           8
 
 POTCAR:    PAW_PBE H 15Jun2001                   
   VRHFIN =H: ultrasoft test                                                                        
   LEXCH  = PE                                                                                      
   EATOM  =    12.4884 eV,    0.9179 Ry                                                             
                                                                                                    
   TITEL  = PAW_PBE H 15Jun2001                                                                     
   LULTRA =        F    use ultrasoft PP ?                                                          
   IUNSCR =        0    unscreen: 0-lin 1-nonlin 2-no                                               
   RPACOR =    0.000    partial core radius                                                         
   POMASS =    1.000; ZVAL   =    1.000    mass and valenz                                          
   RCORE  =    1.100    outmost cutoff radius                                                       
   RWIGS  =    0.700; RWIGS  =    0.370    wigner-seitz radius (au A)                               
   ENMAX  =  250.000; ENMIN  =  200.000 eV                                                          
   RCLOC  =    0.701    cutoff for local pot                                                        
   LCOR   =        T    correct aug charges                                                         
   LPAW   =        T    paw PP                                                                      
   EAUG   =  400.000                                                                                
   RMAX   =    1.123    core radius for proj-oper                                                   
   RAUG   =    1.200    factor for augmentation sphere                                              
   RDEP   =    1.112    radius for radial grids                                                     
   RDEPT  =    0.926    core radius for aug-charge                                                  
                                                                                                    
   Atomic configuration                                                                             
    2 entries                                                                                       
     n  l   j            E        occ.                                                              
     1  0  0.50        -6.4927   1.0000                                                             
     2  1  0.50        -3.4015   0.0000                                                             
   Description                                                                                      
     l       E           TYP  RCUT    TYP  RCUT                                                     
     0     -6.4927494     23  1.100                                                                 
     0      6.8029130     23  1.100                                                                 
     1     -4.0817478     23  1.100                                                                 
  local pseudopotential read in
  atomic valenz-charges read in
  non local Contribution for L=           0  read in
    real space projection operators read in
  non local Contribution for L=           0  read in
    real space projection operators read in
  non local Contribution for L=           1  read in
    real space projection operators read in
    PAW grid and wavefunctions read in
 
   number of l-projection  operators is LMAX  =           3
   number of lm-projection operators is LMMAX =           5
 
 Optimization of the real space projectors (new method)

 maximal supplied QI-value         = 15.12
 optimisation between [QCUT,QGAM] = [ 11.34, 22.83] = [ 36.00,145.93] Ry 
 Optimized for a Real-space Cutoff    1.39 Angstroem

   l    n(q)    QCUT    max X(q) W(low)/X(q) W(high)/X(q)  e(spline) 
   2      9    11.338    60.898    0.39E-03    0.42E-03    0.21E-06
   2      9    11.338    58.894    0.40E-03    0.42E-03    0.22E-06
   0      9    11.338   109.617    0.13E-03    0.20E-04    0.13E-06
   0      9    11.338    75.026    0.13E-03    0.20E-04    0.13E-06
   1      9    11.338    16.344    0.33E-04    0.24E-03    0.18E-06
   1      9    11.338    10.160    0.26E-04    0.19E-03    0.15E-06
 Optimization of the real space projectors (new method)

 maximal supplied QI-value         = 12.85
 optimisation between [QCUT,QGAM] = [ 11.44, 22.87] = [ 36.63,146.51] Ry 
 Optimized for a Real-space Cutoff    1.61 Angstroem

   l    n(q)    QCUT    max X(q) W(low)/X(q) W(high)/X(q)  e(spline) 
   2     10    11.437    62.315    0.14E-03    0.26E-03    0.80E-06
   2     10    11.437    52.185    0.14E-03    0.26E-03    0.80E-06
   0     11    11.437   103.837    0.25E-04    0.17E-04    0.84E-07
   0     11    11.437    59.728    0.20E-04    0.15E-04    0.73E-07
   1     11    11.437    13.958    0.47E-03    0.12E-03    0.89E-06
   1     11    11.437     8.441    0.33E-03    0.88E-04    0.61E-06
 Optimization of the real space projectors (new method)

 maximal supplied QI-value         = 24.76
 optimisation between [QCUT,QGAM] = [ 11.39, 22.77] = [ 36.31,145.25] Ry 
 Optimized for a Real-space Cutoff    1.00 Angstroem

   l    n(q)    QCUT    max X(q) W(low)/X(q) W(high)/X(q)  e(spline) 
   0      7    11.387    20.381    0.39E-03    0.13E-02    0.15E-06
   0      7    11.387    15.268    0.42E-03    0.14E-02    0.17E-06
   1      6    11.387     5.964    0.41E-03    0.11E-02    0.17E-06
   1      6    11.387     5.382    0.39E-03    0.87E-03    0.15E-06
 Optimization of the real space projectors (new method)

 maximal supplied QI-value         = 34.20
 optimisation between [QCUT,QGAM] = [ 11.29, 22.57] = [ 35.68,142.71] Ry 
 Optimized for a Real-space Cutoff    1.16 Angstroem

   l    n(q)    QCUT    max X(q) W(low)/X(q) W(high)/X(q)  e(spline) 
   0      8    11.287    19.460    0.40E-03    0.73E-03    0.16E-06
   0      8    11.287    12.209    0.38E-03    0.70E-03    0.15E-06
   1      7    11.287     4.655    0.22E-03    0.25E-04    0.22E-06
  PAW_PBE Au 04Oct2007                  :
 energy of atom  1       EATOM= -926.0867
 kinetic energy error for atom=    0.0042 (will be added to EATOM!!)
  PAW_PBE Ta 17Jan2003                  :
 energy of atom  2       EATOM= -130.6506
 kinetic energy error for atom=    0.0012 (will be added to EATOM!!)
  PAW_PBE O 08Apr2002                   :
 energy of atom  3       EATOM= -432.3788
 kinetic energy error for atom=    0.0224 (will be added to EATOM!!)
  PAW_PBE H 15Jun2001                   :
 energy of atom  4       EATOM=  -12.4884
 kinetic energy error for atom=    0.0020 (will be added to EATOM!!)
 
 
 POSCAR: Au-Ta-OOH
  positions in direct lattice
  velocities in cartesian coordinates
 exchange correlation table for  LEXCH =        8
   RHO(1)=    0.500       N(1)  =     2000
   RHO(2)=  100.500       N(2)  =     4000

 VTST: version 3.2, (02/03/18)

 CHAIN: initializing optimizer
 
 OPT: Using VASP Conjugate-Gradient optimizer
 CHAIN: Read ICHAIN            0
 
 POSCAR: Au-Ta-OOH
  positions in direct lattice
  velocities in cartesian coordinates
 


--------------------------------------------------------------------------------------------------------


 ion  position               nearest neighbor table
   1  0.000  0.000  0.204-  16 2.94  12 2.94   6 2.94   8 2.94   7 2.94   3 2.94  10 2.94   4 2.94
                             2 2.94
   2  0.333  0.000  0.204-   9 2.94  11 2.94  17 2.94  10 2.94   8 2.94   4 2.94   5 2.94   1 2.94
                             3 2.94
   3  0.667  0.000  0.204-   7 2.94  18 2.94  12 2.94   1 2.94  11 2.94   5 2.94   6 2.94   9 2.94
                             2 2.94
   4  0.000  0.333  0.204-  10 2.94   6 2.94   5 2.94  13 2.94   2 2.94  15 2.94   9 2.94   1 2.94
                             7 2.94
   5  0.333  0.333  0.204-  13 2.94   7 2.94  11 2.94   4 2.94   2 2.94  14 2.94   3 2.94   8 2.94
                             6 2.94
   6  0.667  0.333  0.204-  15 2.94  14 2.94   1 2.94  12 2.94   4 2.94   9 2.94   8 2.94   3 2.94
                             5 2.94
   7  0.000  0.667  0.204-  18 2.94   3 2.94  16 2.94   5 2.94   1 2.94  13 2.94   8 2.94   4 2.94
                             9 2.94
   8  0.333  0.667  0.204-   9 2.94  17 2.94   1 2.94   2 2.94  14 2.94  16 2.94   6 2.94   7 2.94
                             5 2.94
   9  0.667  0.667  0.204-   2 2.94   8 2.94  17 2.94   6 2.94  15 2.94   4 2.94   3 2.94  18 2.94
                             7 2.94
  10  0.111  0.111  0.296-  20 2.91  11 2.94  17 2.94   2 2.94   4 2.94   1 2.94  12 2.94  16 2.94
                            13 2.94  15 2.94  26 2.96  19 2.96
  11  0.444  0.111  0.296-  20 2.91  21 2.91  13 2.94   2 2.94  10 2.94  17 2.94   5 2.94   3 2.94
                            18 2.94  14 2.94  12 2.94  27 2.94
  12  0.778  0.111  0.296-  21 2.91  16 2.94  18 2.94   1 2.94  14 2.94  15 2.94   3 2.94   6 2.94
                            10 2.94  11 2.94  25 2.96  19 2.96
  13  0.111  0.444  0.296-  23 2.91  20 2.91   5 2.94  18 2.94  11 2.94   7 2.94   4 2.94  16 2.94
                            10 2.94  14 2.94  15 2.94  22 2.94
  14  0.444  0.444  0.296-  21 2.91  23 2.91  15 2.94   6 2.94  12 2.94   8 2.94  17 2.94   5 2.94
                            16 2.94  13 2.94  11 2.94  24 2.94
  15  0.778  0.444  0.296-  24 2.92  22 2.92  14 2.94   6 2.94  17 2.94  12 2.94   9 2.94   4 2.94
                            10 2.94  13 2.94  18 2.94  19 2.95
  16  0.111  0.778  0.296-  23 2.91  18 2.94  12 2.94   7 2.94   1 2.94   8 2.94  13 2.94  10 2.94
                            14 2.94  17 2.94  25 2.96  26 2.96
  17  0.444  0.778  0.296-  27 2.92  24 2.92   9 2.94  15 2.94   2 2.94  10 2.94  11 2.94   8 2.94
                            14 2.94  16 2.94  18 2.94  26 2.95
  18  0.778  0.778  0.296-  22 2.92  27 2.92  16 2.94   7 2.94  13 2.94  12 2.94   3 2.94  11 2.94
                             9 2.94  15 2.94  17 2.94  25 2.95
  19  0.888  0.223  0.390-  24 2.93  22 2.93  21 2.93  20 2.93  28 2.95  15 2.95  26 2.95  25 2.95
                            10 2.96  12 2.96  32 3.06  31 3.06
  20  0.222  0.222  0.388-  36 2.74  10 2.91  11 2.91  13 2.91  26 2.93  19 2.93  23 2.95  21 2.95
                            27 2.95  22 2.95  29 2.99  31 2.99
  21  0.556  0.222  0.388-  36 2.74  12 2.91  14 2.91  11 2.91  25 2.93  19 2.93  20 2.95  23 2.95
                            27 2.95  24 2.95  30 2.99  32 2.99
  22  0.886  0.557  0.388-  24 2.91  27 2.91  18 2.92  15 2.92  25 2.93  19 2.93  13 2.94  23 2.95
                            20 2.95  35 2.96  33 3.03  31 3.03
  23  0.222  0.556  0.388-  36 2.74  16 2.91  13 2.91  14 2.91  25 2.93  26 2.93  20 2.95  21 2.95
                            22 2.95  24 2.95  33 2.99  34 2.99
  24  0.557  0.557  0.388-  27 2.91  22 2.91  15 2.92  17 2.92  26 2.93  19 2.93  14 2.94  21 2.95
                            23 2.95  35 2.96  32 3.03  34 3.03
  25  0.888  0.888  0.390-  22 2.93  27 2.93  23 2.93  21 2.93  28 2.95  18 2.95  19 2.95  26 2.95
                            16 2.96  12 2.96  33 3.06  30 3.06
  26  0.223  0.888  0.390-  27 2.93  24 2.93  20 2.93  23 2.93  28 2.95  17 2.95  19 2.95  25 2.95
                            10 2.96  16 2.96  29 3.06  34 3.06
  27  0.557  0.886  0.388-  24 2.91  22 2.91  17 2.92  18 2.92  26 2.93  25 2.93  11 2.94  20 2.95
                            21 2.95  35 2.96  29 3.03  30 3.03
  28  0.000  0.000  0.482-  25 2.95  19 2.95  26 2.95  34 3.00  32 3.00  33 3.00  30 3.00  31 3.00
                            29 3.00
  29  0.334  0.012  0.485-  30 2.82  31 2.84  36 2.85  35 2.99  20 2.99  28 3.00  27 3.03  26 3.06
                            34 3.16
  30  0.654  0.012  0.485-  29 2.82  32 2.84  36 2.85  35 2.99  21 2.99  28 3.00  27 3.03  25 3.06
                            33 3.16
  31  0.012  0.334  0.485-  33 2.82  29 2.84  36 2.85  35 2.99  20 2.99  28 3.00  22 3.03  19 3.06
                            32 3.16
  32  0.654  0.334  0.485-  34 2.82  30 2.84  36 2.85  35 2.99  21 2.99  28 3.00  24 3.03  19 3.06
                            31 3.16
  33  0.012  0.654  0.485-  31 2.82  34 2.84  36 2.85  35 2.99  23 2.99  28 3.00  22 3.03  25 3.06
                            30 3.16
  34  0.334  0.654  0.485-  32 2.82  33 2.84  36 2.85  35 2.99  23 2.99  28 3.00  24 3.03  26 3.06
                            29 3.16
  35  0.667  0.667  0.482-  24 2.96  27 2.96  22 2.96  29 2.99  34 2.99  32 2.99  31 2.99  30 2.99
                            33 2.99
  36  0.333  0.333  0.471-  37 1.94  20 2.74  23 2.74  21 2.74  33 2.85  31 2.85  29 2.85  30 2.85
                            34 2.85  32 2.85
  37  0.342  0.346  0.545-  38 1.48  36 1.94
  38  0.372  0.206  0.582-  39 0.98  37 1.48
  39  0.364  0.269  0.615-  38 0.98
 
  LATTYP: Found a hexagonal cell.
 ALAT       =     8.8135128021
 C/A-ratio  =     2.9412617888
  
  Lattice vectors:
  
 A1 = (  -4.4067569092,  -7.6327256898,   0.0000000000)
 A2 = (   8.8135128021,   0.0000000000,   0.0000000000)
 A3 = (   0.0000000000,   0.0000000000,  25.9228484302)


Analysis of symmetry for initial positions (statically):
=====================================================================
 Subroutine PRICEL returns:
 Original cell was already a primitive cell.
 

 Routine SETGRP: Setting up the symmetry group for a 
 hexagonal supercell.


 Subroutine GETGRP returns: Found  1 space group operations
 (whereof  1 operations were pure point group operations)
 out of a pool of 24 trial point group operations.


The static configuration has the point symmetry C_1 .


Analysis of symmetry for dynamics (positions and initial velocities):
=====================================================================
 Subroutine PRICEL returns:
 Original cell was already a primitive cell.
 

 Routine SETGRP: Setting up the symmetry group for a 
 hexagonal supercell.


 Subroutine GETGRP returns: Found  1 space group operations
 (whereof  1 operations were pure point group operations)
 out of a pool of 24 trial point group operations.


The dynamic configuration has the point symmetry C_1 .


Analysis of constrained symmetry for selective dynamics:
=====================================================================
 Subroutine PRICEL returns:
 Original cell was already a primitive cell.
 

 Routine SETGRP: Setting up the symmetry group for a 
 hexagonal supercell.


 Subroutine GETGRP returns: Found  1 space group operations
 (whereof  1 operations were pure point group operations)
 out of a pool of 24 trial point group operations.


The constrained configuration has the point symmetry C_1 .


 Subroutine INISYM returns: Found  1 space group operations
 (whereof  1 operations are pure point group operations),
 and found     1 'primitive' translations


----------------------------------------------------------------------------------------

                                     Primitive cell                                     

  volume of cell :    1743.8592

  direct lattice vectors                    reciprocal lattice vectors
     8.813512802  0.000000000  0.000000000     0.113462137 -0.065507406  0.000000000
     4.406756909  7.632725690  0.000000000     0.000000000  0.131014796  0.000000000
     0.000000000  0.000000000 25.922848430     0.000000000  0.000000000  0.038576008

  length of vectors
     8.813512802  8.813512802 25.922848430     0.131014796  0.131014796  0.038576008

  position of ions in fractional coordinates (direct lattice)
     0.000000000  0.000000000  0.203695977
     0.333333343  0.000000000  0.203695977
     0.666666687  0.000000000  0.203695977
     1.000000000  0.333333343  0.203695977
     0.333333313  0.333333343  0.203695977
     0.666666687  0.333333343  0.203695977
     1.000000000  0.666666687  0.203695977
     0.333333343  0.666666687  0.203695977
     0.666666627  0.666666687  0.203695977
     0.111111119  0.111111112  0.296229562
     0.444444418  0.111111112  0.296229562
     0.777777791  0.111111112  0.296229562
     0.111111127  0.444444448  0.296229562
     0.444444478  0.444444448  0.296229562
     0.777777731  0.444444448  0.296229562
     0.111111090  0.777777791  0.296229562
     0.444444448  0.777777791  0.296229562
     0.777777851  0.777777791  0.296229562
     0.888414265  0.223171486  0.389542003
     0.221838703  0.221838688  0.387582339
     0.556322654  0.221838688  0.387582339
     0.886428238  0.556785911  0.388400377
     0.221838658  0.556322654  0.387582339
     0.556785911  0.556785911  0.388400377
     0.888414265  0.888414265  0.389542003
     0.223171516  0.888414265  0.389542003
     0.556785851  0.886428238  0.388400377
     0.000000000  0.000000000  0.482220866
     0.334249517  0.011962823  0.485147234
     0.653787689  0.011962823  0.485147234
     0.011962823  0.334249517  0.485147234
     0.653787689  0.334249517  0.485147234
     0.011962823  0.653787689  0.485147234
     0.334249517  0.653787689  0.485147234
     0.666666627  0.666666687  0.482472685
     0.333333313  0.333333343  0.470649640
     0.341513738  0.345696729  0.545334451
     0.372187110  0.206326963  0.582496771
     0.363915008  0.269147051  0.614650064

  ion indices of the primitive-cell ions
   primitive index   ion index
                 1           1
                 2           2
                 3           3
                 4           4
                 5           5
                 6           6
                 7           7
                 8           8
                 9           9
                10          10
                11          11
                12          12
                13          13
                14          14
                15          15
                16          16
                17          17
                18          18
                19          19
                20          20
                21          21
                22          22
                23          23
                24          24
                25          25
                26          26
                27          27
                28          28
                29          29
                30          30
                31          31
                32          32
                33          33
                34          34
                35          35
                36          36
                37          37
                38          38
                39          39

----------------------------------------------------------------------------------------

 
 
 KPOINTS: Automatic mesh                          

Automatic generation of k-mesh.
 Grid dimensions read from file:
 generate k-points for:    8    8    1

 Generating k-lattice:

  Cartesian coordinates                     Fractional coordinates (reciprocal lattice)
     0.014182767 -0.008188426  0.000000000     0.125000000 -0.000000000  0.000000000
     0.000000000  0.016376850  0.000000000     0.000000000  0.125000000  0.000000000
     0.000000000  0.000000000  0.038576008     0.000000000  0.000000000  1.000000000

  Length of vectors
     0.016376850  0.016376850  0.038576008

  Shift w.r.t. Gamma in fractional coordinates (k-lattice)
     0.000000000  0.000000000  0.000000000

 TETIRR: Found    192 inequivalent tetrahedra from      384
 
 Subroutine IBZKPT returns following result:
 ===========================================
 
 Found     34 irreducible k-points:
 
 Following reciprocal coordinates:
            Coordinates               Weight
  0.000000  0.000000  0.000000      1.000000
  0.125000  0.000000  0.000000      2.000000
  0.125000  0.125000  0.000000      2.000000
  0.000000  0.125000  0.000000      2.000000
  0.250000  0.000000  0.000000      2.000000
  0.250000  0.250000  0.000000      2.000000
  0.000000  0.250000  0.000000      2.000000
  0.375000 -0.000000  0.000000      2.000000
  0.375000  0.375000  0.000000      2.000000
  0.000000  0.375000  0.000000      2.000000
  0.500000  0.000000  0.000000      1.000000
  0.500000  0.500000  0.000000      1.000000
  0.000000  0.500000  0.000000      1.000000
  0.250000  0.125000  0.000000      2.000000
  0.125000  0.250000  0.000000      2.000000
 -0.125000  0.125000  0.000000      2.000000
  0.375000  0.125000  0.000000      2.000000
  0.250000  0.375000  0.000000      2.000000
 -0.125000  0.250000  0.000000      2.000000
  0.250000 -0.125000  0.000000      2.000000
 -0.125000 -0.375000  0.000000      2.000000
 -0.375000 -0.250000  0.000000      2.000000
  0.500000  0.125000  0.000000      2.000000
  0.375000  0.500000  0.000000      2.000000
 -0.125000  0.375000  0.000000      2.000000
  0.375000 -0.125000  0.000000      2.000000
 -0.125000  0.500000  0.000000      2.000000
  0.500000 -0.375000  0.000000      2.000000
  0.500000  0.250000  0.000000      2.000000
  0.250000  0.500000  0.000000      2.000000
 -0.250000  0.250000  0.000000      2.000000
 -0.375000  0.250000  0.000000      2.000000
  0.375000 -0.375000  0.000000      2.000000
 -0.250000  0.375000  0.000000      2.000000
 
 Following cartesian coordinates:
            Coordinates               Weight
  0.000000  0.000000  0.000000      1.000000
  0.014183 -0.008188  0.000000      2.000000
  0.014183  0.008188  0.000000      2.000000
  0.000000  0.016377  0.000000      2.000000
  0.028366 -0.016377  0.000000      2.000000
  0.028366  0.016377  0.000000      2.000000
  0.000000  0.032754  0.000000      2.000000
  0.042548 -0.024565  0.000000      2.000000
  0.042548  0.024565  0.000000      2.000000
  0.000000  0.049131  0.000000      2.000000
  0.056731 -0.032754  0.000000      1.000000
  0.056731  0.032754  0.000000      1.000000
  0.000000  0.065507  0.000000      1.000000
  0.028366 -0.000000  0.000000      2.000000
  0.014183  0.024565  0.000000      2.000000
 -0.014183  0.024565  0.000000      2.000000
  0.042548 -0.008188  0.000000      2.000000
  0.028366  0.032754  0.000000      2.000000
 -0.014183  0.040942  0.000000      2.000000
  0.028366 -0.032754  0.000000      2.000000
 -0.014183 -0.040942  0.000000      2.000000
 -0.042548 -0.008188  0.000000      2.000000
  0.056731 -0.016377  0.000000      2.000000
  0.042548  0.040942  0.000000      2.000000
 -0.014183  0.057319  0.000000      2.000000
  0.042548 -0.040942  0.000000      2.000000
 -0.014183  0.073696  0.000000      2.000000
  0.056731 -0.081884  0.000000      2.000000
  0.056731 -0.000000  0.000000      2.000000
  0.028366  0.049131  0.000000      2.000000
 -0.028366  0.049131  0.000000      2.000000
 -0.042548  0.057319  0.000000      2.000000
  0.042548 -0.073696  0.000000      2.000000
 -0.028366  0.065507  0.000000      2.000000
 


--------------------------------------------------------------------------------------------------------




 Dimension of arrays:
   k-points           NKPTS =     34   k-points in BZ     NKDIM =     34   number of bands    NBANDS=    252
   number of dos      NEDOS =    301   number of ions     NIONS =     39
   non local maximal  LDIM  =      6   non local SUM 2l+1 LMDIM =     18
   total plane-waves  NPLWV = 331776
   max r-space proj   IRMAX =   3382   max aug-charges    IRDMAX=  13149
   dimension x,y,z NGX =    48 NGY =   48 NGZ =  144
   dimension x,y,z NGXF=    96 NGYF=   96 NGZF=  288
   support grid    NGXF=    96 NGYF=   96 NGZF=  288
   ions per type =              35   1   2   1
   NGX,Y,Z   is equivalent  to a cutoff of   9.05,  9.05,  9.23 a.u.
   NGXF,Y,Z  is equivalent  to a cutoff of  18.11, 18.11, 18.47 a.u.

 SYSTEM =  unknown system                          
 POSCAR =  Au-Ta-OOH                               

 Startparameter for this run:
   NWRITE =      2    write-flag & timer
   PREC   = normal    normal or accurate (medium, high low for compatibility)
   ISTART =      0    job   : 0-new  1-cont  2-samecut
   ICHARG =     11    charge: 1-file 2-atom 10-const
   ISPIN  =      1    spin polarized calculation?
   LNONCOLLINEAR =      F non collinear calculations
   LSORBIT =      F    spin-orbit coupling
   INIWAV =      1    electr: 0-lowe 1-rand  2-diag
   LASPH  =      F    aspherical Exc in radial PAW
   METAGGA=      F    non-selfconsistent MetaGGA calc.

 Electronic Relaxation 1
   ENCUT  =  500.0 eV  36.75 Ry    6.06 a.u.  16.07 16.07 47.26*2*pi/ulx,y,z
   ENINI  =  500.0     initial cutoff
   ENAUG  =  605.4 eV  augmentation charge cutoff
   NELM   =    150;   NELMIN=  2; NELMDL= -5     # of ELM steps 
   EDIFF  = 0.1E-04   stopping-criterion for ELM
   LREAL  =      T    real-space projection
   NLSPLINE    = F    spline interpolate recip. space projectors
   LCOMPAT=      F    compatible to vasp.4.4
   GGA_COMPAT  = T    GGA compatible to vasp.4.4-vasp.4.6
   LMAXPAW     = -100 max onsite density
   LMAXMIX     =    2 max onsite mixed and CHGCAR
   VOSKOWN=      0    Vosko Wilk Nusair interpolation
   ROPT   =   -0.00050  -0.00050  -0.00050  -0.00050
 Ionic relaxation
   EDIFFG = -.1E-01   stopping-criterion for IOM
   NSW    =      0    number of steps for IOM
   NBLOCK =      1;   KBLOCK =      1    inner block; outer block 
   IBRION =     -1    ionic relax: 0-MD 1-quasi-New 2-CG
   NFREE  =      1    steps in history (QN), initial steepest desc. (CG)
   ISIF   =      2    stress and relaxation
   IWAVPR =     10    prediction:  0-non 1-charg 2-wave 3-comb
   ISYM   =      2    0-nonsym 1-usesym 2-fastsym
   LCORR  =      T    Harris-Foulkes like correction to forces

   POTIM  = 0.5000    time-step for ionic-motion
   TEIN   =    0.0    initial temperature
   TEBEG  =    0.0;   TEEND  =   0.0 temperature during run
   SMASS  =  -3.00    Nose mass-parameter (am)
   estimated Nose-frequenzy (Omega)   =  0.10E-29 period in steps = 0.13E+47 mass=  -0.178E-26a.u.
   SCALEE = 1.0000    scale energy and forces
   NPACO  =    256;   APACO  = 16.0  distance and # of slots for P.C.
   PSTRESS=    0.0 pullay stress

  Mass of Ions in am
   POMASS = 196.97180.95 16.00  1.00
  Ionic Valenz
   ZVAL   =  11.00  5.00  6.00  1.00
  Atomic Wigner-Seitz radii
   RWIGS  =  -1.00 -1.00 -1.00 -1.00
  virtual crystal weights 
   VCA    =   1.00  1.00  1.00  1.00
   NELECT =     403.0000    total number of electrons
   NUPDOWN=      -1.0000    fix difference up-down

 DOS related values:
   EMIN   =  10.00;   EMAX   =-10.00  energy-range for DOS
   EFERMI =   0.00
   ISMEAR =    -5;   SIGMA  =   0.10  broadening in eV -4-tet -1-fermi 0-gaus

 Electronic relaxation 2 (details)
   IALGO  =     68    algorithm
   LDIAG  =      T    sub-space diagonalisation (order eigenvalues)
   LSUBROT=      F    optimize rotation matrix (better conditioning)
   TURBO    =      0    0=normal 1=particle mesh
   IRESTART =      0    0=no restart 2=restart with 2 vectors
   NREBOOT  =      0    no. of reboots
   NMIN     =      0    reboot dimension
   EREF     =   0.00    reference energy to select bands
   IMIX   =      4    mixing-type and parameters
     AMIX     =   0.40;   BMIX     =  1.00
     AMIX_MAG =   1.60;   BMIX_MAG =  1.00
     AMIN     =   0.10
     WC   =   100.;   INIMIX=   1;  MIXPRE=   1;  MAXMIX= -45

 Intra band minimization:
   WEIMIN = 0.0000     energy-eigenvalue tresh-hold
   EBREAK =  0.99E-08  absolut break condition
   DEPER  =   0.30     relativ break condition  

   TIME   =   0.40     timestep for ELM

  volume/ion in A,a.u.               =      44.71       301.75
  Fermi-wavevector in a.u.,A,eV,Ry     =   1.004630  1.898475 13.732101  1.009281
  Thomas-Fermi vector in A             =   2.137258
 
 Write flags
   LWAVE        =      F    write WAVECAR
   LDOWNSAMPLE  =      F    k-point downsampling of WAVECAR
   LCHARG       =      F    write CHGCAR
   LVTOT        =      F    write LOCPOT, total local potential
   LVHAR        =      F    write LOCPOT, Hartree potential only
   LELF         =      F    write electronic localiz. function (ELF)
   LORBIT       =     10    0 simple, 1 ext, 2 COOP (PROOUT), +10 PAW based schemes


 Dipole corrections
   LMONO  =      F    monopole corrections only (constant potential shift)
   LDIPOL =      F    correct potential (dipole corrections)
   IDIPOL =      0    1-x, 2-y, 3-z, 4-all directions 
   EPSILON=  1.0000000 bulk dielectric constant

 Exchange correlation treatment:
   GGA     =    --    GGA type
   LEXCH   =     8    internal setting for exchange type
   VOSKOWN=      0    Vosko Wilk Nusair interpolation
   LHFCALC =     F    Hartree Fock is set to
   LHFONE  =     F    Hartree Fock one center treatment
   AEXX    =    0.0000 exact exchange contribution

 Linear response parameters
   LEPSILON=     F    determine dielectric tensor
   LRPA    =     F    only Hartree local field effects (RPA)
   LNABLA  =     F    use nabla operator in PAW spheres
   LVEL    =     F    velocity operator in full k-point grid
   LINTERFAST=   F  fast interpolation
   KINTER  =     0    interpolate to denser k-point grid
   CSHIFT  =0.1000    complex shift for real part using Kramers Kronig
   OMEGAMAX=  -1.0    maximum frequency
   DEG_THRESHOLD= 0.2000000E-02 threshold for treating states as degnerate
   RTIME   =   -0.100 relaxation time in fs
  (WPLASMAI=    0.000 imaginary part of plasma frequency in eV, 0.658/RTIME)
   DFIELD  = 0.0000000 0.0000000 0.0000000 field for delta impulse in time
 
 Orbital magnetization related:
   ORBITALMAG=     F  switch on orbital magnetization
   LCHIMAG   =     F  perturbation theory with respect to B field
   DQ        =  0.001000  dq finite difference perturbation B field
   LLRAUG    =     F  two centre corrections for induced B field



--------------------------------------------------------------------------------------------------------


 Static calculation
 charge density and potential remain constant during run
 non-spin polarized calculation
 RMM-DIIS sequential band-by-band and
  variant of blocked Davidson during initial phase
 perform sub-space diagonalisation
    before iterative eigenvector-optimisation
 no mixing
 using additional bands           50
 real space projection scheme for non local part
 use partial core corrections
 calculate Harris-corrections to forces 
   (improved forces if not selfconsistent)
 use gradient corrections 
 WARNING: stress and forces are not correct
  (second derivative of E(xc) not defined)
 use of overlap-Matrix (Vanderbilt PP)
 Fermi weights with tetrahedron method with Bloechl corrections


--------------------------------------------------------------------------------------------------------


  energy-cutoff  :      500.00
  volume of cell :     1743.86
      direct lattice vectors                 reciprocal lattice vectors
     8.813512802  0.000000000  0.000000000     0.113462137 -0.065507406  0.000000000
     4.406756909  7.632725690  0.000000000     0.000000000  0.131014796  0.000000000
     0.000000000  0.000000000 25.922848430     0.000000000  0.000000000  0.038576008

  length of vectors
     8.813512802  8.813512802 25.922848430     0.131014796  0.131014796  0.038576008


 
 k-points in units of 2pi/SCALE and weight: Automatic mesh                          
   0.00000000  0.00000000  0.00000000       0.016
   0.01418277 -0.00818843  0.00000000       0.031
   0.01418277  0.00818842  0.00000000       0.031
   0.00000000  0.01637685  0.00000000       0.031
   0.02836553 -0.01637685  0.00000000       0.031
   0.02836553  0.01637685  0.00000000       0.031
   0.00000000  0.03275370  0.00000000       0.031
   0.04254830 -0.02456528  0.00000000       0.031
   0.04254830  0.02456527  0.00000000       0.031
   0.00000000  0.04913055  0.00000000       0.031
   0.05673107 -0.03275370  0.00000000       0.016
   0.05673107  0.03275370  0.00000000       0.016
   0.00000000  0.06550740  0.00000000       0.016
   0.02836553 -0.00000000  0.00000000       0.031
   0.01418277  0.02456527  0.00000000       0.031
  -0.01418277  0.02456528  0.00000000       0.031
   0.04254830 -0.00818843  0.00000000       0.031
   0.02836553  0.03275370  0.00000000       0.031
  -0.01418277  0.04094212  0.00000000       0.031
   0.02836553 -0.03275370  0.00000000       0.031
  -0.01418277 -0.04094212  0.00000000       0.031
  -0.04254830 -0.00818842  0.00000000       0.031
   0.05673107 -0.01637685  0.00000000       0.031
   0.04254830  0.04094212  0.00000000       0.031
  -0.01418277  0.05731897  0.00000000       0.031
   0.04254830 -0.04094213  0.00000000       0.031
  -0.01418277  0.07369582  0.00000000       0.031
   0.05673107 -0.08188425  0.00000000       0.031
   0.05673107 -0.00000000  0.00000000       0.031
   0.02836553  0.04913055  0.00000000       0.031
  -0.02836553  0.04913055  0.00000000       0.031
  -0.04254830  0.05731898  0.00000000       0.031
   0.04254830 -0.07369583  0.00000000       0.031
  -0.02836553  0.06550740  0.00000000       0.031
 
 k-points in reciprocal lattice and weights: Automatic mesh                          
   0.00000000  0.00000000  0.00000000       0.016
   0.12500000  0.00000000  0.00000000       0.031
   0.12500000  0.12500000  0.00000000       0.031
   0.00000000  0.12500000  0.00000000       0.031
   0.25000000  0.00000000  0.00000000       0.031
   0.25000000  0.25000000  0.00000000       0.031
   0.00000000  0.25000000  0.00000000       0.031
   0.37500000 -0.00000000  0.00000000       0.031
   0.37500000  0.37500000  0.00000000       0.031
   0.00000000  0.37500000  0.00000000       0.031
   0.50000000  0.00000000  0.00000000       0.016
   0.50000000  0.50000000  0.00000000       0.016
   0.00000000  0.50000000  0.00000000       0.016
   0.25000000  0.12500000  0.00000000       0.031
   0.12500000  0.25000000  0.00000000       0.031
  -0.12500000  0.12500000  0.00000000       0.031
   0.37500000  0.12500000  0.00000000       0.031
   0.25000000  0.37500000  0.00000000       0.031
  -0.12500000  0.25000000  0.00000000       0.031
   0.25000000 -0.12500000  0.00000000       0.031
  -0.12500000 -0.37500000  0.00000000       0.031
  -0.37500000 -0.25000000  0.00000000       0.031
   0.50000000  0.12500000  0.00000000       0.031
   0.37500000  0.50000000  0.00000000       0.031
  -0.12500000  0.37500000  0.00000000       0.031
   0.37500000 -0.12500000  0.00000000       0.031
  -0.12500000  0.50000000  0.00000000       0.031
   0.50000000 -0.37500000  0.00000000       0.031
   0.50000000  0.25000000  0.00000000       0.031
   0.25000000  0.50000000  0.00000000       0.031
  -0.25000000  0.25000000  0.00000000       0.031
  -0.37500000  0.25000000  0.00000000       0.031
   0.37500000 -0.37500000  0.00000000       0.031
  -0.25000000  0.37500000  0.00000000       0.031
 
 position of ions in fractional coordinates (direct lattice) 
   0.00000000  0.00000000  0.20369598
   0.33333334  0.00000000  0.20369598
   0.66666669  0.00000000  0.20369598
   0.00000000  0.33333334  0.20369598
   0.33333331  0.33333334  0.20369598
   0.66666669  0.33333334  0.20369598
   0.00000000  0.66666669  0.20369598
   0.33333334  0.66666669  0.20369598
   0.66666663  0.66666669  0.20369598
   0.11111112  0.11111111  0.29622956
   0.44444442  0.11111111  0.29622956
   0.77777779  0.11111111  0.29622956
   0.11111113  0.44444445  0.29622956
   0.44444448  0.44444445  0.29622956
   0.77777773  0.44444445  0.29622956
   0.11111109  0.77777779  0.29622956
   0.44444445  0.77777779  0.29622956
   0.77777785  0.77777779  0.29622956
   0.88841427  0.22317149  0.38954200
   0.22183870  0.22183869  0.38758234
   0.55632265  0.22183869  0.38758234
   0.88642824  0.55678591  0.38840038
   0.22183866  0.55632265  0.38758234
   0.55678591  0.55678591  0.38840038
   0.88841427  0.88841427  0.38954200
   0.22317152  0.88841427  0.38954200
   0.55678585  0.88642824  0.38840038
   0.00000000  0.00000000  0.48222087
   0.33424952  0.01196282  0.48514723
   0.65378769  0.01196282  0.48514723
   0.01196282  0.33424952  0.48514723
   0.65378769  0.33424952  0.48514723
   0.01196282  0.65378769  0.48514723
   0.33424952  0.65378769  0.48514723
   0.66666663  0.66666669  0.48247269
   0.33333331  0.33333334  0.47064964
   0.34151374  0.34569673  0.54533445
   0.37218711  0.20632696  0.58249677
   0.36391501  0.26914705  0.61465006
 
 position of ions in cartesian coordinates  (Angst):
   0.00000000  0.00000000  5.28037993
   2.93783769  0.00000000  5.28037993
   5.87567538  0.00000000  5.28037993
   1.46891901  2.54424197  5.28037993
   4.40675643  2.54424197  5.28037993
   7.34459439  2.54424197  5.28037993
   2.93783803  5.08848395  5.28037993
   5.87567571  5.08848395  5.28037993
   8.81351288  5.08848395  5.28037993
   1.46891893  0.84808064  7.67911405
   4.40675623  0.84808064  7.67911405
   7.34459418  0.84808064  7.67911405
   2.93783798  3.39232256  7.67911405
   5.87567574  3.39232256  7.67911405
   8.81351263  3.39232256  7.67911405
   4.40675667  5.93656453  7.67911405
   7.34459449  5.93656453  7.67911405
  10.28243270  5.93656453  7.67911405
   8.81351299  1.70340673 10.09803830
   2.93276742  1.69323385 10.04723822
   5.88074600  1.69323385 10.04723822
  10.26616678  4.24979413 10.06844409
   4.40675655  4.24625821 10.04723822
   7.36085992  4.24979413 10.06844409
  11.74507620  6.78102238 10.09803830
   5.88195071  6.78102238 10.09803830
   8.81351299  6.76586358 10.06844409
   0.00000000  0.00000000 12.50053841
   2.99862966  0.09130895 12.57639823
   5.81488342  0.09130895 12.57639823
   1.57839087  2.55123488 12.57639823
   7.23512254  2.55123488 12.57639823
   2.98651791  4.99018209 12.57639823
   5.82699582  4.99018209 12.57639823
   8.81351288  5.08848395 12.50706630
   4.40675643  2.54424197 12.20057929
   4.53333715  2.63860831 14.13662231
   4.18950863  1.57483711 15.09997549
   4.39343521  2.05432561 15.93348044
 


--------------------------------------------------------------------------------------------------------


 k-point   1 :   0.0000 0.0000 0.0000  plane waves:   44177
 k-point   2 :   0.1250 0.0000 0.0000  plane waves:   44218
 k-point   3 :   0.1250 0.1250 0.0000  plane waves:   44218
 k-point   4 :   0.0000 0.1250 0.0000  plane waves:   44218
 k-point   5 :   0.2500 0.0000 0.0000  plane waves:   44240
 k-point   6 :   0.2500 0.2500 0.0000  plane waves:   44240
 k-point   7 :   0.0000 0.2500 0.0000  plane waves:   44240
 k-point   8 :   0.3750-0.0000 0.0000  plane waves:   44282
 k-point   9 :   0.3750 0.3750 0.0000  plane waves:   44282
 k-point  10 :   0.0000 0.3750 0.0000  plane waves:   44282
 k-point  11 :   0.5000 0.0000 0.0000  plane waves:   44256
 k-point  12 :   0.5000 0.5000 0.0000  plane waves:   44256
 k-point  13 :   0.0000 0.5000 0.0000  plane waves:   44256
 k-point  14 :   0.2500 0.1250 0.0000  plane waves:   44224
 k-point  15 :   0.1250 0.2500 0.0000  plane waves:   44224
 k-point  16 :  -0.1250 0.1250 0.0000  plane waves:   44224
 k-point  17 :   0.3750 0.1250 0.0000  plane waves:   44278
 k-point  18 :   0.2500 0.3750 0.0000  plane waves:   44278
 k-point  19 :  -0.1250 0.2500 0.0000  plane waves:   44278
 k-point  20 :   0.2500-0.1250 0.0000  plane waves:   44278
 k-point  21 :  -0.1250-0.3750 0.0000  plane waves:   44278
 k-point  22 :  -0.3750-0.2500 0.0000  plane waves:   44278
 k-point  23 :   0.5000 0.1250 0.0000  plane waves:   44300
 k-point  24 :   0.3750 0.5000 0.0000  plane waves:   44300
 k-point  25 :  -0.1250 0.3750 0.0000  plane waves:   44300
 k-point  26 :   0.3750-0.1250 0.0000  plane waves:   44300
 k-point  27 :  -0.1250 0.5000 0.0000  plane waves:   44300
 k-point  28 :   0.5000-0.3750 0.0000  plane waves:   44300
 k-point  29 :   0.5000 0.2500 0.0000  plane waves:   44334
 k-point  30 :   0.2500 0.5000 0.0000  plane waves:   44334
 k-point  31 :  -0.2500 0.2500 0.0000  plane waves:   44334
 k-point  32 :  -0.3750 0.2500 0.0000  plane waves:   44304
 k-point  33 :   0.3750-0.3750 0.0000  plane waves:   44304
 k-point  34 :  -0.2500 0.3750 0.0000  plane waves:   44304

 maximum and minimum number of plane-waves per node :     44334    44177

 maximum number of plane-waves:     44334
 maximum index in each direction: 
   IXMAX=   16   IYMAX=   16   IZMAX=   47
   IXMIN=  -16   IYMIN=  -16   IZMIN=  -47


 serial   3D FFT for wavefunctions
 parallel 3D FFT for charge:
    minimum data exchange during FFTs selected (reduces bandwidth)


 total amount of memory used by VASP MPI-rank0   291723. kBytes
=======================================================================

   base      :      30000. kBytes
   nonlr-proj:      14419. kBytes
   fftplans  :       4948. kBytes
   grid      :      21313. kBytes
   one-center:        606. kBytes
   wavefun   :     220437. kBytes
 
     INWAV:  cpu time    0.0000: real time    0.0001
 initial charge density was supplied:
 number of electron     403.0000072 magnetization 
 keeping initial charge density in first step


--------------------------------------------------------------------------------------------------------


 Maximum index for non-local projection operator         3240
 Maximum index for augmentation-charges          840 (set IRDMAX)


--------------------------------------------------------------------------------------------------------


 First call to EWALD:  gamma=   0.147
 Maximum number of real-space cells 4x 4x 2
 Maximum number of reciprocal cells 2x 2x 5

    FEWALD:  cpu time    0.0013: real time    0.0013


--------------------------------------- Iteration      1(   1)  ---------------------------------------


    POTLOK:  cpu time    0.0498: real time    0.0502
    SETDIJ:  cpu time    0.0051: real time    0.0051
     EDDAV:  cpu time   27.1516: real time   27.1535
 BZINTS: Fermi energy:   10.738278;  403.000000 electrons
         Band energy: 0.128546E+04;  BLOECHL correction:   -0.020142
       DOS:  cpu time    0.0614: real time    0.0614
    --------------------------------------------
      LOOP:  cpu time   27.2679: real time   27.2703

 eigenvalue-minimisations  : 17136
 total energy-change (2. order) : 0.2708208E+04  (-0.1774913E+05)
 number of electron     403.0000072 magnetization 
 augmentation part      403.0000072 magnetization 

 Free energy of the ion-electron system (eV)
  ---------------------------------------------------
  alpha Z        PSCENC =       893.38162488
  Ewald energy   TEWEN  =    148632.38792468
  -Hartree energ DENC   =   -182830.62675510
  -exchange      EXHF   =         0.00000000
  -V(xc)+E(xc)   XCENC  =       510.37973081
  PAW double counting   =     36579.07024767   -35782.57839910
  entropy T*S    EENTRO =         0.00000000
  eigenvalues    EBANDS =      1285.45877037
  atomic energy  EATOM  =     33420.73486677
  Solvation  Ediel_sol  =         0.00000000
  ---------------------------------------------------
  free energy    TOTEN  =      2708.20801099 eV

  energy without entropy =     2708.20801099  energy(sigma->0) =     2708.20801099


--------------------------------------------------------------------------------------------------------




--------------------------------------- Iteration      1(   2)  ---------------------------------------


     EDDAV:  cpu time   29.9037: real time   29.9042
 BZINTS: Fermi energy:    1.021248;  403.000000 electrons
         Band energy:-0.139145E+04;  BLOECHL correction:   -0.043002
       DOS:  cpu time    0.0576: real time    0.0576
    --------------------------------------------
      LOOP:  cpu time   29.9613: real time   29.9618

 eigenvalue-minimisations  : 19376
 total energy-change (2. order) :-0.2676910E+04  (-0.2487571E+04)
 number of electron     403.0000072 magnetization 
 augmentation part      403.0000072 magnetization 

 Free energy of the ion-electron system (eV)
  ---------------------------------------------------
  alpha Z        PSCENC =       893.38162488
  Ewald energy   TEWEN  =    148632.38792468
  -Hartree energ DENC   =   -182830.62675510
  -exchange      EXHF   =         0.00000000
  -V(xc)+E(xc)   XCENC  =       510.37973081
  PAW double counting   =     36579.07024767   -35782.57839910
  entropy T*S    EENTRO =         0.00000000
  eigenvalues    EBANDS =     -1391.45162441
  atomic energy  EATOM  =     33420.73486677
  Solvation  Ediel_sol  =         0.00000000
  ---------------------------------------------------
  free energy    TOTEN  =        31.29761621 eV

  energy without entropy =       31.29761621  energy(sigma->0) =       31.29761621


--------------------------------------------------------------------------------------------------------




--------------------------------------- Iteration      1(   3)  ---------------------------------------


     EDDAV:  cpu time   31.3060: real time   31.3064
 BZINTS: Fermi energy:    0.151625;  403.000000 electrons
         Band energy:-0.155251E+04;  BLOECHL correction:   -0.039712
       DOS:  cpu time    0.0556: real time    0.0556
    --------------------------------------------
      LOOP:  cpu time   31.3616: real time   31.3620

 eigenvalue-minimisations  : 20440
 total energy-change (2. order) :-0.1610621E+03  (-0.1562926E+03)
 number of electron     403.0000072 magnetization 
 augmentation part      403.0000072 magnetization 

 Free energy of the ion-electron system (eV)
  ---------------------------------------------------
  alpha Z        PSCENC =       893.38162488
  Ewald energy   TEWEN  =    148632.38792468
  -Hartree energ DENC   =   -182830.62675510
  -exchange      EXHF   =         0.00000000
  -V(xc)+E(xc)   XCENC  =       510.37973081
  PAW double counting   =     36579.07024767   -35782.57839910
  entropy T*S    EENTRO =         0.00000000
  eigenvalues    EBANDS =     -1552.51377226
  atomic energy  EATOM  =     33420.73486677
  Solvation  Ediel_sol  =         0.00000000
  ---------------------------------------------------
  free energy    TOTEN  =      -129.76453164 eV

  energy without entropy =     -129.76453164  energy(sigma->0) =     -129.76453164


--------------------------------------------------------------------------------------------------------




--------------------------------------- Iteration      1(   4)  ---------------------------------------


     EDDAV:  cpu time   30.8104: real time   30.8111
 BZINTS: Fermi energy:    0.123055;  403.000000 electrons
         Band energy:-0.155613E+04;  BLOECHL correction:   -0.036429
       DOS:  cpu time    0.0574: real time    0.0574
    --------------------------------------------
      LOOP:  cpu time   30.8678: real time   30.8685

 eigenvalue-minimisations  : 20020
 total energy-change (2. order) :-0.3617766E+01  (-0.3585911E+01)
 number of electron     403.0000072 magnetization 
 augmentation part      403.0000072 magnetization 

 Free energy of the ion-electron system (eV)
  ---------------------------------------------------
  alpha Z        PSCENC =       893.38162488
  Ewald energy   TEWEN  =    148632.38792468
  -Hartree energ DENC   =   -182830.62675510
  -exchange      EXHF   =         0.00000000
  -V(xc)+E(xc)   XCENC  =       510.37973081
  PAW double counting   =     36579.07024767   -35782.57839910
  entropy T*S    EENTRO =         0.00000000
  eigenvalues    EBANDS =     -1556.13153872
  atomic energy  EATOM  =     33420.73486677
  Solvation  Ediel_sol  =         0.00000000
  ---------------------------------------------------
  free energy    TOTEN  =      -133.38229811 eV

  energy without entropy =     -133.38229811  energy(sigma->0) =     -133.38229811


--------------------------------------------------------------------------------------------------------




--------------------------------------- Iteration      1(   5)  ---------------------------------------


     EDDAV:  cpu time   31.7211: real time   31.7246
 BZINTS: Fermi energy:    0.122630;  403.000000 electrons
         Band energy:-0.155624E+04;  BLOECHL correction:   -0.036462
       DOS:  cpu time    0.0600: real time    0.0600
    --------------------------------------------
      LOOP:  cpu time   31.7811: real time   31.7846

 eigenvalue-minimisations  : 20748
 total energy-change (2. order) :-0.1041631E+00  (-0.1041093E+00)
 number of electron     403.0000072 magnetization 
 augmentation part      403.0000072 magnetization 

 Free energy of the ion-electron system (eV)
  ---------------------------------------------------
  alpha Z        PSCENC =       893.38162488
  Ewald energy   TEWEN  =    148632.38792468
  -Hartree energ DENC   =   -182830.62675510
  -exchange      EXHF   =         0.00000000
  -V(xc)+E(xc)   XCENC  =       510.37973081
  PAW double counting   =     36579.07024767   -35782.57839910
  entropy T*S    EENTRO =         0.00000000
  eigenvalues    EBANDS =     -1556.23570180
  atomic energy  EATOM  =     33420.73486677
  Solvation  Ediel_sol  =         0.00000000
  ---------------------------------------------------
  free energy    TOTEN  =      -133.48646119 eV

  energy without entropy =     -133.48646119  energy(sigma->0) =     -133.48646119


--------------------------------------------------------------------------------------------------------




--------------------------------------- Iteration      1(   6)  ---------------------------------------


    EDDIAG:  cpu time    5.4418: real time    5.4423
  RMM-DIIS:  cpu time   16.3172: real time   16.3174
    ORTHCH:  cpu time    1.0149: real time    1.0149
 BZINTS: Fermi energy:    0.122628;  403.000000 electrons
         Band energy:-0.155624E+04;  BLOECHL correction:   -0.036461
       DOS:  cpu time    0.0587: real time    0.0587
    --------------------------------------------
      LOOP:  cpu time   22.8326: real time   22.8334

 eigenvalue-minimisations  : 17877
 total energy-change (2. order) :-0.2349774E-02  (-0.2350301E-02)
 number of electron     403.0000072 magnetization 
 augmentation part      403.0000072 magnetization 

 Free energy of the ion-electron system (eV)
  ---------------------------------------------------
  alpha Z        PSCENC =       893.38162488
  Ewald energy   TEWEN  =    148632.38792468
  -Hartree energ DENC   =   -182830.62675510
  -exchange      EXHF   =         0.00000000
  -V(xc)+E(xc)   XCENC  =       510.37973081
  PAW double counting   =     36579.07024767   -35782.57839910
  entropy T*S    EENTRO =         0.00000000
  eigenvalues    EBANDS =     -1556.23805157
  atomic energy  EATOM  =     33420.73486677
  Solvation  Ediel_sol  =         0.00000000
  ---------------------------------------------------
  free energy    TOTEN  =      -133.48881096 eV

  energy without entropy =     -133.48881096  energy(sigma->0) =     -133.48881096


--------------------------------------------------------------------------------------------------------




--------------------------------------- Iteration      1(   7)  ---------------------------------------


    EDDIAG:  cpu time    5.4450: real time    5.4453
  RMM-DIIS:  cpu time   21.8355: real time   21.8358
    ORTHCH:  cpu time    1.0149: real time    1.0149
 BZINTS: Fermi energy:    0.122628;  403.000000 electrons
         Band energy:-0.155624E+04;  BLOECHL correction:   -0.036461
       DOS:  cpu time    0.0548: real time    0.0548
    --------------------------------------------
      LOOP:  cpu time   28.3502: real time   28.3508

 eigenvalue-minimisations  : 24973
 total energy-change (2. order) :-0.8094031E-03  (-0.8079133E-03)
 number of electron     403.0000072 magnetization 
 augmentation part      403.0000072 magnetization 

 Free energy of the ion-electron system (eV)
  ---------------------------------------------------
  alpha Z        PSCENC =       893.38162488
  Ewald energy   TEWEN  =    148632.38792468
  -Hartree energ DENC   =   -182830.62675510
  -exchange      EXHF   =         0.00000000
  -V(xc)+E(xc)   XCENC  =       510.37973081
  PAW double counting   =     36579.07024767   -35782.57839910
  entropy T*S    EENTRO =         0.00000000
  eigenvalues    EBANDS =     -1556.23886098
  atomic energy  EATOM  =     33420.73486677
  Solvation  Ediel_sol  =         0.00000000
  ---------------------------------------------------
  free energy    TOTEN  =      -133.48962037 eV

  energy without entropy =     -133.48962037  energy(sigma->0) =     -133.48962037


--------------------------------------------------------------------------------------------------------




--------------------------------------- Iteration      1(   8)  ---------------------------------------


    EDDIAG:  cpu time    5.4411: real time    5.4414
  RMM-DIIS:  cpu time   16.8817: real time   16.8819
    ORTHCH:  cpu time    1.0145: real time    1.0145
 BZINTS: Fermi energy:    0.122628;  403.000000 electrons
         Band energy:-0.155624E+04;  BLOECHL correction:   -0.036461
       DOS:  cpu time    0.0561: real time    0.0561
    --------------------------------------------
      LOOP:  cpu time   23.3934: real time   23.3939

 eigenvalue-minimisations  : 19098
 total energy-change (2. order) :-0.2887391E-04  (-0.2912963E-04)
 number of electron     403.0000072 magnetization 
 augmentation part      403.0000072 magnetization 

 Free energy of the ion-electron system (eV)
  ---------------------------------------------------
  alpha Z        PSCENC =       893.38162488
  Ewald energy   TEWEN  =    148632.38792468
  -Hartree energ DENC   =   -182830.62675510
  -exchange      EXHF   =         0.00000000
  -V(xc)+E(xc)   XCENC  =       510.37973081
  PAW double counting   =     36579.07024767   -35782.57839910
  entropy T*S    EENTRO =         0.00000000
  eigenvalues    EBANDS =     -1556.23888985
  atomic energy  EATOM  =     33420.73486677
  Solvation  Ediel_sol  =         0.00000000
  ---------------------------------------------------
  free energy    TOTEN  =      -133.48964924 eV

  energy without entropy =     -133.48964924  energy(sigma->0) =     -133.48964924


--------------------------------------------------------------------------------------------------------




--------------------------------------- Iteration      1(   9)  ---------------------------------------


    EDDIAG:  cpu time    5.4440: real time    5.4443
  RMM-DIIS:  cpu time   15.0257: real time   15.0258
    ORTHCH:  cpu time    1.0141: real time    1.0141
 BZINTS: Fermi energy:    0.122628;  403.000000 electrons
         Band energy:-0.155624E+04;  BLOECHL correction:   -0.036461
       DOS:  cpu time    0.0562: real time    0.0561
    --------------------------------------------
      LOOP:  cpu time   21.5399: real time   21.5404

 eigenvalue-minimisations  : 14922
 total energy-change (2. order) :-0.6499555E-05  (-0.6531564E-05)
 number of electron     403.0000072 magnetization 
 augmentation part      403.0000072 magnetization 

 Free energy of the ion-electron system (eV)
  ---------------------------------------------------
  alpha Z        PSCENC =       893.38162488
  Ewald energy   TEWEN  =    148632.38792468
  -Hartree energ DENC   =   -182830.62675510
  -exchange      EXHF   =         0.00000000
  -V(xc)+E(xc)   XCENC  =       510.37973081
  PAW double counting   =     36579.07024767   -35782.57839910
  entropy T*S    EENTRO =         0.00000000
  eigenvalues    EBANDS =     -1556.23889635
  atomic energy  EATOM  =     33420.73486677
  Solvation  Ediel_sol  =         0.00000000
  ---------------------------------------------------
  free energy    TOTEN  =      -133.48965574 eV

  energy without entropy =     -133.48965574  energy(sigma->0) =     -133.48965574


--------------------------------------------------------------------------------------------------------




 average (electrostatic) potential at core
  the test charge radii are     1.2098  1.2538  0.7215  0.5201
  (the norm of the test charge is              1.0000)
       1 -72.9151       2 -72.9060       3 -72.9087       4 -72.9136       5 -72.9128
       6 -72.9127       7 -72.9139       8 -72.9175       9 -72.9066      10 -73.2625
      11 -73.2308      12 -73.2663      13 -73.2408      14 -73.2420      15 -73.2447
      16 -73.2627      17 -73.2321      18 -73.2387      19 -73.1879      20 -73.6513
      21 -73.6727      22 -73.2117      23 -73.6526      24 -73.2088      25 -73.1904
      26 -73.1908      27 -73.2037      28 -72.9263      29 -73.1016      30 -73.1106
      31 -73.1286      32 -73.1289      33 -73.1325      34 -73.1324      35 -72.9106
      36 -42.9605      37 -77.2484      38 -77.2644      39 -40.5301
 
 
 
 E-fermi :   0.1226     XC(G=0):  -5.3889     alpha+bet : -5.0079

 Fermi energy:         0.1226276538

 k-point     1 :       0.0000    0.0000    0.0000
  band No.  band energies     occupation 
      1     -22.9442      2.00000
      2     -17.2455      2.00000
      3      -8.7727      2.00000
      4      -8.5023      2.00000
      5      -7.6395      2.00000
      6      -7.0074      2.00000
      7      -6.6676      2.00000
      8      -6.6325      2.00000
      9      -6.6268      2.00000
     10      -6.5784      2.00000
     11      -6.5457      2.00000
     12      -6.5187      2.00000
     13      -6.5028      2.00000
     14      -6.4978      2.00000
     15      -6.1448      2.00000
     16      -6.1431      2.00000
     17      -6.1215      2.00000
     18      -6.0674      2.00000
     19      -6.0282      2.00000
     20      -6.0263      2.00000
     21      -5.7992      2.00000
     22      -5.7782      2.00000
     23      -5.7716      2.00000
     24      -5.7529      2.00000
     25      -5.7119      2.00000
     26      -5.6868      2.00000
     27      -5.6828      2.00000
     28      -5.5973      2.00000
     29      -5.5551      2.00000
     30      -5.5509      2.00000
     31      -5.5337      2.00000
     32      -5.5096      2.00000
     33      -5.4472      2.00000
     34      -5.4110      2.00000
     35      -5.4096      2.00000
     36      -5.3978      2.00000
     37      -5.3816      2.00000
     38      -5.3508      2.00000
     39      -5.3502      2.00000
     40      -5.3444      2.00000
     41      -5.3218      2.00000
     42      -5.3048      2.00000
     43      -5.3044      2.00000
     44      -5.3001      2.00000
     45      -5.2936      2.00000
     46      -4.9010      2.00000
     47      -4.8781      2.00000
     48      -4.8623      2.00000
     49      -4.8439      2.00000
     50      -4.8411      2.00000
     51      -4.8123      2.00000
     52      -4.7883      2.00000
     53      -4.7875      2.00000
     54      -4.7458      2.00000
     55      -4.7357      2.00000
     56      -4.6840      2.00000
     57      -4.6724      2.00000
     58      -4.6618      2.00000
     59      -4.5847      2.00000
     60      -4.4050      2.00000
     61      -4.3483      2.00000
     62      -4.3471      2.00000
     63      -4.3081      2.00000
     64      -4.2983      2.00000
     65      -4.2841      2.00000
     66      -4.2760      2.00000
     67      -4.2236      2.00000
     68      -4.2205      2.00000
     69      -4.1725      2.00000
     70      -4.1597      2.00000
     71      -4.1352      2.00000
     72      -4.1237      2.00000
     73      -4.1123      2.00000
     74      -4.1019      2.00000
     75      -4.0999      2.00000
     76      -4.0909      2.00000
     77      -4.0405      2.00000
     78      -4.0362      2.00000
     79      -4.0228      2.00000
     80      -4.0162      2.00000
     81      -4.0073      2.00000
     82      -4.0049      2.00000
     83      -3.9968      2.00000
     84      -3.9937      2.00000
     85      -3.9688      2.00000
     86      -3.9420      2.00000
     87      -3.9358      2.00000
     88      -3.9354      2.00000
     89      -3.9251      2.00000
     90      -3.9215      2.00000
     91      -3.8609      2.00000
     92      -3.8497      2.00000
[...]
  0.000   0.000   0.000   0.000   0.000   0.000   0.000   0.000   0.000   0.000   1.000   0.000   0.000   0.000   0.000   0.000
  0.000   0.000   0.000   0.000   0.000   0.000   0.000   0.000   0.000   0.000   0.000   0.000   0.000   0.000   0.000   0.000
  0.000   0.000   0.000   0.000   0.000   0.000   0.000   0.000   0.000   0.000   0.000   0.000   0.000   0.000   0.000   0.000
  0.000   0.000   0.000   0.000   0.000   0.000   0.000   0.000   0.000   0.000   0.000   0.000   0.000   0.000   0.000   0.000
  0.000   0.000   0.000   0.000   0.000   0.000   0.000   0.000   0.000   0.000   0.000   0.000   0.000   0.000   0.000   0.000
  0.000   0.000   0.000   0.000   0.000   0.000   0.000   0.000   0.000   0.000   0.000   0.000   0.000   0.000   0.000   0.000
  0.000   0.000   0.000   0.000   0.000   0.000   0.000   0.000   0.000   0.000   0.000   0.000   0.000   0.000   0.000   0.000
  0.000   0.000   0.000   0.000   0.000   0.000   0.000   0.000   0.000   0.000   0.000   0.000   0.000   0.000   0.000   0.000


------------------------ aborting loop because EDIFF is reached ----------------------------------------





 total charge

# of ion       s       p       d       tot
------------------------------------------
    1        0.550   0.237   8.766   9.552
    2        0.542   0.242   8.764   9.548
    3        0.542   0.242   8.764   9.548
    4        0.543   0.241   8.764   9.548
    5        0.545   0.241   8.761   9.548
    6        0.543   0.241   8.764   9.548
    7        0.542   0.242   8.764   9.548
    8        0.540   0.242   8.765   9.547
    9        0.544   0.240   8.766   9.550
   10        0.525   0.305   8.767   9.597
   11        0.519   0.307   8.780   9.607
   12        0.522   0.305   8.770   9.597
   13        0.520   0.308   8.777   9.605
   14        0.519   0.308   8.778   9.606
   15        0.515   0.307   8.771   9.594
   16        0.524   0.306   8.767   9.597
   17        0.515   0.307   8.772   9.595
   18        0.515   0.307   8.772   9.594
   19        0.519   0.292   8.773   9.584
   20        0.581   0.346   8.724   9.650
   21        0.574   0.345   8.727   9.647
   22        0.510   0.305   8.774   9.589
   23        0.583   0.344   8.725   9.652
   24        0.509   0.305   8.776   9.589
   25        0.518   0.292   8.773   9.583
   26        0.519   0.293   8.771   9.583
   27        0.508   0.304   8.777   9.589
   28        0.541   0.228   8.752   9.521
   29        0.592   0.247   8.733   9.571
   30        0.589   0.247   8.736   9.572
   31        0.591   0.249   8.733   9.572
   32        0.584   0.247   8.741   9.572
   33        0.589   0.248   8.735   9.573
   34        0.594   0.246   8.735   9.575
   35        0.537   0.229   8.754   9.521
   36        0.664   0.753   3.080   4.497
   37        1.592   3.308   0.000   4.900
   38        1.597   3.370   0.000   4.967
   39        0.616   0.112   0.000   0.729
--------------------------------------------------
tot         23.470  17.240 309.653 350.363
 
    CHARGE:  cpu time    1.3128: real time    1.3129
    FORLOC:  cpu time    0.0127: real time    0.0128
    FORNL :  cpu time    5.4780: real time    5.4781
    STRESS:  cpu time   16.4485: real time   16.4488
    FORCOR:  cpu time    0.0500: real time    0.0501
    FORHAR:  cpu time    0.0201: real time    0.0201
    OFIELD:  cpu time    0.0003: real time    0.0003

  FORCE on cell =-STRESS in cart. coord.  units (eV):
  Direction    XX          YY          ZZ          XY          YZ          ZX
  --------------------------------------------------------------------------------------
  Alpha Z   893.38162   893.38162   893.38162
  Ewald  170932.09377171100.23816************    65.58219   -94.59360   -35.15815
  Hartree179411.08715179494.01527************    31.82853   -54.03086   -27.60270
  E(xc)   -1811.82720 -1811.61319 -1819.68682     0.11978    -0.10690    -0.10477
  Local  ************************362372.06464   -87.52088   138.68355    61.22627
  n-local   -99.39243   -96.19523   -62.57412     0.71477    -3.94585    -1.65539
  augment  2378.69982  2376.08855  2395.76820    -0.95777     1.62857     0.47602
  Kinetic  5687.09249  5662.12559  5702.98103    -9.90319    12.29882     2.43343
  Fock        0.00000     0.00000     0.00000     0.00000     0.00000     0.00000
  -------------------------------------------------------------------------------------
  Total     -21.82374   -21.60059     1.62909    -0.13657    -0.06627    -0.38529
  in kB     -20.05064   -19.84563     1.49673    -0.12547    -0.06089    -0.35398
  external pressure =      -12.80 kB  Pullay stress =        0.00 kB


 VOLUME and BASIS-vectors are now :
 -----------------------------------------------------------------------------
  energy-cutoff  :      500.00
  volume of cell :     1743.86
      direct lattice vectors                 reciprocal lattice vectors
     8.813512802  0.000000000  0.000000000     0.113462137 -0.065507406  0.000000000
     4.406756909  7.632725690  0.000000000     0.000000000  0.131014796  0.000000000
     0.000000000  0.000000000 25.922848430     0.000000000  0.000000000  0.038576008

  length of vectors
     8.813512802  8.813512802 25.922848430     0.131014796  0.131014796  0.038576008


 FORCES acting on ions
    electron-ion (+dipol)            ewald-force                    non-local-force                 convergence-correction
 -----------------------------------------------------------------------------------------------
   0.588E-01 -.221E-01 0.276E+04   -.300E-02 -.143E-01 -.276E+04   -.408E-01 0.219E-01 -.603E+00   -.987E-02 0.149E-01 0.113E+00
   0.627E+00 0.153E-01 0.276E+04   -.613E+00 -.807E-01 -.276E+04   0.266E-01 0.117E+00 -.257E+00   -.513E-01 -.594E-01 0.112E+00
   -.649E+00 0.668E-01 0.276E+04   0.616E+00 -.885E-01 -.276E+04   -.820E-02 0.694E-01 -.299E+00   0.478E-01 -.502E-01 0.103E+00
   0.397E+00 0.517E+00 0.276E+04   -.365E+00 -.444E+00 -.276E+04   0.506E-01 -.463E-01 -.311E+00   -.820E-01 -.185E-01 0.941E-01
   0.172E-01 -.764E-01 0.276E+04   -.529E-02 0.494E-01 -.276E+04   -.232E-01 0.474E-03 -.363E-01   0.148E-01 0.252E-01 0.821E-01
   -.432E+00 0.475E+00 0.276E+04   0.370E+00 -.451E+00 -.276E+04   -.245E-01 -.233E-01 -.307E+00   0.818E-01 0.264E-02 0.854E-01
   -.381E+00 -.551E+00 0.276E+04   0.242E+00 0.531E+00 -.276E+04   0.108E+00 -.324E-01 -.286E+00   0.125E-01 0.532E-01 0.863E-01
   0.365E+00 -.519E+00 0.276E+04   -.250E+00 0.533E+00 -.276E+04   -.110E+00 -.573E-01 -.390E+00   0.104E-01 0.508E-01 0.566E-01
   0.101E-01 0.702E-01 0.276E+04   0.830E-02 -.347E-01 -.276E+04   0.133E-01 -.221E-01 -.365E+00   -.271E-01 -.155E-01 0.122E+00
   0.597E+01 0.319E+01 0.946E+03   -.554E+01 -.302E+01 -.945E+03   -.381E+00 -.166E+00 -.560E+00   -.890E-01 -.350E-01 -.229E+00
   -.333E-01 0.175E+01 0.951E+03   0.423E-03 -.169E+01 -.951E+03   0.287E-01 0.192E-01 -.140E+00   0.116E-01 -.158E+00 -.232E+00
   -.594E+01 0.329E+01 0.946E+03   0.554E+01 -.308E+01 -.945E+03   0.347E+00 -.180E+00 -.499E+00   0.100E+00 -.554E-01 -.253E+00
   0.173E+01 -.118E+01 0.950E+03   -.162E+01 0.115E+01 -.950E+03   -.249E-01 0.787E-02 -.220E+00   -.146E+00 0.632E-01 -.245E+00
   -.167E+01 -.116E+01 0.951E+03   0.156E+01 0.112E+01 -.950E+03   0.145E-01 0.280E-02 -.219E+00   0.150E+00 0.641E-01 -.258E+00
   -.821E-01 0.503E+01 0.950E+03   0.507E-01 -.510E+01 -.950E+03   0.185E-01 0.613E-02 -.367E+00   0.608E-02 0.390E-02 -.196E+00
   0.560E-01 -.647E+01 0.946E+03   -.518E-01 0.604E+01 -.945E+03   -.487E-02 0.382E+00 -.456E+00   -.101E-02 0.107E+00 -.227E+00
   0.453E+01 -.228E+01 0.951E+03   -.458E+01 0.231E+01 -.950E+03   -.635E-02 -.164E-01 -.472E+00   -.267E-02 0.192E-01 -.201E+00
   -.452E+01 -.224E+01 0.951E+03   0.463E+01 0.229E+01 -.950E+03   -.304E-01 -.171E-01 -.414E+00   -.257E-01 0.116E-01 -.189E+00
   -.819E-01 -.114E+01 -.898E+03   0.745E-01 0.107E+01 0.897E+03   -.201E-02 -.366E-01 0.653E+00   0.190E-01 0.391E-01 -.341E+00
   -.266E+01 -.431E+01 -.861E+03   0.395E+01 0.500E+01 0.862E+03   -.126E+01 -.696E+00 -.135E+01   -.919E-01 -.912E-01 -.260E+00
   0.288E+01 -.377E+01 -.861E+03   -.399E+01 0.439E+01 0.862E+03   0.114E+01 -.609E+00 -.103E+01   0.811E-01 -.802E-01 -.256E+00
   -.108E+02 0.622E+01 -.876E+03   0.106E+02 -.608E+01 0.876E+03   0.421E+00 -.238E+00 0.722E+00   -.143E+00 0.675E-01 -.288E+00
   0.593E+00 0.366E+01 -.864E+03   -.501E+00 -.496E+01 0.866E+03   -.680E-01 0.140E+01 -.125E+01   -.726E-02 0.934E-01 -.267E+00
   0.104E+02 0.628E+01 -.875E+03   -.101E+02 -.606E+01 0.875E+03   -.460E+00 -.291E+00 0.724E+00   0.129E+00 0.528E-01 -.283E+00
   -.731E+00 0.167E+01 -.898E+03   0.850E+00 -.164E+01 0.897E+03   -.997E-02 0.943E-02 0.654E+00   -.548E-01 -.262E-02 -.342E+00
   0.972E+00 0.143E+01 -.897E+03   -.113E+01 -.144E+01 0.897E+03   0.432E-01 0.393E-01 0.606E+00   0.695E-01 0.880E-02 -.337E+00
   -.276E+00 -.997E+01 -.872E+03   0.274E+00 0.954E+01 0.871E+03   -.649E-02 0.549E+00 0.651E+00   0.371E-02 -.909E-01 -.287E+00
   0.151E+01 0.351E+01 -.262E+04   -.161E+01 -.353E+01 0.262E+04   0.658E-01 0.364E-02 0.361E+00   0.214E-01 0.141E-01 -.121E+00
   0.511E+02 0.615E+02 -.259E+04   -.498E+02 -.597E+02 0.259E+04   -.141E+01 -.200E+01 -.714E-01   0.188E-01 -.123E-01 -.115E+00
   -.525E+02 0.610E+02 -.260E+04   0.512E+02 -.594E+02 0.260E+04   0.140E+01 -.190E+01 0.222E-01   -.363E-01 -.238E-01 -.123E+00
   0.643E+02 -.536E+01 -.262E+04   -.622E+02 0.548E+01 0.262E+04   -.239E+01 -.147E+00 -.130E+00   -.775E-02 0.117E-01 -.100E+00
   -.684E+02 -.141E+01 -.262E+04   0.669E+02 0.158E+01 0.262E+04   0.194E+01 -.199E+00 0.171E+00   -.889E-02 0.289E-01 -.101E+00
   0.225E+02 -.508E+02 -.263E+04   -.217E+02 0.491E+02 0.263E+04   -.885E+00 0.194E+01 -.828E-01   -.627E-01 -.932E-02 -.104E+00
   -.218E+02 -.545E+02 -.262E+04   0.209E+02 0.528E+02 0.262E+04   0.954E+00 0.207E+01 -.277E+00   0.485E-01 -.164E-01 -.119E+00
   -.138E+01 0.926E+01 -.263E+04   0.138E+01 -.935E+01 0.263E+04   -.320E-02 0.810E-01 0.518E+00   0.711E-03 -.409E-03 -.168E+00
   0.427E+01 -.758E+01 -.992E+03   -.437E+01 0.720E+01 0.994E+03   -.595E-01 0.359E+00 -.182E+00   0.425E-02 -.142E-01 -.309E-01
   -.410E+02 -.145E+03 -.157E+04   0.506E+02 0.170E+03 0.157E+04   -.961E+01 -.259E+02 -.109E+01   0.800E-02 -.246E-01 0.110E-01
   0.530E+02 0.151E+03 -.169E+04   -.681E+02 -.191E+03 0.168E+04   0.151E+02 0.409E+02 0.139E+02   0.394E-03 0.356E-02 0.229E-01
   -.151E+02 -.331E+02 -.328E+03   0.167E+02 0.370E+02 0.335E+03   -.167E+01 -.390E+01 -.700E+01   0.885E-04 -.195E-03 0.640E-02
 -----------------------------------------------------------------------------------------------
   -.315E+01 -.115E+02 0.473E+01   -.995E-13 0.149E-12 0.161E-10   0.323E+01 0.115E+02 0.304E+00   -.770E-02 -.229E-01 -.478E+01
 
 
 POSITION                                       TOTAL-FORCE (eV/Angst)
 -----------------------------------------------------------------------------------
      0.00000      0.00000      5.28038         0.003278      0.000256     -0.156294
      2.93784      0.00000      5.28038        -0.012807     -0.008060     -0.066139
      5.87568      0.00000      5.28038         0.004690     -0.002520     -0.071725
      1.46892      2.54424      5.28038        -0.001317      0.007779     -0.069232
      4.40676      2.54424      5.28038         0.001610     -0.001424     -0.072946
      7.34459      2.54424      5.28038        -0.005926      0.003544     -0.065960
      2.93784      5.08848      5.28038        -0.020006      0.001609     -0.052155
      5.87568      5.08848      5.28038         0.012739      0.006890     -0.049744
      8.81351      5.08848      5.28038         0.002780     -0.002150     -0.088002
      1.46892      0.84808      7.67911        -0.045609     -0.030235      0.084927
      4.40676      0.84808      7.67911         0.005522     -0.079405     -0.026431
      7.34459      0.84808      7.67911         0.050069     -0.032386      0.083030
      2.93784      3.39232      7.67911        -0.056492      0.036925     -0.002159
      5.87568      3.39232      7.67911         0.058432      0.031226     -0.009017
      8.81351      3.39232      7.67911        -0.008593     -0.061697      0.125663
      4.40676      5.93656      7.67911        -0.003541      0.060216      0.080563
      7.34459      5.93656      7.67911        -0.052413      0.037641      0.115887
     10.28243      5.93656      7.67911         0.047893      0.043830      0.123762
      8.81351      1.70341     10.09804         0.007697     -0.072261     -0.031006
      2.93277      1.69323     10.04724        -0.061930     -0.097795     -0.130948
      5.88075      1.69323     10.04724         0.106959     -0.067905     -0.114162
     10.26617      4.24979     10.06844         0.046517     -0.031517      0.007298
      4.40676      4.24626     10.04724         0.014674      0.187454     -0.123678
      7.36086      4.24979     10.06844        -0.044175     -0.025514      0.011498
     11.74508      6.78102     10.09804         0.052526      0.032466     -0.020645
      5.88195      6.78102     10.09804        -0.042973      0.040564     -0.004125
      8.81351      6.76586     10.06844        -0.007114      0.027598      0.008365
      0.00000      0.00000     12.50054        -0.014172     -0.006295     -0.010691
      2.99863      0.09131     12.57640        -0.134681     -0.223676     -0.185816
      5.81488      0.09131     12.57640         0.152383     -0.321286     -0.263813
      1.57839      2.55123     12.57640        -0.301994     -0.014942     -0.215712
      7.23512      2.55123     12.57640         0.434608      0.007042     -0.296858
      2.98652      4.99018     12.57640        -0.158579      0.316573     -0.234285
      5.82700      4.99018     12.57640         0.133691      0.295695     -0.244733
      8.81351      5.08848     12.50707        -0.002401     -0.017041      0.078765
      4.40676      2.54424     12.20058        -0.162914     -0.035410      1.883734
      4.53334      2.63861     14.13662         0.003384     -0.007555      0.001912
      4.18951      1.57484     15.09998         0.002096      0.003397      0.005804
      4.39344      2.05433     15.93348        -0.003913     -0.001631     -0.004931
 -----------------------------------------------------------------------------------
    total drift:                                0.071066      0.002521      0.255578


--------------------------------------------------------------------------------------------------------



  FREE ENERGIE OF THE ION-ELECTRON SYSTEM (eV)
  ---------------------------------------------------
  free  energy   TOTEN  =      -133.48965574 eV

  energy  without entropy=     -133.48965574  energy(sigma->0) =     -133.48965574
 


--------------------------------------------------------------------------------------------------------


    POTLOK:  cpu time    0.0502: real time    0.0503


--------------------------------------------------------------------------------------------------------


 stress matrix after NEB project (eV)
    -21.82374     -0.13657     -0.38529
     -0.13657    -21.60059     -0.06627
     -0.38529     -0.06627      1.62909
  FORCES: max atom, RMS     0.008497    0.002051
  FORCE total and by dimension    0.012810    0.007555
  Stress total and by dimension   30.754805   21.823736
     LOOP+:  cpu time  270.8468: real time  270.8615
 -----------------------------------------------------------------------------
|                                                                             |
|           W    W    AA    RRRRR   N    N  II  N    N   GGGG   !!!           |
|           W    W   A  A   R    R  NN   N  II  NN   N  G    G  !!!           |
|           W    W  A    A  R    R  N N  N  II  N N  N  G       !!!           |
|           W WW W  AAAAAA  RRRRR   N  N N  II  N  N N  G  GGG   !            |
|           WW  WW  A    A  R   R   N   NN  II  N   NN  G    G                |
|           W    W  A    A  R    R  N    N  II  N    N   GGGG   !!!           |
|                                                                             |
|     Tetrahedron method does not include variations of the Fermi             |
|     occupations, so forces and stress will be inaccurate. We suggest        |
|     using a different smearing scheme ISMEAR = 1 or 2 for metals in         |
|     relaxations.                                                            |
|                                                                             |
 -----------------------------------------------------------------------------

    4ORBIT:  cpu time    0.0000: real time    0.0000



 total charge

# of ion       s       p       d       tot
------------------------------------------
    1        0.550   0.237   8.766   9.552
    2        0.542   0.242   8.764   9.548
    3        0.542   0.242   8.764   9.548
    4        0.543   0.241   8.764   9.548
    5        0.545   0.241   8.761   9.548
    6        0.543   0.241   8.764   9.548
    7        0.542   0.242   8.764   9.548
    8        0.540   0.242   8.765   9.547
    9        0.544   0.240   8.766   9.550
   10        0.525   0.305   8.767   9.597
   11        0.519   0.307   8.780   9.607
   12        0.522   0.305   8.770   9.597
   13        0.520   0.308   8.777   9.605
   14        0.519   0.308   8.778   9.606
   15        0.515   0.307   8.771   9.594
   16        0.524   0.306   8.767   9.597
   17        0.515   0.307   8.772   9.595
   18        0.515   0.307   8.772   9.594
   19        0.519   0.292   8.773   9.584
   20        0.581   0.346   8.724   9.650
   21        0.574   0.345   8.727   9.647
   22        0.510   0.305   8.774   9.589
   23        0.583   0.344   8.725   9.652
   24        0.509   0.305   8.776   9.589
   25        0.518   0.292   8.773   9.583
   26        0.519   0.293   8.771   9.583
   27        0.508   0.304   8.777   9.589
   28        0.541   0.228   8.752   9.521
   29        0.592   0.247   8.733   9.571
   30        0.589   0.247   8.736   9.572
   31        0.591   0.249   8.733   9.572
   32        0.584   0.247   8.741   9.572
   33        0.589   0.248   8.735   9.573
   34        0.594   0.246   8.735   9.575
   35        0.537   0.229   8.754   9.521
   36        0.664   0.753   3.080   4.497
   37        1.592   3.308   0.000   4.900
   38        1.597   3.370   0.000   4.967
   39        0.616   0.112   0.000   0.729
--------------------------------------------------
tot         23.470  17.240 309.653 350.363
 
 BZINTS: Fermi energy:    0.122628;  403.000000 electrons
         Band energy:-0.155624E+04;  BLOECHL correction:   -0.036461

 total amount of memory used by VASP MPI-rank0   291723. kBytes
=======================================================================

   base      :      30000. kBytes
   nonlr-proj:      14419. kBytes
   fftplans  :       4948. kBytes
   grid      :      21313. kBytes
   one-center:        606. kBytes
   wavefun   :     220437. kBytes
 
  
  
 General timing and accounting informations for this job:
 ========================================================
  
                  Total CPU time used (sec):      294.945
                            User time (sec):      284.969
                          System time (sec):        9.976
                         Elapsed time (sec):      295.530
  
                   Maximum memory used (kb):      598444.
                   Average memory used (kb):          N/A
  
                          Minor page faults:       126562
                          Major page faults:            0
                 Voluntary context switches:         7054
