PROCAR new format
# of k-points:   10         # of bands:  252         # of ions:   39

 k-point     1 :    0.00000000 0.00000000 0.00000000     weight = 0.01562500

band     1 # energy  -54.45603122 # occ.  2.00000000
 
ion      s      p      d    tot
    1  0.000  0.000  0.000  0.000
    2  0.000  0.000  0.000  0.000
    3  0.000  0.000  0.000  0.000
    4  0.000  0.000  0.000  0.000
    5  0.000  0.000  0.000  0.000
    6  0.000  0.000  0.000  0.000
    7  0.000  0.000  0.000  0.000
    8  0.000  0.000  0.000  0.000
    9  0.000  0.000  0.000  0.000
   10  0.000  0.000  0.000  0.000
   11  0.000  0.000  0.000  0.000
   12  0.000  0.000  0.000  0.000
   13  0.000  0.000  0.000  0.000
   14  0.000  0.000  0.000  0.000
   15  0.000  0.000  0.000  0.000
   16  0.000  0.000  0.000  0.000
   17  0.000  0.000  0.000  0.000
   18  0.000  0.000  0.000  0.000
   19  0.000  0.000  0.000  0.000
   20  0.000  0.000  0.000  0.000
   21  0.000  0.000  0.000  0.000
   22  0.000  0.000  0.000  0.000
   23  0.000  0.000  0.000  0.000
   24  0.000  0.000  0.000  0.000
   25  0.000  0.000  0.000  0.000
   26  0.000  0.000  0.000  0.000
   27  0.000  0.000  0.000  0.000
   28  0.000  0.000  0.000  0.000
   29  0.000  0.000  0.000  0.000
   30  0.000  0.000  0.000  0.000
   31  0.000  0.000  0.000  0.000
   32  0.000  0.000  0.000  0.000
   33  0.000  0.000  0.000  0.000
   34  0.000  0.000  0.000  0.000
   35  0.000  0.000  0.000  0.000
   36  0.992  0.000  0.000  0.992
   37  0.000  0.000  0.000  0.001
   38  0.000  0.000  0.000  0.000
   39  0.000  0.000  0.000  0.000
tot    0.992  0.000  0.000  0.993
 
band     2 # energy  -30.64166936 # occ.  2.00000000
 
ion      s      p      d    tot
    1  0.000  0.000  0.000  0.000
    2  0.000  0.000  0.000  0.000
    3  0.000  0.000  0.000  0.000
    4  0.000  0.000  0.000  0.000
    5  0.000  0.000  0.000  0.000
    6  0.000  0.000  0.000  0.000
    7  0.000  0.000  0.000  0.000
    8  0.000  0.000  0.000  0.000
    9  0.000  0.000  0.000  0.000
   10  0.000  0.000  0.000  0.000
   11  0.000  0.000  0.000  0.000
   12  0.000  0.000  0.000  0.000
   13  0.000  0.000  0.000  0.000
   14  0.000  0.000  0.000  0.000
   15  0.000  0.000  0.000  0.000
   16  0.000  0.000  0.000  0.000
   17  0.000  0.000  0.000  0.000
   18  0.000  0.000  0.000  0.000
   19  0.000  0.000  0.000  0.000
   20  0.000  0.000  0.000  0.000
   21  0.000  0.000  0.000  0.000
   22  0.000  0.000  0.000  0.000
   23  0.000  0.000  0.000  0.000
   24  0.000  0.000  0.000  0.000
   25  0.000  0.000  0.000  0.000
   26  0.000  0.000  0.000  0.000
   27  0.000  0.000  0.000  0.000
   28  0.000  0.000  0.000  0.000
   29  0.000  0.000  0.000  0.000
   30  0.000  0.000  0.000  0.000
   31  0.000  0.000  0.000  0.000
   32  0.000  0.000  0.000  0.000
   33  0.000  0.000  0.000  0.000
   34  0.000  0.000  0.000  0.000
   35  0.000  0.000  0.000  0.000
   36  0.000  0.972  0.000  0.972
   37  0.000  0.000  0.000  0.000
   38  0.000  0.000  0.000  0.000
   39  0.000  0.000  0.000  0.000
tot    0.000  0.973  0.001  0.974
 
band     3 # energy  -30.64166258 # occ.  2.00000000
 
ion      s      p      d    tot
    1  0.000  0.000  0.000  0.000
    2  0.000  0.000  0.000  0.000
    3  0.000  0.000  0.000  0.000
    4  0.000  0.000  0.000  0.000
    5  0.000  0.000  0.000  0.000
    6  0.000  0.000  0.000  0.000
    7  0.000  0.000  0.000  0.000
    8  0.000  0.000  0.000  0.000
    9  0.000  0.000  0.000  0.000
   10  0.000  0.000  0.000  0.000
   11  0.000  0.000  0.000  0.000
   12  0.000  0.000  0.000  0.000
   13  0.000  0.000  0.000  0.000
   14  0.000  0.000  0.000  0.000
   15  0.000  0.000  0.000  0.000
   16  0.000  0.000  0.000  0.000
   17  0.000  0.000  0.000  0.000
   18  0.000  0.000  0.000  0.000
   19  0.000  0.000  0.000  0.000
   20  0.000  0.000  0.000  0.000
   21  0.000  0.000  0.000  0.000
   22  0.000  0.000  0.000  0.000
   23  0.000  0.000  0.000  0.000
   24  0.000  0.000  0.000  0.000
   25  0.000  0.000  0.000  0.000
   26  0.000  0.000  0.000  0.000
   27  0.000  0.000  0.000  0.000
   28  0.000  0.000  0.000  0.000
   29  0.000  0.000  0.000  0.000
   30  0.000  0.000  0.000  0.000
   31  0.000  0.000  0.000  0.000
   32  0.000  0.000  0.000  0.000
   33  0.000  0.000  0.000  0.000
   34  0.000  0.000  0.000  0.000
   35  0.000  0.000  0.000  0.000
   36  0.000  0.972  0.000  0.972
   37  0.000  0.000  0.000  0.000
   38  0.000  0.000  0.000  0.000
   39  0.000  0.000  0.000  0.000
tot    0.000  0.973  0.001  0.974
 
band     4 # energy  -30.49254933 # occ.  2.00000000
 
ion      s      p      d    tot
    1  0.000  0.000  0.000  0.000
    2  0.000  0.000  0.000  0.000
    3  0.000  0.000  0.000  0.000
    4  0.000  0.000  0.000  0.000
    5  0.000  0.000  0.000  0.000
    6  0.000  0.000  0.000  0.000
    7  0.000  0.000  0.000  0.000
    8  0.000  0.000  0.000  0.000
    9  0.000  0.000  0.000  0.000
   10  0.000  0.000  0.000  0.000
   11  0.000  0.000  0.000  0.000
   12  0.000  0.000  0.000  0.000
   13  0.000  0.000  0.000  0.000
   14  0.000  0.000  0.000  0.000
   15  0.000  0.000  0.000  0.000
   16  0.000  0.000  0.000  0.000
   17  0.000  0.000  0.000  0.000
   18  0.000  0.000  0.000  0.000
   19  0.000  0.000  0.000  0.000
   20  0.000  0.000  0.000  0.000
   21  0.000  0.000  0.000  0.000
   22  0.000  0.000  0.000  0.000
   23  0.000  0.000  0.000  0.000
   24  0.000  0.000  0.000  0.000
   25  0.000  0.000  0.000  0.000
   26  0.000  0.000  0.000  0.000
   27  0.000  0.000  0.000  0.000
   28  0.000  0.000  0.000  0.000
   29  0.000  0.000  0.000  0.000
   30  0.000  0.000  0.000  0.000
   31  0.000  0.000  0.000  0.000
   32  0.000  0.000  0.000  0.000
   33  0.000  0.000  0.000  0.000
   34  0.000  0.000  0.000  0.000
   35  0.000  0.000  0.000  0.000
   36  0.000  0.962  0.000  0.962
   37  0.005  0.004  0.000  0.010
   38  0.000  0.000  0.000  0.000
   39  0.000  0.000  0.000  0.000
tot    0.006  0.967  0.001  0.973
 
band     5 # energy  -23.21818863 # occ.  2.00000000
 
ion      s      p      d    tot
    1  0.000  0.000  0.000  0.000
    2  0.000  0.000  0.000  0.000
    3  0.000  0.000  0.000  0.000
    4  0.000  0.000  0.000  0.000
    5  0.000  0.000  0.000  0.000
    6  0.000  0.000  0.000  0.000
    7  0.000  0.000  0.000  0.000
    8  0.000  0.000  0.000  0.000
    9  0.000  0.000  0.000  0.000
   10  0.000  0.000  0.000  0.000
   11  0.000  0.000  0.000  0.000
   12  0.000  0.000  0.000  0.000
   13  0.000  0.000  0.000  0.000
   14  0.000  0.000  0.000  0.000
   15  0.000  0.000  0.000  0.000
   16  0.000  0.000  0.000  0.000
   17  0.000  0.000  0.000  0.000
   18  0.000  0.000  0.000  0.000
   19  0.000  0.000  0.000  0.000
   20  0.000  0.000  0.000  0.000
   21  0.000  0.000  0.000  0.000
   22  0.000  0.000  0.000  0.000
   23  0.000  0.000  0.000  0.000
   24  0.000  0.000  0.000  0.000
   25  0.000  0.000  0.000  0.000
   26  0.000  0.000  0.000  0.000
   27  0.000  0.000  0.000  0.000
   28  0.000  0.000  0.000  0.000
   29  0.000  0.000  0.000  0.000
   30  0.000  0.000  0.000  0.000
   31  0.000  0.000  0.000  0.000
   32  0.000  0.000  0.000  0.000
   33  0.000  0.000  0.000  0.000
   34  0.000  0.000  0.000  0.000
   35  0.000  0.000  0.000  0.000
   36  0.000  0.000  0.000  0.000
   37  0.071  0.053  0.000  0.124
   38  0.727  0.005  0.000  0.732
   39  0.067  0.014  0.000  0.081
tot    0.864  0.072  0.000  0.936
 
band     6 # energy  -13.98061174 # occ.  2.00000000
 
ion      s      p      d    tot
    1  0.000  0.000  0.000  0.000
    2  0.000  0.000  0.000  0.000
    3  0.000  0.000  0.000  0.000
    4  0.000  0.000  0.000  0.000
    5  0.000  0.000  0.000  0.000
    6  0.000  0.000  0.000  0.000
    7  0.000  0.000  0.000  0.000
    8  0.000  0.000  0.000  0.000
    9  0.000  0.000  0.000  0.000
   10  0.000  0.000  0.000  0.000
   11  0.000  0.000  0.000  0.000
   12  0.000  0.000  0.000  0.000
   13  0.000  0.000  0.000  0.000
   14  0.000  0.000  0.000  0.000
   15  0.000  0.000  0.000  0.000
   16  0.000  0.000  0.000  0.000
   17  0.000  0.000  0.000  0.000
   18  0.000  0.000  0.000  0.000
   19  0.000  0.000  0.000  0.000
   20  0.000  0.000  0.000  0.000
   21  0.000  0.000  0.000  0.000
   22  0.000  0.000  0.000  0.000
   23  0.000  0.000  0.000  0.000
   24  0.000  0.000  0.000  0.000
   25  0.000  0.000  0.000  0.000
   26  0.000  0.000  0.000  0.000
   27  0.000  0.000  0.000  0.000
   28  0.000  0.000  0.000  0.000
   29  0.000  0.000  0.000  0.000
   30  0.000  0.000  0.000  0.000
   31  0.000  0.000  0.000  0.000
   32  0.000  0.000  0.000  0.000
   33  0.000  0.000  0.000  0.000
   34  0.000  0.000  0.000  0.000
   35  0.000  0.000  0.000  0.000
   36  0.001  0.001  0.001  0.003
   37  0.155  0.054  0.000  0.209
   38  0.013  0.523  0.000  0.537
   39  0.201  0.032  0.000  0.233
tot    0.370  0.610  0.001  0.982
 
band     7 # energy   -6.74828842 # occ.  2.00000000
 
ion      s      p      d    tot
    1  0.004  0.000  0.000  0.005
    2  0.004  0.000  0.000  0.004
    3  0.004  0.000  0.000  0.004
    4  0.004  0.000  0.000  0.004
    5  0.004  0.000  0.000  0.004
    6  0.004  0.000  0.000  0.004
    7  0.004  0.000  0.000  0.004
    8  0.004  0.000  0.000  0.004
    9  0.004  0.000  0.000  0.004
   10  0.018  0.000  0.000  0.018
   11  0.018  0.000  0.000  0.018
   12  0.018  0.000  0.000  0.018
   13  0.018  0.000  0.000  0.018
   14  0.018  0.000  0.000  0.018
   15  0.016  0.000  0.000  0.016
   16  0.018  0.000  0.000  0.018
   17  0.016  0.000  0.000  0.016
   18  0.016  0.000  0.000  0.016
   19  0.020  0.000  0.001  0.020
   20  0.027  0.000  0.002  0.030
   21  0.027  0.000  0.002  0.030
   22  0.019  0.000  0.000  0.019
   23  0.027  0.000  0.002  0.030
   24  0.019  0.000  0.000  0.019
   25  0.020  0.000  0.001  0.020
   26  0.020  0.000  0.001  0.020
   27  0.019  0.000  0.000  0.019
   28  0.005  0.000  0.000  0.006
   29  0.007  0.000  0.000  0.007
   30  0.007  0.000  0.000  0.007
   31  0.007  0.000  0.000  0.007
   32  0.007  0.000  0.000  0.007
   33  0.007  0.000  0.000  0.007
   34  0.007  0.000  0.000  0.007
   35  0.005  0.000  0.000  0.006
   36  0.018  0.001  0.016  0.035
   37  0.025  0.022  0.000  0.048
   38  0.002  0.007  0.000  0.009
   39  0.002  0.000  0.000  0.002
tot    0.489  0.040  0.029  0.558
 
band     8 # energy   -6.25756960 # occ.  2.00000000
 
ion      s      p      d    tot
    1  0.003  0.000  0.000  0.004
    2  0.004  0.000  0.000  0.005
    3  0.004  0.000  0.000  0.005
    4  0.004  0.000  0.000  0.005
    5  0.005  0.000  0.000  0.005
    6  0.004  0.000  0.000  0.005
    7  0.004  0.000  0.000  0.005
    8  0.004  0.000  0.000  0.005
    9  0.005  0.000  0.000  0.005
   10  0.008  0.000  0.003  0.011
   11  0.010  0.000  0.001  0.011
   12  0.008  0.000  0.003  0.011
   13  0.010  0.000  0.001  0.011
   14  0.010  0.000  0.001  0.011
   15  0.011  0.000  0.001  0.012
   16  0.008  0.000  0.003  0.011
   17  0.011  0.000  0.001  0.012
   18  0.011  0.000  0.001  0.012
   19  0.001  0.000  0.001  0.003
   20  0.000  0.002  0.019  0.022
   21  0.000  0.002  0.019  0.022
   22  0.002  0.000  0.000  0.003
   23  0.000  0.002  0.019  0.022
   24  0.002  0.000  0.000  0.003
   25  0.001  0.000  0.001  0.003
   26  0.001  0.000  0.001  0.003
   27  0.002  0.000  0.000  0.003
   28  0.000  0.000  0.001  0.001
   29  0.001  0.000  0.002  0.003
   30  0.001  0.000  0.002  0.003
   31  0.001  0.000  0.002  0.003
   32  0.001  0.000  0.002  0.003
   33  0.001  0.000  0.002  0.003
   34  0.001  0.000  0.002  0.003
   35  0.000  0.000  0.000  0.001
   36  0.038  0.013  0.089  0.139
   37  0.128  0.104  0.000  0.232
   38  0.010  0.032  0.000  0.042
   39  0.010  0.001  0.000  0.010
tot    0.328  0.163  0.180  0.671
 
band     9 # energy   -6.03497713 # occ.  2.00000000
 
ion      s      p      d    tot
    1  0.000  0.000  0.000  0.000
    2  0.000  0.000  0.000  0.000
    3  0.000  0.000  0.000  0.000
    4  0.000  0.000  0.000  0.000
    5  0.000  0.000  0.000  0.000
    6  0.000  0.000  0.000  0.000
    7  0.000  0.000  0.000  0.000
    8  0.000  0.000  0.000  0.000
    9  0.000  0.000  0.000  0.000
   10  0.000  0.000  0.000  0.000
   11  0.000  0.000  0.000  0.000
   12  0.000  0.000  0.000  0.000
   13  0.000  0.000  0.000  0.000
   14  0.000  0.000  0.000  0.000
   15  0.000  0.000  0.000  0.000
   16  0.000  0.000  0.000  0.000
   17  0.000  0.000  0.000  0.000
   18  0.000  0.000  0.000  0.000
   19  0.000  0.000  0.000  0.000
   20  0.000  0.000  0.001  0.001
   21  0.000  0.000  0.001  0.001
   22  0.000  0.000  0.000  0.000
   23  0.000  0.000  0.001  0.001
   24  0.000  0.000  0.000  0.000
   25  0.000  0.000  0.000  0.000
   26  0.000  0.000  0.000  0.000
   27  0.000  0.000  0.000  0.000
   28  0.000  0.000  0.000  0.000
   29  0.000  0.000  0.002  0.002
   30  0.000  0.000  0.000  0.000
   31  0.000  0.000  0.002  0.002
   32  0.000  0.000  0.002  0.002
   33  0.000  0.000  0.000  0.000
   34  0.000  0.000  0.002  0.002
   35  0.000  0.000  0.000  0.000
   36  0.000  0.001  0.009  0.010
   37  0.000  0.106  0.000  0.106
   38  0.000  0.533  0.000  0.533
   39  0.000  0.008  0.000  0.008
tot    0.001  0.648  0.020  0.669
 
band    10 # energy   -6.03484122 # occ.  2.00000000
 
ion      s      p      d    tot
    1  0.000  0.000  0.000  0.000
    2  0.000  0.000  0.000  0.000
    3  0.000  0.000  0.000  0.000
    4  0.000  0.000  0.000  0.000
    5  0.000  0.000  0.000  0.000
    6  0.000  0.000  0.000  0.000
    7  0.000  0.000  0.000  0.000
    8  0.000  0.000  0.000  0.000
    9  0.000  0.000  0.000  0.000
   10  0.000  0.000  0.000  0.000
   11  0.000  0.000  0.000  0.000
   12  0.000  0.000  0.000  0.000
   13  0.000  0.000  0.000  0.000
   14  0.000  0.000  0.000  0.000
   15  0.000  0.000  0.000  0.000
   16  0.000  0.000  0.000  0.000
   17  0.000  0.000  0.000  0.000
   18  0.000  0.000  0.000  0.000
   19  0.000  0.000  0.000  0.000
   20  0.000  0.000  0.001  0.001
   21  0.000  0.000  0.001  0.001
   22  0.000  0.000  0.000  0.000
   23  0.000  0.000  0.001  0.001
   24  0.000  0.000  0.000  0.000
   25  0.000  0.000  0.000  0.000
   26  0.000  0.000  0.000  0.000
   27  0.000  0.000  0.000  0.000
   28  0.000  0.000  0.000  0.000
   29  0.000  0.000  0.001  0.001
   30  0.000  0.000  0.002  0.003
   31  0.000  0.000  0.001  0.001
   32  0.000  0.000  0.001  0.001
   33  0.000  0.000  0.002  0.003
   34  0.000  0.000  0.001  0.001
   35  0.000  0.000  0.000  0.000
   36  0.000  0.001  0.009  0.010
   37  0.000  0.106  0.000  0.106
   38  0.000  0.533  0.000  0.533
   39  0.000  0.008  0.000  0.008
tot    0.002  0.648  0.020  0.669
 
band    11 # energy   -5.75490893 # occ.  2.00000000
 
ion      s      p      d    tot
    1  0.007  0.001  0.000  0.007
    2  0.005  0.000  0.000  0.005
    3  0.005  0.000  0.000  0.005
    4  0.005  0.000  0.000  0.005
    5  0.004  0.000  0.000  0.004
    6  0.005  0.000  0.000  0.005
    7  0.005  0.000  0.000  0.005
    8  0.005  0.000  0.000  0.005
    9  0.004  0.000  0.000  0.004
   10  0.010  0.001  0.013  0.025
   11  0.007  0.001  0.019  0.026
   12  0.010  0.001  0.013  0.025
   13  0.007  0.001  0.019  0.026
   14  0.007  0.001  0.019  0.026
   15  0.005  0.001  0.015  0.021
   16  0.010  0.001  0.013  0.025
   17  0.005  0.001  0.015  0.021
   18  0.005  0.001  0.015  0.021
   19  0.013  0.001  0.020  0.034
   20  0.008  0.000  0.037  0.045
   21  0.008  0.000  0.037  0.045
   22  0.017  0.000  0.019  0.037
   23  0.008  0.000  0.037  0.045
   24  0.017  0.000  0.019  0.037
   25  0.013  0.001  0.020  0.034
   26  0.013  0.001  0.020  0.034
   27  0.017  0.000  0.019  0.037
   28  0.006  0.001  0.000  0.007
   29  0.003  0.001  0.001  0.005
   30  0.003  0.001  0.001  0.005
   31  0.003  0.001  0.001  0.005
   32  0.003  0.001  0.001  0.005
   33  0.003  0.001  0.001  0.005
   34  0.003  0.001  0.001  0.005
   35  0.006  0.001  0.000  0.007
   36  0.001  0.002  0.012  0.015
   37  0.015  0.011  0.000  0.026
   38  0.001  0.003  0.000  0.004
   39  0.001  0.000  0.000  0.001
tot    0.277  0.036  0.388  0.701
 
band    12 # energy   -5.53399664 # occ.  2.00000000
 
ion      s      p      d    tot
    1  0.015  0.000  0.018  0.033
    2  0.012  0.000  0.017  0.028
    3  0.012  0.000  0.017  0.028
    4  0.012  0.000  0.017  0.028
    5  0.009  0.000  0.015  0.024
    6  0.012  0.000  0.017  0.028
    7  0.012  0.000  0.017  0.028
    8  0.012  0.000  0.017  0.028
    9  0.011  0.000  0.016  0.027
   10  0.000  0.000  0.023  0.024
   11  0.000  0.000  0.010  0.011
   12  0.000  0.000  0.023  0.024
   13  0.000  0.000  0.010  0.011
   14  0.000  0.000  0.010  0.011
   15  0.000  0.001  0.009  0.010
   16  0.000  0.000  0.023  0.024
   17  0.000  0.001  0.009  0.010
   18  0.000  0.001  0.009  0.010
   19  0.000  0.000  0.014  0.015
   20  0.000  0.000  0.033  0.034
   21  0.000  0.000  0.033  0.034
   22  0.001  0.000  0.008  0.009
   23  0.000  0.000  0.033  0.034
   24  0.001  0.000  0.008  0.009
   25  0.000  0.000  0.014  0.015
   26  0.000  0.000  0.014  0.015
   27  0.001  0.000  0.008  0.009
   28  0.010  0.000  0.009  0.019
   29  0.010  0.000  0.012  0.023
   30  0.010  0.000  0.012  0.023
   31  0.010  0.000  0.012  0.023
   32  0.010  0.000  0.012  0.023
   33  0.010  0.000  0.012  0.023
   34  0.010  0.000  0.012  0.023
   35  0.014  0.000  0.010  0.025
   36  0.001  0.000  0.010  0.011
   37  0.001  0.001  0.000  0.002
   38  0.000  0.000  0.000  0.000
   39  0.000  0.000  0.000  0.000
tot    0.200  0.008  0.543  0.752
 
band    13 # energy   -5.42144325 # occ.  2.00000000
 
ion      s      p      d    tot
    1  0.000  0.000  0.008  0.008
    2  0.000  0.000  0.002  0.003
    3  0.001  0.000  0.002  0.003
    4  0.000  0.000  0.002  0.003
    5  0.000  0.000  0.003  0.003
    6  0.000  0.000  0.002  0.003
    7  0.001  0.000  0.002  0.003
    8  0.000  0.000  0.002  0.003
    9  0.000  0.000  0.002  0.002
   10  0.000  0.001  0.020  0.021
   11  0.000  0.000  0.023  0.024
   12  0.006  0.001  0.019  0.026
   13  0.000  0.000  0.023  0.024
   14  0.000  0.000  0.024  0.025
   15  0.004  0.000  0.010  0.015
   16  0.006  0.001  0.019  0.026
   17  0.004  0.000  0.010  0.015
   18  0.000  0.000  0.015  0.015
   19  0.018  0.001  0.037  0.056
   20  0.000  0.000  0.171  0.171
   21  0.015  0.000  0.051  0.067
   22  0.000  0.001  0.035  0.036
   23  0.016  0.000  0.048  0.064
   24  0.000  0.001  0.032  0.034
   25  0.000  0.001  0.036  0.037
   26  0.018  0.001  0.037  0.056
   27  0.000  0.001  0.035  0.036
   28  0.000  0.000  0.006  0.006
   29  0.000  0.000  0.007  0.007
   30  0.000  0.000  0.002  0.003
   31  0.000  0.000  0.007  0.008
   32  0.001  0.000  0.005  0.006
   33  0.000  0.000  0.002  0.003
   34  0.001  0.000  0.005  0.006
   35  0.000  0.000  0.000  0.000
   36  0.000  0.000  0.002  0.002
   37  0.000  0.000  0.000  0.000
   38  0.000  0.002  0.000  0.002
   39  0.000  0.000  0.000  0.000
tot    0.093  0.015  0.711  0.819
 
band    14 # energy   -5.42140590 # occ.  2.00000000
 
ion      s      p      d    tot
    1  0.000  0.000  0.008  0.008
    2  0.001  0.000  0.002  0.003
    3  0.000  0.000  0.002  0.002
    4  0.001  0.000  0.002  0.003
    5  0.000  0.000  0.003  0.003
    6  0.001  0.000  0.002  0.003
    7  0.000  0.000  0.002  0.002
    8  0.001  0.000  0.002  0.003
    9  0.000  0.000  0.002  0.002
   10  0.008  0.001  0.019  0.028
   11  0.000  0.000  0.024  0.024
   12  0.002  0.001  0.020  0.022
   13  0.000  0.000  0.024  0.024
   14  0.000  0.000  0.023  0.023
   15  0.001  0.000  0.013  0.015
   16  0.002  0.001  0.020  0.022
   17  0.001  0.000  0.013  0.015
   18  0.006  0.001  0.008  0.015
   19  0.006  0.001  0.036  0.043
   20  0.021  0.001  0.009  0.031
   21  0.005  0.000  0.129  0.134
   22  0.000  0.001  0.033  0.035
   23  0.005  0.000  0.132  0.137
   24  0.000  0.000  0.036  0.036
   25  0.024  0.000  0.037  0.062
   26  0.006  0.001  0.036  0.044
   27  0.000  0.001  0.033  0.035
   28  0.000  0.000  0.006  0.006
   29  0.001  0.000  0.002  0.003
   30  0.001  0.000  0.007  0.008
   31  0.001  0.000  0.002  0.003
   32  0.000  0.000  0.005  0.005
   33  0.001  0.000  0.007  0.008
   34  0.000  0.000  0.005  0.005
   35  0.000  0.000  0.000  0.000
   36  0.000  0.000  0.002  0.002
   37  0.000  0.000  0.000  0.000
   38  0.000  0.002  0.000  0.002
   39  0.000  0.000  0.000  0.000
tot    0.093  0.015  0.711  0.819
 
band    15 # energy   -5.40868858 # occ.  2.00000000
 
ion      s      p      d    tot
    1  0.002  0.000  0.006  0.009
    2  0.004  0.000  0.012  0.016
    3  0.004  0.000  0.012  0.016
    4  0.004  0.000  0.012  0.016
    5  0.007  0.000  0.016  0.023
    6  0.004  0.000  0.012  0.016
    7  0.004  0.000  0.012  0.016
    8  0.004  0.000  0.012  0.016
    9  0.004  0.000  0.006  0.010
   10  0.000  0.001  0.001  0.002
   11  0.004  0.001  0.035  0.039
   12  0.000  0.001  0.001  0.002
   13  0.004  0.001  0.035  0.039
   14  0.004  0.001  0.035  0.039
   15  0.000  0.000  0.027  0.027
   16  0.000  0.001  0.001  0.002
   17  0.000  0.000  0.027  0.027
   18  0.000  0.000  0.027  0.027
   19  0.002  0.000  0.029  0.031
   20  0.006  0.001  0.083  0.090
   21  0.006  0.001  0.083  0.089
   22  0.004  0.000  0.009  0.014
   23  0.006  0.001  0.083  0.089
   24  0.004  0.000  0.009  0.014
   25  0.002  0.000  0.029  0.031
   26  0.002  0.000  0.029  0.031
   27  0.004  0.000  0.009  0.014
   28  0.000  0.000  0.000  0.001
   29  0.001  0.000  0.007  0.009
   30  0.001  0.000  0.007  0.009
   31  0.001  0.000  0.007  0.009
   32  0.001  0.000  0.007  0.009
   33  0.001  0.000  0.007  0.009
   34  0.001  0.000  0.007  0.009
   35  0.003  0.000  0.000  0.003
   36  0.002  0.001  0.001  0.003
   37  0.002  0.001  0.000  0.004
   38  0.000  0.001  0.000  0.001
   39  0.000  0.000  0.000  0.000
tot    0.101  0.012  0.698  0.811
 
band    16 # energy   -5.40273030 # occ.  2.00000000
 
ion      s      p      d    tot
    1  0.000  0.000  0.005  0.005
    2  0.001  0.001  0.007  0.009
    3  0.001  0.000  0.003  0.004
    4  0.001  0.001  0.007  0.009
    5  0.000  0.000  0.009  0.009
    6  0.000  0.000  0.003  0.004
    7  0.001  0.000  0.003  0.004
    8  0.000  0.000  0.003  0.004
    9  0.000  0.000  0.001  0.001
   10  0.000  0.000  0.097  0.098
   11  0.024  0.001  0.031  0.055
   12  0.007  0.001  0.035  0.042
   13  0.023  0.001  0.032  0.056
   14  0.000  0.001  0.072  0.073
   15  0.004  0.000  0.029  0.034
   16  0.007  0.001  0.033  0.041
   17  0.004  0.001  0.029  0.033
   18  0.000  0.002  0.009  0.011
   19  0.000  0.000  0.020  0.021
   20  0.000  0.001  0.027  0.028
   21  0.010  0.001  0.034  0.045
   22  0.010  0.001  0.015  0.026
   23  0.010  0.001  0.034  0.045
   24  0.000  0.000  0.038  0.038
   25  0.000  0.000  0.031  0.031
   26  0.000  0.000  0.020  0.021
   27  0.010  0.001  0.015  0.026
   28  0.000  0.000  0.001  0.001
   29  0.000  0.000  0.002  0.002
   30  0.001  0.000  0.003  0.004
   31  0.000  0.000  0.002  0.002
   32  0.001  0.000  0.004  0.006
   33  0.001  0.000  0.003  0.004
   34  0.001  0.000  0.004  0.006
   35  0.000  0.000  0.006  0.006
   36  0.000  0.000  0.002  0.002
   37  0.000  0.000  0.000  0.000
   38  0.000  0.000  0.000  0.000
   39  0.000  0.000  0.000  0.000
tot    0.118  0.016  0.671  0.805
 
band    17 # energy   -5.40271920 # occ.  2.00000000
 
ion      s      p      d    tot
    1  0.000  0.000  0.005  0.005
    2  0.000  0.000  0.002  0.002
    3  0.001  0.000  0.006  0.007
    4  0.000  0.000  0.002  0.002
    5  0.000  0.000  0.009  0.009
    6  0.001  0.001  0.005  0.007
    7  0.001  0.000  0.006  0.007
    8  0.001  0.001  0.005  0.007
    9  0.000  0.000  0.001  0.001
   10  0.009  0.001  0.013  0.023
   11  0.008  0.001  0.059  0.068
   12  0.002  0.000  0.075  0.078
   13  0.008  0.001  0.058  0.067
   14  0.031  0.001  0.017  0.049
   15  0.001  0.001  0.016  0.018
   16  0.002  0.000  0.077  0.079
   17  0.001  0.001  0.016  0.019
   18  0.005  0.000  0.036  0.042
   19  0.000  0.000  0.027  0.028
   20  0.014  0.001  0.036  0.051
   21  0.003  0.001  0.030  0.034
   22  0.003  0.000  0.030  0.034
   23  0.003  0.001  0.029  0.034
   24  0.013  0.001  0.007  0.022
   25  0.000  0.000  0.017  0.017
   26  0.000  0.000  0.027  0.028
   27  0.003  0.000  0.031  0.034
   28  0.000  0.000  0.001  0.001
   29  0.001  0.000  0.004  0.006
   30  0.001  0.000  0.003  0.004
   31  0.001  0.000  0.004  0.006
   32  0.000  0.000  0.002  0.003
   33  0.001  0.000  0.003  0.004
   34  0.000  0.000  0.002  0.003
   35  0.000  0.000  0.006  0.006
   36  0.000  0.000  0.002  0.002
   37  0.000  0.000  0.000  0.000
   38  0.000  0.000  0.000  0.000
   39  0.000  0.000  0.000  0.000
tot    0.118  0.016  0.671  0.805
 
band    18 # energy   -5.38892795 # occ.  2.00000000
 
ion      s      p      d    tot
    1  0.000  0.000  0.001  0.001
    2  0.000  0.000  0.007  0.008
    3  0.000  0.000  0.007  0.008
    4  0.000  0.000  0.007  0.008
    5  0.008  0.001  0.000  0.009
    6  0.000  0.000  0.007  0.008
    7  0.000  0.000  0.007  0.008
    8  0.000  0.000  0.007  0.008
    9  0.001  0.000  0.008  0.009
   10  0.007  0.001  0.009  0.017
   11  0.011  0.001  0.026  0.038
   12  0.007  0.001  0.009  0.017
   13  0.011  0.001  0.026  0.038
   14  0.011  0.001  0.026  0.038
   15  0.002  0.000  0.044  0.047
   16  0.007  0.001  0.009  0.017
   17  0.002  0.000  0.044  0.047
   18  0.002  0.000  0.044  0.046
   19  0.016  0.001  0.021  0.038
   20  0.005  0.001  0.019  0.025
   21  0.005  0.001  0.019  0.025
   22  0.001  0.000  0.056  0.057
   23  0.005  0.001  0.019  0.025
   24  0.001  0.000  0.056  0.057
   25  0.016  0.001  0.021  0.038
   26  0.016  0.001  0.021  0.038
   27  0.001  0.000  0.056  0.057
   28  0.004  0.001  0.006  0.011
   29  0.000  0.000  0.006  0.007
   30  0.000  0.000  0.006  0.007
   31  0.000  0.000  0.006  0.007
   32  0.000  0.000  0.006  0.007
   33  0.000  0.000  0.006  0.007
   34  0.000  0.000  0.006  0.007
   35  0.003  0.000  0.003  0.006
   36  0.001  0.000  0.000  0.001
   37  0.000  0.000  0.000  0.001
   38  0.000  0.000  0.000  0.000
   39  0.000  0.000  0.000  0.000
tot    0.147  0.019  0.624  0.789
 
band    19 # energy   -5.37902044 # occ.  2.00000000
 
ion      s      p      d    tot
    1  0.000  0.001  0.025  0.026
    2  0.001  0.000  0.006  0.007
    3  0.001  0.000  0.006  0.007
    4  0.001  0.000  0.006  0.007
    5  0.000  0.000  0.000  0.000
    6  0.001  0.000  0.006  0.007
    7  0.001  0.000  0.006  0.007
    8  0.001  0.000  0.006  0.007
    9  0.007  0.001  0.001  0.009
   10  0.006  0.000  0.090  0.096
   11  0.001  0.000  0.046  0.048
   12  0.006  0.000  0.090  0.096
   13  0.001  0.000  0.046  0.048
   14  0.001  0.000  0.046  0.048
   15  0.010  0.001  0.008  0.018
   16  0.006  0.000  0.090  0.096
   17  0.010  0.001  0.008  0.018
   18  0.010  0.001  0.008  0.018
   19  0.000  0.000  0.024  0.025
   20  0.002  0.000  0.013  0.015
   21  0.002  0.000  0.013  0.015
   22  0.000  0.000  0.017  0.017
   23  0.002  0.000  0.013  0.015
   24  0.000  0.000  0.016  0.017
   25  0.000  0.000  0.024  0.025
   26  0.000  0.000  0.024  0.025
   27  0.000  0.000  0.017  0.017
   28  0.007  0.000  0.007  0.014
   29  0.001  0.000  0.011  0.012
   30  0.001  0.000  0.011  0.012
   31  0.001  0.000  0.011  0.012
   32  0.001  0.000  0.011  0.012
   33  0.001  0.000  0.011  0.012
   34  0.001  0.000  0.011  0.012
   35  0.001  0.000  0.004  0.005
   36  0.000  0.000  0.000  0.001
   37  0.001  0.000  0.000  0.001
   38  0.000  0.000  0.000  0.000
   39  0.000  0.000  0.000  0.000
tot    0.086  0.010  0.732  0.828
 
band    20 # energy   -5.36593853 # occ.  2.00000000
 
ion      s      p      d    tot
    1  0.001  0.000  0.004  0.005
    2  0.003  0.000  0.011  0.013
    3  0.003  0.000  0.011  0.013
    4  0.003  0.000  0.011  0.013
    5  0.002  0.000  0.004  0.006
    6  0.003  0.000  0.011  0.013
    7  0.003  0.000  0.011  0.013
    8  0.003  0.000  0.011  0.013
    9  0.005  0.000  0.021  0.026
   10  0.001  0.000  0.025  0.026
   11  0.000  0.000  0.003  0.004
   12  0.001  0.000  0.024  0.025
   13  0.000  0.000  0.003  0.004
   14  0.000  0.000  0.003  0.004
   15  0.004  0.000  0.040  0.044
   16  0.001  0.000  0.024  0.025
   17  0.004  0.000  0.040  0.044
   18  0.004  0.000  0.040  0.044
   19  0.001  0.001  0.006  0.008
   20  0.001  0.000  0.034  0.035
   21  0.001  0.000  0.034  0.035
   22  0.003  0.001  0.046  0.049
   23  0.001  0.000  0.034  0.035
   24  0.003  0.001  0.046  0.050
   25  0.001  0.001  0.006  0.008
   26  0.001  0.001  0.006  0.008
   27  0.003  0.001  0.046  0.049
   28  0.009  0.000  0.003  0.012
   29  0.006  0.000  0.016  0.022
   30  0.006  0.000  0.016  0.022
   31  0.006  0.000  0.016  0.022
   32  0.006  0.000  0.016  0.022
   33  0.006  0.000  0.016  0.022
   34  0.006  0.000  0.016  0.022
   35  0.008  0.000  0.034  0.043
   36  0.000  0.000  0.004  0.004
   37  0.001  0.001  0.000  0.002
   38  0.000  0.000  0.000  0.000
   39  0.000  0.000  0.000  0.000