PROCAR new format
# of k-points:   10         # of bands:  252         # of ions:   37

 k-point     1 :    0.00000000 0.00000000 0.00000000     weight = 0.01562500

band     1 # energy   -6.36605492 # occ.  2.00000000
 
ion      s      p      d    tot
    1  0.006  0.001  0.000  0.006
    2  0.005  0.001  0.000  0.006
    3  0.005  0.001  0.000  0.006
    4  0.005  0.001  0.000  0.006
    5  0.005  0.001  0.000  0.006
    6  0.005  0.001  0.000  0.006
    7  0.005  0.001  0.000  0.006
    8  0.005  0.001  0.000  0.006
    9  0.005  0.001  0.000  0.006
   10  0.022  0.000  0.000  0.022
   11  0.022  0.000  0.000  0.023
   12  0.022  0.000  0.000  0.022
   13  0.022  0.000  0.000  0.023
   14  0.022  0.000  0.000  0.023
   15  0.021  0.000  0.000  0.022
   16  0.022  0.000  0.000  0.022
   17  0.021  0.000  0.000  0.022
   18  0.021  0.000  0.000  0.022
   19  0.022  0.000  0.000  0.022
   20  0.027  0.000  0.001  0.027
   21  0.027  0.000  0.001  0.027
   22  0.022  0.000  0.000  0.023
   23  0.027  0.000  0.001  0.027
   24  0.022  0.000  0.000  0.023
   25  0.022  0.000  0.000  0.022
   26  0.022  0.000  0.000  0.022
   27  0.022  0.000  0.000  0.023
   28  0.006  0.001  0.000  0.006
   29  0.006  0.001  0.000  0.007
   30  0.006  0.001  0.000  0.007
   31  0.006  0.001  0.000  0.007
   32  0.006  0.001  0.000  0.007
   33  0.006  0.001  0.000  0.007
   34  0.006  0.001  0.000  0.007
   35  0.006  0.001  0.000  0.006
   36  0.022  0.000  0.001  0.024
   37  0.002  0.000  0.000  0.003
tot    0.531  0.012  0.008  0.551
 
band     2 # energy   -5.52713160 # occ.  2.00000000
 
ion      s      p      d    tot
    1  0.008  0.000  0.001  0.009
    2  0.009  0.000  0.001  0.010
    3  0.009  0.000  0.001  0.010
    4  0.009  0.000  0.001  0.010
    5  0.010  0.000  0.000  0.010
    6  0.009  0.000  0.001  0.010
    7  0.009  0.000  0.001  0.010
    8  0.009  0.000  0.001  0.010
    9  0.010  0.001  0.000  0.011
   10  0.011  0.001  0.014  0.025
   11  0.012  0.001  0.010  0.023
   12  0.011  0.001  0.014  0.025
   13  0.012  0.001  0.010  0.023
   14  0.012  0.001  0.010  0.023
   15  0.015  0.001  0.009  0.025
   16  0.011  0.001  0.014  0.025
   17  0.015  0.001  0.009  0.025
   18  0.015  0.001  0.009  0.025
   19  0.006  0.001  0.010  0.017
   20  0.014  0.002  0.013  0.029
   21  0.014  0.002  0.013  0.029
   22  0.005  0.001  0.009  0.015
   23  0.014  0.002  0.013  0.029
   24  0.005  0.001  0.009  0.015
   25  0.006  0.001  0.010  0.017
   26  0.006  0.001  0.010  0.017
   27  0.005  0.001  0.009  0.015
   28  0.006  0.000  0.001  0.007
   29  0.009  0.000  0.002  0.011
   30  0.009  0.000  0.002  0.011
   31  0.009  0.000  0.002  0.011
   32  0.009  0.000  0.002  0.011
   33  0.009  0.000  0.002  0.011
   34  0.009  0.000  0.002  0.011
   35  0.005  0.000  0.001  0.006
   36  0.054  0.000  0.006  0.060
   37  0.010  0.000  0.000  0.010
tot    0.396  0.028  0.218  0.642
 
band     3 # energy   -5.22987458 # occ.  2.00000000
 
ion      s      p      d    tot
    1  0.000  0.000  0.013  0.013
    2  0.003  0.000  0.007  0.010
    3  0.003  0.000  0.007  0.010
    4  0.003  0.000  0.007  0.010
    5  0.004  0.000  0.005  0.009
    6  0.003  0.000  0.007  0.010
    7  0.003  0.000  0.007  0.010
    8  0.003  0.000  0.007  0.010
    9  0.006  0.000  0.005  0.012
   10  0.004  0.000  0.018  0.022
   11  0.001  0.000  0.024  0.025
   12  0.004  0.000  0.018  0.022
   13  0.001  0.000  0.024  0.025
   14  0.001  0.000  0.024  0.025
   15  0.000  0.000  0.022  0.022
   16  0.004  0.000  0.018  0.022
   17  0.000  0.000  0.022  0.022
   18  0.000  0.000  0.022  0.022
   19  0.005  0.000  0.027  0.032
   20  0.000  0.001  0.050  0.051
   21  0.000  0.001  0.050  0.051
   22  0.009  0.000  0.020  0.029
   23  0.000  0.001  0.050  0.051
   24  0.009  0.000  0.020  0.029
   25  0.005  0.000  0.027  0.032
   26  0.005  0.000  0.027  0.032
   27  0.009  0.000  0.020  0.029
   28  0.000  0.000  0.013  0.014
   29  0.003  0.000  0.012  0.015
   30  0.003  0.000  0.012  0.015
   31  0.003  0.000  0.012  0.015
   32  0.003  0.000  0.012  0.015
   33  0.003  0.000  0.012  0.015
   34  0.003  0.000  0.012  0.015
   35  0.000  0.000  0.009  0.010
   36  0.052  0.000  0.002  0.054
   37  0.009  0.000  0.000  0.009
tot    0.165  0.007  0.641  0.813
 
band     4 # energy   -5.12804935 # occ.  2.00000000
 
ion      s      p      d    tot
    1  0.026  0.001  0.010  0.036
    2  0.012  0.000  0.021  0.033
    3  0.012  0.000  0.021  0.033
    4  0.012  0.000  0.021  0.033
    5  0.008  0.000  0.024  0.032
    6  0.011  0.000  0.021  0.033
    7  0.012  0.000  0.021  0.033
    8  0.011  0.000  0.021  0.033
    9  0.006  0.000  0.023  0.029
   10  0.001  0.000  0.036  0.037
   11  0.000  0.000  0.015  0.016
   12  0.001  0.000  0.036  0.037
   13  0.000  0.000  0.015  0.016
   14  0.000  0.000  0.015  0.016
   15  0.006  0.001  0.005  0.012
   16  0.001  0.000  0.036  0.037
   17  0.006  0.001  0.005  0.012
   18  0.006  0.001  0.005  0.012
   19  0.002  0.000  0.020  0.022
   20  0.002  0.000  0.034  0.036
   21  0.002  0.000  0.034  0.036
   22  0.010  0.000  0.000  0.011
   23  0.002  0.000  0.034  0.036
   24  0.010  0.000  0.000  0.011
   25  0.002  0.000  0.020  0.022
   26  0.002  0.000  0.020  0.022
   27  0.010  0.000  0.000  0.011
   28  0.003  0.000  0.001  0.005
   29  0.001  0.000  0.004  0.005
   30  0.001  0.000  0.004  0.005
   31  0.001  0.000  0.004  0.005
   32  0.001  0.000  0.004  0.005
   33  0.001  0.000  0.004  0.005
   34  0.001  0.000  0.004  0.005
   35  0.006  0.001  0.000  0.007
   36  0.014  0.000  0.012  0.026
   37  0.005  0.000  0.000  0.005
tot    0.203  0.014  0.551  0.768
 
band     5 # energy   -5.04827095 # occ.  2.00000000
 
ion      s      p      d    tot
    1  0.000  0.000  0.003  0.003
    2  0.002  0.001  0.006  0.008
    3  0.000  0.000  0.003  0.003
    4  0.002  0.001  0.006  0.008
    5  0.000  0.000  0.009  0.009
    6  0.000  0.000  0.004  0.005
    7  0.000  0.000  0.003  0.003
    8  0.000  0.000  0.004  0.004
    9  0.000  0.000  0.002  0.003
   10  0.000  0.000  0.079  0.080
   11  0.023  0.001  0.025  0.049
   12  0.004  0.000  0.034  0.038
   13  0.021  0.001  0.030  0.051
   14  0.000  0.001  0.075  0.075
   15  0.007  0.001  0.031  0.039
   16  0.004  0.000  0.029  0.034
   17  0.007  0.001  0.030  0.037
   18  0.000  0.002  0.010  0.011
   19  0.001  0.000  0.023  0.024
   20  0.000  0.001  0.016  0.017
   21  0.009  0.001  0.026  0.035
   22  0.014  0.001  0.021  0.036
   23  0.009  0.001  0.027  0.037
   24  0.000  0.000  0.055  0.056
   25  0.000  0.000  0.044  0.044
   26  0.001  0.000  0.025  0.026
   27  0.016  0.001  0.018  0.034
   28  0.000  0.000  0.001  0.001
   29  0.000  0.000  0.002  0.002
   30  0.001  0.000  0.003  0.005
   31  0.000  0.000  0.002  0.002
   32  0.001  0.000  0.003  0.004
   33  0.001  0.000  0.003  0.005
   34  0.001  0.000  0.003  0.004
   35  0.000  0.000  0.007  0.007
   36  0.000  0.000  0.002  0.002
   37  0.000  0.000  0.000  0.000
tot    0.124  0.017  0.663  0.804
 
band     6 # energy   -5.04826937 # occ.  2.00000000
 
ion      s      p      d    tot
    1  0.000  0.000  0.003  0.003
    2  0.000  0.000  0.003  0.003
    3  0.001  0.000  0.005  0.007
    4  0.000  0.000  0.002  0.003
    5  0.000  0.000  0.009  0.009
    6  0.001  0.000  0.004  0.006
    7  0.001  0.000  0.006  0.007
    8  0.001  0.001  0.004  0.006
    9  0.000  0.000  0.003  0.003
   10  0.005  0.001  0.016  0.021
   11  0.006  0.001  0.061  0.068
   12  0.002  0.000  0.061  0.063
   13  0.008  0.001  0.057  0.066
   14  0.028  0.001  0.012  0.041
   15  0.002  0.001  0.015  0.019
   16  0.001  0.000  0.065  0.067
   17  0.003  0.001  0.017  0.021
   18  0.009  0.000  0.038  0.048
   19  0.000  0.000  0.038  0.039
   20  0.012  0.001  0.030  0.043
   21  0.003  0.001  0.020  0.024
   22  0.006  0.000  0.042  0.048
   23  0.003  0.001  0.019  0.023
   24  0.020  0.001  0.008  0.029
   25  0.001  0.000  0.017  0.019
   26  0.000  0.000  0.036  0.037
   27  0.004  0.000  0.045  0.050
   28  0.000  0.000  0.001  0.001
   29  0.001  0.000  0.004  0.005
   30  0.000  0.000  0.002  0.002
   31  0.001  0.000  0.004  0.005
   32  0.001  0.000  0.002  0.003
   33  0.000  0.000  0.002  0.002
   34  0.000  0.000  0.002  0.003
   35  0.000  0.000  0.007  0.007
   36  0.000  0.000  0.002  0.002
   37  0.000  0.000  0.000  0.000
tot    0.124  0.017  0.663  0.804
 
band     7 # energy   -5.04294628 # occ.  2.00000000
 
ion      s      p      d    tot
    1  0.000  0.000  0.007  0.008
    2  0.001  0.001  0.006  0.008
    3  0.000  0.000  0.003  0.003
    4  0.001  0.001  0.006  0.008
    5  0.000  0.000  0.001  0.001
    6  0.000  0.000  0.004  0.004
    7  0.000  0.000  0.003  0.003
    8  0.000  0.000  0.003  0.004
    9  0.000  0.000  0.008  0.008
   10  0.024  0.001  0.030  0.054
   11  0.000  0.001  0.038  0.039
   12  0.005  0.001  0.025  0.032
   13  0.000  0.001  0.038  0.038
   14  0.000  0.000  0.029  0.029
   15  0.005  0.000  0.075  0.079
   16  0.005  0.001  0.025  0.031
   17  0.005  0.000  0.073  0.078
   18  0.019  0.001  0.005  0.025
   19  0.005  0.001  0.027  0.033
   20  0.011  0.001  0.010  0.022
   21  0.003  0.000  0.049  0.052
   22  0.000  0.001  0.028  0.029
   23  0.003  0.000  0.050  0.053
   24  0.001  0.000  0.031  0.032
   25  0.018  0.001  0.021  0.040
   26  0.005  0.001  0.027  0.033
   27  0.000  0.001  0.028  0.029
   28  0.000  0.000  0.006  0.006
   29  0.000  0.000  0.002  0.002
   30  0.001  0.000  0.003  0.004
   31  0.000  0.000  0.002  0.002
   32  0.001  0.000  0.003  0.004
   33  0.001  0.000  0.003  0.004
   34  0.001  0.000  0.003  0.004
   35  0.000  0.000  0.002  0.002
   36  0.000  0.000  0.002  0.002
   37  0.000  0.000  0.000  0.000
tot    0.118  0.016  0.671  0.805
 
band     8 # energy   -5.04292624 # occ.  2.00000000
 
ion      s      p      d    tot
    1  0.000  0.000  0.007  0.008
    2  0.000  0.000  0.003  0.003
    3  0.001  0.000  0.005  0.007
    4  0.000  0.000  0.003  0.003
    5  0.000  0.000  0.001  0.001
    6  0.001  0.001  0.005  0.006
    7  0.001  0.000  0.005  0.007
    8  0.001  0.001  0.005  0.006
    9  0.000  0.000  0.008  0.008
   10  0.000  0.001  0.024  0.025
   11  0.000  0.000  0.033  0.033
   12  0.017  0.001  0.028  0.046
   13  0.000  0.000  0.033  0.033
   14  0.000  0.001  0.039  0.040
   15  0.015  0.001  0.027  0.042
   16  0.017  0.001  0.028  0.046
   17  0.014  0.001  0.029  0.043
   18  0.000  0.000  0.097  0.097
   19  0.014  0.001  0.022  0.038
   20  0.000  0.000  0.064  0.064
   21  0.009  0.001  0.023  0.032
   22  0.001  0.000  0.029  0.030
   23  0.009  0.001  0.022  0.032
   24  0.000  0.001  0.028  0.029
   25  0.000  0.001  0.030  0.031
   26  0.014  0.001  0.023  0.038
   27  0.001  0.000  0.029  0.030
   28  0.000  0.000  0.006  0.006
   29  0.001  0.000  0.003  0.004
   30  0.000  0.000  0.002  0.002
   31  0.001  0.000  0.003  0.004
   32  0.000  0.000  0.003  0.003
   33  0.000  0.000  0.002  0.002
   34  0.000  0.000  0.003  0.003
   35  0.000  0.000  0.002  0.002
   36  0.000  0.000  0.002  0.002
   37  0.000  0.000  0.000  0.000
tot    0.118  0.016  0.671  0.805
 
band     9 # energy   -5.04275566 # occ.  2.00000000
 
ion      s      p      d    tot
    1  0.001  0.000  0.000  0.001
    2  0.000  0.000  0.005  0.006
    3  0.000  0.000  0.006  0.006
    4  0.000  0.000  0.005  0.006
    5  0.005  0.001  0.005  0.011
    6  0.000  0.000  0.006  0.006
    7  0.000  0.000  0.006  0.006
    8  0.000  0.000  0.006  0.006
    9  0.002  0.000  0.005  0.007
   10  0.007  0.001  0.004  0.012
   11  0.014  0.001  0.039  0.053
   12  0.008  0.001  0.004  0.013
   13  0.014  0.001  0.039  0.053
   14  0.014  0.000  0.041  0.055
   15  0.001  0.000  0.058  0.059
   16  0.008  0.001  0.004  0.013
   17  0.001  0.000  0.058  0.059
   18  0.001  0.000  0.057  0.059
   19  0.010  0.001  0.026  0.036
   20  0.005  0.001  0.012  0.019
   21  0.004  0.001  0.013  0.019
   22  0.001  0.000  0.055  0.056
   23  0.004  0.001  0.013  0.019
   24  0.001  0.000  0.052  0.053
   25  0.012  0.001  0.024  0.036
   26  0.010  0.001  0.026  0.036
   27  0.001  0.000  0.055  0.056
   28  0.004  0.001  0.004  0.009
   29  0.000  0.000  0.003  0.003
   30  0.000  0.000  0.003  0.003
   31  0.000  0.000  0.003  0.003
   32  0.000  0.000  0.003  0.003
   33  0.000  0.000  0.003  0.003
   34  0.000  0.000  0.003  0.003
   35  0.002  0.001  0.006  0.009
   36  0.000  0.000  0.000  0.000
   37  0.000  0.000  0.000  0.000
tot    0.132  0.017  0.652  0.801
 
band    10 # energy   -5.02460975 # occ.  2.00000000
 
ion      s      p      d    tot
    1  0.002  0.000  0.013  0.014
    2  0.001  0.000  0.007  0.008
    3  0.001  0.000  0.007  0.008
    4  0.001  0.000  0.007  0.008
    5  0.000  0.000  0.005  0.005
    6  0.001  0.000  0.007  0.008
    7  0.001  0.000  0.007  0.008
    8  0.001  0.000  0.007  0.008
    9  0.001  0.000  0.001  0.003
   10  0.001  0.000  0.053  0.055
   11  0.005  0.001  0.014  0.020
   12  0.001  0.000  0.053  0.055
   13  0.005  0.001  0.014  0.020
   14  0.005  0.001  0.014  0.020
   15  0.005  0.000  0.049  0.055
   16  0.001  0.000  0.053  0.055
   17  0.005  0.000  0.049  0.055
   18  0.005  0.000  0.049  0.055
   19  0.005  0.000  0.024  0.029
   20  0.000  0.001  0.019  0.020
   21  0.000  0.001  0.018  0.020
   22  0.002  0.000  0.049  0.051
   23  0.000  0.001  0.018  0.020
   24  0.002  0.000  0.049  0.051
   25  0.005  0.000  0.024  0.029
   26  0.005  0.000  0.024  0.029
   27  0.002  0.000  0.049  0.051
   28  0.001  0.000  0.009  0.010
   29  0.001  0.000  0.006  0.008
   30  0.001  0.000  0.006  0.008
   31  0.001  0.000  0.006  0.008
   32  0.001  0.000  0.006  0.008
   33  0.001  0.000  0.006  0.008
   34  0.001  0.000  0.006  0.008
   35  0.001  0.000  0.000  0.001
   36  0.006  0.000  0.001  0.006
   37  0.000  0.000  0.000  0.000
tot    0.080  0.011  0.735  0.826
 
band    11 # energy   -5.01151428 # occ.  2.00000000
 
ion      s      p      d    tot
    1  0.000  0.000  0.013  0.013
    2  0.000  0.000  0.010  0.010
    3  0.000  0.000  0.010  0.010
    4  0.000  0.000  0.010  0.010
    5  0.002  0.000  0.004  0.006
    6  0.000  0.000  0.010  0.010
    7  0.000  0.000  0.010  0.010
    8  0.000  0.000  0.010  0.010
    9  0.005  0.001  0.000  0.006
   10  0.003  0.000  0.050  0.053
   11  0.000  0.000  0.060  0.060
   12  0.003  0.000  0.050  0.053
   13  0.000  0.000  0.060  0.060
   14  0.000  0.000  0.060  0.060
   15  0.004  0.000  0.008  0.012
   16  0.003  0.000  0.050  0.053
   17  0.004  0.000  0.008  0.012
   18  0.004  0.000  0.008  0.012
   19  0.002  0.000  0.013  0.015
   20  0.000  0.000  0.057  0.057
   21  0.000  0.000  0.057  0.057
   22  0.004  0.000  0.033  0.037
   23  0.000  0.000  0.057  0.057
   24  0.004  0.000  0.033  0.037
   25  0.002  0.000  0.013  0.015
   26  0.002  0.000  0.013  0.015
   27  0.004  0.000  0.033  0.037
   28  0.005  0.000  0.001  0.006
   29  0.000  0.000  0.007  0.007
   30  0.000  0.000  0.007  0.007
   31  0.000  0.000  0.007  0.007
   32  0.000  0.000  0.007  0.007
   33  0.000  0.000  0.007  0.007
   34  0.000  0.000  0.007  0.007
   35  0.000  0.000  0.011  0.012
   36  0.000  0.000  0.004  0.004
   37  0.000  0.000  0.000  0.000
tot    0.050  0.006  0.793  0.850
 
band    12 # energy   -5.00105462 # occ.  2.00000000
 
ion      s      p      d    tot
    1  0.000  0.000  0.020  0.020
    2  0.003  0.000  0.006  0.010
    3  0.001  0.000  0.009  0.010
    4  0.003  0.000  0.006  0.010
    5  0.000  0.000  0.006  0.006
    6  0.001  0.000  0.008  0.009
    7  0.001  0.000  0.009  0.010
    8  0.001  0.000  0.008  0.009
    9  0.000  0.000  0.009  0.009
   10  0.000  0.000  0.032  0.032
   11  0.002  0.000  0.028  0.030
   12  0.001  0.000  0.037  0.038
   13  0.002  0.000  0.028  0.030
   14  0.000  0.000  0.028  0.028
   15  0.005  0.000  0.023  0.028
   16  0.001  0.000  0.037  0.038
   17  0.005  0.000  0.023  0.028
   18  0.000  0.000  0.066  0.066
   19  0.007  0.000  0.034  0.041
   20  0.000  0.000  0.081  0.081
   21  0.007  0.000  0.025  0.032
   22  0.000  0.000  0.034  0.034
   23  0.007  0.000  0.026  0.033
   24  0.000  0.000  0.011  0.011
   25  0.000  0.000  0.060  0.060
   26  0.008  0.000  0.033  0.041
   27  0.000  0.000  0.034  0.034
   28  0.000  0.000  0.011  0.012
   29  0.000  0.000  0.007  0.007
   30  0.002  0.000  0.004  0.006
   31  0.000  0.000  0.007  0.007
   32  0.002  0.001  0.004  0.007
   33  0.002  0.000  0.004  0.006
   34  0.002  0.001  0.005  0.007
   35  0.000  0.000  0.006  0.006
   36  0.000  0.001  0.002  0.003
   37  0.000  0.000  0.000  0.000
tot    0.062  0.008  0.772  0.842
 
band    13 # energy   -5.00101209 # occ.  2.00000000
 
ion      s      p      d    tot
    1  0.000  0.000  0.020  0.020
    2  0.000  0.000  0.010  0.010
    3  0.002  0.001  0.006  0.009
    4  0.000  0.000  0.010  0.010
    5  0.000  0.000  0.006  0.006
    6  0.003  0.000  0.007  0.010
    7  0.002  0.001  0.006  0.009
    8  0.003  0.000  0.007  0.010
    9  0.000  0.000  0.009  0.009
   10  0.001  0.000  0.039  0.040
   11  0.001  0.000  0.028  0.029
   12  0.000  0.000  0.033  0.034
   13  0.001  0.000  0.028  0.029
   14  0.002  0.000  0.028  0.031
   15  0.002  0.000  0.051  0.053
   16  0.000  0.000  0.033  0.034
   17  0.002  0.000  0.052  0.053
   18  0.007  0.000  0.008  0.016
   19  0.003  0.000  0.052  0.054
   20  0.009  0.000  0.007  0.016
   21  0.002  0.000  0.063  0.065
   22  0.000  0.000  0.018  0.019
   23  0.002  0.000  0.062  0.065
   24  0.000  0.000  0.042  0.042
   25  0.010  0.000  0.024  0.035
   26  0.003  0.000  0.052  0.054
   27  0.000  0.000  0.019  0.019
   28  0.000  0.000  0.011  0.012
   29  0.002  0.000  0.004  0.006
   30  0.001  0.000  0.006  0.007
   31  0.002  0.000  0.004  0.006
   32  0.000  0.000  0.006  0.007
   33  0.001  0.000  0.006  0.007
   34  0.000  0.000  0.006  0.007
   35  0.000  0.000  0.006  0.006
   36  0.000  0.001  0.002  0.002
   37  0.000  0.000  0.000  0.000
tot    0.062  0.008  0.772  0.842
 
band    14 # energy   -4.99613135 # occ.  2.00000000
 
ion      s      p      d    tot
    1  0.000  0.000  0.005  0.005
    2  0.004  0.001  0.006  0.010
    3  0.001  0.000  0.009  0.011
    4  0.004  0.001  0.006  0.010
    5  0.000  0.000  0.016  0.016
    6  0.001  0.000  0.009  0.010
    7  0.001  0.000  0.009  0.011
    8  0.001  0.000  0.009  0.010
    9  0.000  0.000  0.015  0.015
   10  0.008  0.000  0.009  0.017
   11  0.001  0.000  0.044  0.045
   12  0.002  0.000  0.045  0.047
   13  0.001  0.000  0.044  0.045
   14  0.005  0.000  0.023  0.029
   15  0.000  0.000  0.024  0.024
   16  0.002  0.000  0.046  0.047
   17  0.000  0.000  0.024  0.024
   18  0.000  0.000  0.043  0.044
   19  0.001  0.000  0.041  0.042
   20  0.003  0.000  0.042  0.045
   21  0.001  0.000  0.025  0.026
   22  0.003  0.000  0.068  0.071
   23  0.001  0.000  0.025  0.026
   24  0.013  0.000  0.008  0.021
   25  0.003  0.000  0.021  0.024
   26  0.001  0.000  0.041  0.042
   27  0.003  0.000  0.068  0.071
   28  0.000  0.000  0.003  0.004
   29  0.000  0.000  0.007  0.007
   30  0.001  0.000  0.002  0.004
   31  0.000  0.000  0.007  0.007
   32  0.002  0.001  0.005  0.007
   33  0.001  0.000  0.002  0.004
   34  0.002  0.001  0.005  0.007
   35  0.000  0.000  0.007  0.008
   36  0.000  0.000  0.003  0.003
   37  0.000  0.000  0.000  0.000
tot    0.065  0.008  0.768  0.841
 
band    15 # energy   -4.99609044 # occ.  2.00000000
 
ion      s      p      d    tot
    1  0.000  0.000  0.005  0.005
    2  0.000  0.000  0.010  0.010
    3  0.002  0.001  0.007  0.010
    4  0.000  0.000  0.010  0.010
    5  0.000  0.000  0.016  0.016
    6  0.003  0.000  0.007  0.011
    7  0.002  0.001  0.007  0.010
    8  0.003  0.000  0.007  0.011
    9  0.000  0.000  0.015  0.016
   10  0.000  0.000  0.057  0.057
   11  0.004  0.000  0.030  0.034
   12  0.006  0.000  0.021  0.027
   13  0.004  0.000  0.030  0.034
   14  0.000  0.000  0.051  0.051
   15  0.000  0.000  0.037  0.037
   16  0.006  0.000  0.021  0.027
   17  0.000  0.000  0.037  0.037
   18  0.000  0.000  0.018  0.018
   19  0.002  0.000  0.028  0.030
   20  0.000  0.000  0.019  0.019
   21  0.002  0.000  0.036  0.038
   22  0.010  0.000  0.028  0.038
   23  0.002  0.000  0.036  0.038
   24  0.000  0.000  0.088  0.088
   25  0.000  0.000  0.049  0.049
   26  0.002  0.000  0.028  0.030
   27  0.010  0.000  0.028  0.038
   28  0.000  0.000  0.003  0.004
   29  0.002  0.000  0.003  0.005
   30  0.001  0.000  0.007  0.008
   31  0.002  0.000  0.003  0.005
   32  0.000  0.000  0.005  0.005
   33  0.001  0.000  0.007  0.008
   34  0.000  0.000  0.005  0.005
   35  0.000  0.000  0.007  0.008
   36  0.000  0.000  0.003  0.003
   37  0.000  0.000  0.000  0.000
tot    0.065  0.008  0.768  0.841
 
band    16 # energy   -4.98477147 # occ.  2.00000000
 
ion      s      p      d    tot
    1  0.000  0.000  0.005  0.005
    2  0.002  0.000  0.013  0.015
    3  0.002  0.000  0.013  0.015
    4  0.002  0.000  0.013  0.015
    5  0.006  0.000  0.003  0.009
    6  0.002  0.000  0.013  0.015
    7  0.002  0.000  0.013  0.015
    8  0.003  0.000  0.013  0.015
    9  0.006  0.000  0.022  0.028
   10  0.004  0.000  0.008  0.012
   11  0.000  0.000  0.006  0.006
   12  0.004  0.000  0.008  0.012
   13  0.000  0.000  0.006  0.006
   14  0.000  0.000  0.006  0.006
   15  0.000  0.000  0.032  0.032
   16  0.004  0.000  0.008  0.012
   17  0.000  0.000  0.032  0.032
   18  0.000  0.000  0.032  0.032
   19  0.000  0.001  0.031  0.032
   20  0.007  0.000  0.028  0.035
   21  0.007  0.000  0.028  0.035
   22  0.000  0.000  0.024  0.025
   23  0.007  0.000  0.028  0.035
   24  0.000  0.000  0.025  0.025
   25  0.000  0.001  0.031  0.032
   26  0.000  0.001  0.031  0.032
   27  0.000  0.000  0.024  0.025
   28  0.008  0.000  0.004  0.012
   29  0.009  0.000  0.019  0.028
   30  0.009  0.000  0.019  0.028
   31  0.009  0.000  0.019  0.028
   32  0.009  0.000  0.019  0.028
   33  0.009  0.000  0.019  0.028
   34  0.009  0.000  0.019  0.028
   35  0.017  0.000  0.025  0.042
   36  0.005  0.001  0.011  0.017
   37  0.000  0.000  0.000  0.000
tot    0.142  0.008  0.648  0.799
 
band    17 # energy   -4.84910750 # occ.  2.00000000
 
ion      s      p      d    tot
    1  0.000  0.000  0.002  0.002
    2  0.000  0.000  0.008  0.009
    3  0.000  0.000  0.008  0.009
    4  0.000  0.000  0.008  0.009
    5  0.000  0.000  0.011  0.012
    6  0.000  0.000  0.008  0.009
    7  0.000  0.000  0.008  0.009
    8  0.000  0.000  0.008  0.009
    9  0.000  0.000  0.008  0.008
   10  0.000  0.000  0.011  0.011
   11  0.000  0.000  0.049  0.050
   12  0.000  0.000  0.011  0.011
   13  0.000  0.000  0.049  0.050
   14  0.000  0.000  0.049  0.049
   15  0.003  0.001  0.050  0.053
   16  0.000  0.000  0.011  0.011
   17  0.003  0.001  0.050  0.053
   18  0.003  0.001  0.050  0.053
   19  0.001  0.000  0.025  0.026
   20  0.001  0.000  0.045  0.046
   21  0.001  0.000  0.045  0.045
   22  0.003  0.001  0.029  0.033
   23  0.001  0.000  0.045  0.045
   24  0.003  0.001  0.029  0.033
   25  0.001  0.000  0.025  0.026
   26  0.001  0.000  0.025  0.026
   27  0.003  0.001  0.029  0.033
   28  0.010  0.000  0.009  0.020
   29  0.002  0.000  0.012  0.015
   30  0.002  0.000  0.012  0.015
   31  0.002  0.000  0.012  0.015
   32  0.002  0.000  0.012  0.015
   33  0.002  0.000  0.012  0.015
   34  0.002  0.000  0.012  0.015
   35  0.001  0.000  0.000  0.001
   36  0.003  0.000  0.009  0.012
   37  0.002  0.000  0.000  0.002
tot    0.051  0.015  0.786  0.852
 
band    18 # energy   -4.83501489 # occ.  2.00000000
 
ion      s      p      d    tot
    1  0.000  0.000  0.007  0.007
    2  0.000  0.000  0.010  0.011
    3  0.000  0.000  0.010  0.011
    4  0.000  0.000  0.010  0.011
    5  0.003  0.001  0.005  0.009
    6  0.000  0.000  0.010  0.011
    7  0.000  0.000  0.010  0.011
    8  0.000  0.000  0.010  0.011
    9  0.003  0.001  0.000  0.003
   10  0.002  0.000  0.052  0.054
   11  0.000  0.001  0.048  0.049
   12  0.002  0.000  0.052  0.054
   13  0.000  0.001  0.048  0.049
   14  0.000  0.001  0.047  0.048
   15  0.001  0.000  0.014  0.015
   16  0.002  0.000  0.052  0.054
   17  0.001  0.000  0.014  0.015
   18  0.001  0.000  0.015  0.016
   19  0.001  0.001  0.054  0.056
   20  0.002  0.000  0.026  0.028
   21  0.002  0.000  0.026  0.028
   22  0.000  0.000  0.029  0.030
   23  0.002  0.000  0.026  0.028
   24  0.000  0.000  0.028  0.029
   25  0.001  0.001  0.055  0.057
   26  0.001  0.001  0.054  0.056
   27  0.000  0.000  0.029  0.030
   28  0.000  0.000  0.009  0.010
   29  0.000  0.000  0.009  0.009
   30  0.000  0.000  0.009  0.009
   31  0.000  0.000  0.009  0.009
   32  0.000  0.000  0.009  0.009
   33  0.000  0.000  0.009  0.009
   34  0.000  0.000  0.009  0.009
   35  0.005  0.001  0.001  0.007
   36  0.001  0.000  0.003  0.004
   37  0.000  0.000  0.000  0.000
tot    0.030  0.017  0.809  0.856
 
band    19 # energy   -4.83313779 # occ.  2.00000000
 
ion      s      p      d    tot
    1  0.000  0.000  0.008  0.008
    2  0.000  0.000  0.011  0.012
    3  0.001  0.000  0.006  0.007
    4  0.000  0.000  0.011  0.012
    5  0.000  0.000  0.003  0.003
    6  0.002  0.001  0.007  0.009
    7  0.001  0.000  0.006  0.007
    8  0.002  0.001  0.006  0.009
    9  0.000  0.001  0.019  0.020
   10  0.001  0.001  0.043  0.046
   11  0.000  0.000  0.046  0.047
   12  0.000  0.000  0.013  0.014
   13  0.000  0.000  0.046  0.046
   14  0.000  0.001  0.024  0.025
   15  0.001  0.000  0.073  0.074
   16  0.000  0.000  0.012  0.013
   17  0.001  0.000  0.073  0.074
   18  0.002  0.000  0.045  0.047
   19  0.000  0.000  0.019  0.019
   20  0.003  0.001  0.043  0.046
   21  0.001  0.000  0.028  0.029
   22  0.000  0.000  0.069  0.069
   23  0.001  0.000  0.028  0.028
   24  0.002  0.000  0.032  0.034
   25  0.000  0.001  0.021  0.023
   26  0.000  0.000  0.019  0.019
   27  0.000  0.000  0.069  0.070
   28  0.000  0.000  0.000  0.000
   29  0.000  0.000  0.007  0.007
   30  0.001  0.001  0.006  0.008
   31  0.000  0.000  0.006  0.007
   32  0.001  0.000  0.004  0.005
   33  0.001  0.001  0.006  0.007
   34  0.001  0.000  0.004  0.005
   35  0.000  0.001  0.011  0.012
   36  0.000  0.001  0.005  0.006
   37  0.000  0.000  0.000  0.000
tot    0.023  0.015  0.828  0.866
 
band    20 # energy   -4.83307628 # occ.  2.00000000
 
ion      s      p      d    tot
    1  0.000  0.000  0.008  0.008
    2  0.002  0.001  0.005  0.007
    3  0.001  0.001  0.009  0.012
    4  0.002  0.001  0.005  0.007
    5  0.000  0.000  0.003  0.003
    6  0.000  0.000  0.009  0.010
    7  0.001  0.001  0.009  0.012
    8  0.000  0.000  0.009  0.010
    9  0.000  0.001  0.019  0.020
   10  0.000  0.000  0.003  0.003
   11  0.000  0.001  0.031  0.031
   12  0.001  0.001  0.033  0.035
   13  0.000  0.001  0.031  0.032
   14  0.000  0.000  0.053  0.054
   15  0.002  0.000  0.054  0.056
   16  0.001  0.001  0.033  0.035
   17  0.002  0.000  0.055  0.057
   18  0.000  0.000  0.083  0.083
   19  0.000  0.001  0.021  0.022
   20  0.000  0.000  0.022  0.022
   21  0.002  0.001  0.037  0.040
   22  0.001  0.000  0.045  0.046
   23  0.002  0.001  0.038  0.040
   24  0.000  0.000  0.081  0.081
   25  0.000  0.000  0.018  0.018
   26  0.000  0.001  0.021  0.022
   27  0.001  0.000  0.044  0.046
   28  0.000  0.000  0.000  0.000
   29  0.001  0.001  0.004  0.006
   30  0.000  0.000  0.005  0.005
   31  0.001  0.001  0.004  0.006
   32  0.000  0.000  0.007  0.008
   33  0.000  0.000  0.005  0.005
   34  0.000  0.000  0.007  0.008
   35  0.000  0.001  0.012  0.012
   36  0.000  0.001  0.005  0.006
   37  0.000  0.000  0.000  0.000
tot    0.023  0.015  0.828  0.866
 
band    21 # energy   -4.82724909 # occ.  2.00000000
 
ion      s      p      d    tot
    1  0.000  0.001  0.012  0.013
    2  0.000  0.000  0.011  0.012
    3  0.001  0.000  0.007  0.008
    4  0.000  0.000  0.011  0.012
    5  0.000  0.001  0.016  0.017
    6  0.002  0.001  0.006  0.009
    7  0.001  0.000  0.007  0.008
    8  0.002  0.001  0.006  0.009
    9  0.000  0.000  0.001  0.001
   10  0.000  0.000  0.087  0.088
   11  0.002  0.000  0.049  0.051
   12  0.001  0.000  0.048  0.048
   13  0.002  0.000  0.049  0.051
   14  0.000  0.000  0.039  0.039
   15  0.000  0.001  0.023  0.024
   16  0.001  0.000  0.047  0.048
   17  0.000  0.001  0.023  0.024
   18  0.000  0.000  0.013  0.013
   19  0.002  0.000  0.046  0.049
   20  0.000  0.000  0.057  0.058
   21  0.000  0.000  0.033  0.033
   22  0.001  0.001  0.024  0.026
   23  0.000  0.000  0.033  0.033
   24  0.000  0.000  0.000  0.000
   25  0.000  0.000  0.060  0.060
   26  0.002  0.000  0.046  0.049
   27  0.001  0.001  0.024  0.026
   28  0.000  0.001  0.016  0.017
   29  0.000  0.000  0.006  0.006
   30  0.001  0.001  0.006  0.008
   31  0.000  0.000  0.006  0.006
   32  0.001  0.000  0.003  0.004
   33  0.001  0.001  0.006  0.008
   34  0.001  0.000  0.003  0.005
   35  0.000  0.000  0.005  0.005
   36  0.000  0.000  0.001  0.001