PROCAR new format
# of k-points:   10         # of bands:  252         # of ions:   37

 k-point     1 :    0.00000000 0.00000000 0.00000000     weight = 0.01562500

band     1 # energy  -12.30419834 # occ.  2.00000000
 
ion      s      p      d    tot
    1  0.000  0.000  0.000  0.000
    2  0.000  0.000  0.000  0.000
    3  0.000  0.000  0.000  0.000
    4  0.000  0.000  0.000  0.000
    5  0.000  0.000  0.000  0.000
    6  0.000  0.000  0.000  0.000
    7  0.000  0.000  0.000  0.000
    8  0.000  0.000  0.000  0.000
    9  0.000  0.000  0.000  0.000
   10  0.000  0.000  0.000  0.000
   11  0.000  0.000  0.000  0.000
   12  0.000  0.000  0.000  0.000
   13  0.000  0.000  0.000  0.000
   14  0.000  0.000  0.000  0.000
   15  0.000  0.000  0.000  0.000
   16  0.000  0.000  0.000  0.000
   17  0.000  0.000  0.000  0.000
   18  0.000  0.000  0.000  0.000
   19  0.000  0.000  0.000  0.000
   20  0.000  0.000  0.000  0.000
   21  0.000  0.000  0.000  0.000
   22  0.000  0.000  0.000  0.000
   23  0.000  0.000  0.000  0.000
   24  0.000  0.000  0.000  0.000
   25  0.000  0.000  0.000  0.000
   26  0.000  0.000  0.000  0.000
   27  0.000  0.000  0.000  0.000
   28  0.000  0.000  0.000  0.000
   29  0.000  0.000  0.000  0.001
   30  0.000  0.000  0.000  0.001
   31  0.000  0.000  0.000  0.001
   32  0.000  0.000  0.000  0.001
   33  0.000  0.000  0.000  0.001
   34  0.000  0.000  0.000  0.001
   35  0.000  0.000  0.000  0.000
   36  0.080  0.088  0.133  0.301
   37  0.638  0.013  0.000  0.650
tot    0.719  0.102  0.135  0.955
 
band     2 # energy   -6.34959140 # occ.  2.00000000
 
ion      s      p      d    tot
    1  0.006  0.001  0.000  0.007
    2  0.006  0.001  0.000  0.007
    3  0.006  0.001  0.000  0.007
    4  0.006  0.001  0.000  0.007
    5  0.006  0.001  0.000  0.007
    6  0.006  0.001  0.000  0.007
    7  0.006  0.001  0.000  0.007
    8  0.006  0.001  0.000  0.007
    9  0.006  0.001  0.000  0.006
   10  0.023  0.000  0.000  0.024
   11  0.024  0.000  0.000  0.024
   12  0.023  0.000  0.000  0.024
   13  0.024  0.000  0.000  0.024
   14  0.024  0.000  0.000  0.024
   15  0.023  0.000  0.000  0.023
   16  0.023  0.000  0.000  0.024
   17  0.023  0.000  0.000  0.023
   18  0.023  0.000  0.000  0.023
   19  0.023  0.000  0.000  0.023
   20  0.026  0.000  0.000  0.026
   21  0.026  0.000  0.000  0.026
   22  0.023  0.000  0.000  0.023
   23  0.026  0.000  0.000  0.026
   24  0.023  0.000  0.000  0.023
   25  0.023  0.000  0.000  0.023
   26  0.023  0.000  0.000  0.023
   27  0.023  0.000  0.000  0.023
   28  0.005  0.001  0.000  0.006
   29  0.005  0.001  0.000  0.006
   30  0.005  0.001  0.000  0.006
   31  0.005  0.001  0.000  0.006
   32  0.005  0.001  0.000  0.006
   33  0.005  0.001  0.000  0.006
   34  0.005  0.001  0.000  0.006
   35  0.005  0.001  0.000  0.006
   36  0.005  0.002  0.000  0.007
   37  0.001  0.000  0.000  0.001
tot    0.523  0.015  0.007  0.545
 
band     3 # energy   -5.48215914 # occ.  2.00000000
 
ion      s      p      d    tot
    1  0.007  0.000  0.000  0.008
    2  0.007  0.000  0.000  0.008
    3  0.007  0.000  0.000  0.008
    4  0.007  0.000  0.000  0.008
    5  0.007  0.000  0.000  0.008
    6  0.007  0.000  0.000  0.008
    7  0.007  0.000  0.000  0.008
    8  0.007  0.000  0.000  0.008
    9  0.007  0.000  0.000  0.008
   10  0.011  0.001  0.017  0.029
   11  0.011  0.001  0.016  0.028
   12  0.011  0.001  0.017  0.029
   13  0.011  0.001  0.016  0.028
   14  0.011  0.001  0.016  0.028
   15  0.011  0.001  0.014  0.026
   16  0.011  0.001  0.017  0.029
   17  0.011  0.001  0.014  0.026
   18  0.011  0.001  0.014  0.026
   19  0.012  0.001  0.019  0.031
   20  0.014  0.001  0.025  0.040
   21  0.014  0.001  0.025  0.040
   22  0.011  0.001  0.017  0.029
   23  0.014  0.001  0.025  0.040
   24  0.011  0.001  0.017  0.029
   25  0.012  0.001  0.019  0.031
   26  0.012  0.001  0.019  0.031
   27  0.011  0.001  0.017  0.029
   28  0.006  0.000  0.000  0.006
   29  0.005  0.000  0.000  0.005
   30  0.005  0.000  0.000  0.005
   31  0.005  0.000  0.000  0.005
   32  0.005  0.000  0.000  0.005
   33  0.005  0.000  0.000  0.005
   34  0.005  0.000  0.000  0.005
   35  0.005  0.000  0.000  0.005
   36  0.004  0.002  0.000  0.006
   37  0.001  0.000  0.000  0.001
tot    0.320  0.025  0.326  0.670
 
band     4 # energy   -5.18240217 # occ.  2.00000000
 
ion      s      p      d    tot
    1  0.016  0.000  0.027  0.043
    2  0.016  0.000  0.025  0.041
    3  0.016  0.000  0.025  0.041
    4  0.016  0.000  0.025  0.041
    5  0.016  0.000  0.025  0.041
    6  0.016  0.000  0.025  0.041
    7  0.016  0.000  0.025  0.041
    8  0.016  0.000  0.025  0.041
    9  0.017  0.000  0.023  0.040
   10  0.000  0.001  0.020  0.021
   11  0.001  0.001  0.021  0.022
   12  0.000  0.001  0.020  0.021
   13  0.001  0.001  0.021  0.022
   14  0.001  0.001  0.021  0.022
   15  0.000  0.001  0.018  0.019
   16  0.000  0.001  0.020  0.021
   17  0.000  0.001  0.018  0.019
   18  0.000  0.001  0.018  0.019
   19  0.000  0.000  0.006  0.006
   20  0.000  0.000  0.012  0.012
   21  0.000  0.000  0.012  0.012
   22  0.000  0.000  0.009  0.009
   23  0.000  0.000  0.012  0.012
   24  0.000  0.000  0.009  0.009
   25  0.000  0.000  0.006  0.006
   26  0.000  0.000  0.006  0.006
   27  0.000  0.000  0.009  0.009
   28  0.007  0.000  0.007  0.013
   29  0.006  0.000  0.007  0.013
   30  0.006  0.000  0.007  0.013
   31  0.006  0.000  0.007  0.013
   32  0.006  0.000  0.007  0.013
   33  0.006  0.000  0.007  0.013
   34  0.006  0.000  0.007  0.013
   35  0.007  0.000  0.008  0.015
   36  0.003  0.000  0.003  0.006
   37  0.000  0.000  0.000  0.000
tot    0.206  0.007  0.541  0.754
 
band     5 # energy   -5.12744750 # occ.  2.00000000
 
ion      s      p      d    tot
    1  0.004  0.001  0.001  0.006
    2  0.000  0.000  0.004  0.004
    3  0.000  0.000  0.004  0.004
    4  0.000  0.000  0.004  0.004
    5  0.001  0.000  0.000  0.001
    6  0.000  0.000  0.004  0.004
    7  0.000  0.000  0.004  0.004
    8  0.000  0.000  0.004  0.004
    9  0.000  0.000  0.000  0.001
   10  0.004  0.000  0.024  0.028
   11  0.000  0.000  0.018  0.019
   12  0.004  0.000  0.024  0.028
   13  0.000  0.000  0.018  0.019
   14  0.000  0.000  0.018  0.019
   15  0.004  0.001  0.006  0.011
   16  0.004  0.000  0.024  0.028
   17  0.004  0.001  0.006  0.011
   18  0.004  0.001  0.006  0.011
   19  0.001  0.001  0.036  0.037
   20  0.007  0.000  0.116  0.123
   21  0.007  0.000  0.116  0.123
   22  0.016  0.001  0.011  0.028
   23  0.007  0.000  0.116  0.123
   24  0.016  0.001  0.011  0.028
   25  0.001  0.001  0.036  0.037
   26  0.001  0.001  0.036  0.037
   27  0.016  0.001  0.011  0.028
   28  0.000  0.000  0.001  0.001
   29  0.000  0.000  0.004  0.004
   30  0.000  0.000  0.004  0.004
   31  0.000  0.000  0.004  0.004
   32  0.000  0.000  0.004  0.004
   33  0.000  0.000  0.004  0.004
   34  0.000  0.000  0.004  0.004
   35  0.005  0.001  0.003  0.009
   36  0.004  0.003  0.005  0.013
   37  0.001  0.001  0.000  0.002
tot    0.114  0.017  0.689  0.820
 
band     6 # energy   -5.09067231 # occ.  2.00000000
 
ion      s      p      d    tot
    1  0.000  0.000  0.008  0.008
    2  0.001  0.000  0.002  0.003
    3  0.001  0.000  0.003  0.004
    4  0.001  0.000  0.002  0.003
    5  0.000  0.000  0.004  0.004
    6  0.000  0.000  0.002  0.003
    7  0.001  0.000  0.003  0.004
    8  0.000  0.000  0.002  0.003
    9  0.000  0.000  0.001  0.001
   10  0.000  0.001  0.020  0.021
   11  0.001  0.000  0.026  0.028
   12  0.008  0.001  0.016  0.024
   13  0.001  0.000  0.026  0.028
   14  0.000  0.001  0.020  0.021
   15  0.003  0.000  0.011  0.015
   16  0.008  0.001  0.016  0.024
   17  0.003  0.000  0.012  0.015
   18  0.000  0.000  0.021  0.021
   19  0.017  0.001  0.034  0.052
   20  0.000  0.000  0.164  0.164
   21  0.019  0.000  0.048  0.067
   22  0.000  0.001  0.037  0.037
   23  0.019  0.000  0.043  0.063
   24  0.000  0.001  0.048  0.049
   25  0.000  0.001  0.022  0.023
   26  0.016  0.001  0.034  0.050
   27  0.000  0.000  0.036  0.037
   28  0.000  0.000  0.005  0.005
   29  0.000  0.000  0.007  0.007
   30  0.000  0.000  0.002  0.003
   31  0.000  0.000  0.007  0.007
   32  0.001  0.001  0.006  0.008
   33  0.000  0.000  0.002  0.003
   34  0.001  0.001  0.005  0.007
   35  0.000  0.000  0.000  0.000
   36  0.000  0.001  0.003  0.004
   37  0.000  0.000  0.000  0.000
tot    0.103  0.014  0.699  0.816
 
band     7 # energy   -5.09065348 # occ.  2.00000000
 
ion      s      p      d    tot
    1  0.000  0.000  0.008  0.008
    2  0.001  0.000  0.003  0.003
    3  0.000  0.000  0.002  0.003
    4  0.001  0.000  0.003  0.003
    5  0.000  0.000  0.004  0.004
    6  0.001  0.000  0.002  0.004
    7  0.000  0.000  0.002  0.003
    8  0.001  0.000  0.002  0.004
    9  0.000  0.000  0.001  0.001
   10  0.011  0.001  0.014  0.026
   11  0.000  0.001  0.022  0.023
   12  0.003  0.001  0.019  0.022
   13  0.001  0.001  0.022  0.023
   14  0.002  0.000  0.028  0.030
   15  0.001  0.000  0.018  0.019
   16  0.002  0.001  0.019  0.022
   17  0.001  0.000  0.017  0.019
   18  0.004  0.001  0.008  0.013
   19  0.005  0.001  0.026  0.032
   20  0.025  0.001  0.006  0.032
   21  0.007  0.000  0.122  0.129
   22  0.000  0.001  0.044  0.045
   23  0.006  0.000  0.127  0.133
   24  0.000  0.000  0.033  0.033
   25  0.022  0.000  0.038  0.060
   26  0.006  0.001  0.026  0.033
   27  0.000  0.001  0.045  0.046
   28  0.000  0.000  0.005  0.005
   29  0.001  0.000  0.003  0.004
   30  0.001  0.001  0.007  0.009
   31  0.001  0.000  0.003  0.004
   32  0.000  0.000  0.004  0.004
   33  0.001  0.001  0.007  0.009
   34  0.000  0.000  0.004  0.004
   35  0.000  0.000  0.000  0.000
   36  0.000  0.001  0.003  0.004
   37  0.000  0.000  0.000  0.000
tot    0.103  0.014  0.699  0.816
 
band     8 # energy   -5.07341450 # occ.  2.00000000
 
ion      s      p      d    tot
    1  0.001  0.000  0.001  0.002
    2  0.000  0.000  0.005  0.006
    3  0.000  0.000  0.005  0.006
    4  0.000  0.000  0.005  0.006
    5  0.004  0.001  0.004  0.009
    6  0.000  0.000  0.005  0.006
    7  0.000  0.000  0.005  0.006
    8  0.000  0.000  0.005  0.006
    9  0.001  0.000  0.003  0.004
   10  0.009  0.001  0.004  0.014
   11  0.013  0.001  0.050  0.063
   12  0.009  0.001  0.004  0.014
   13  0.013  0.001  0.050  0.063
   14  0.012  0.001  0.050  0.063
   15  0.000  0.000  0.046  0.046
   16  0.009  0.001  0.004  0.014
   17  0.000  0.000  0.046  0.046
   18  0.000  0.000  0.047  0.047
   19  0.011  0.001  0.032  0.043
   20  0.006  0.001  0.021  0.028
   21  0.005  0.001  0.021  0.028
   22  0.000  0.000  0.045  0.046
   23  0.005  0.001  0.021  0.028
   24  0.000  0.000  0.045  0.046
   25  0.011  0.001  0.031  0.043
   26  0.011  0.001  0.032  0.043
   27  0.000  0.000  0.045  0.046
   28  0.003  0.001  0.004  0.008
   29  0.000  0.000  0.003  0.004
   30  0.000  0.000  0.003  0.003
   31  0.000  0.000  0.003  0.004
   32  0.000  0.000  0.003  0.003
   33  0.000  0.000  0.003  0.003
   34  0.000  0.000  0.003  0.003
   35  0.001  0.000  0.003  0.005
   36  0.000  0.000  0.000  0.000
   37  0.000  0.000  0.000  0.000
tot    0.124  0.017  0.660  0.802
 
band     9 # energy   -5.07268044 # occ.  2.00000000
 
ion      s      p      d    tot
    1  0.000  0.000  0.002  0.002
    2  0.000  0.000  0.003  0.003
    3  0.001  0.000  0.006  0.007
    4  0.000  0.000  0.003  0.003
    5  0.000  0.000  0.009  0.010
    6  0.001  0.000  0.004  0.006
    7  0.001  0.000  0.006  0.007
    8  0.001  0.000  0.004  0.006
    9  0.000  0.000  0.003  0.004
   10  0.002  0.000  0.021  0.023
   11  0.007  0.000  0.068  0.076
   12  0.000  0.001  0.055  0.056
   13  0.007  0.000  0.069  0.076
   14  0.029  0.001  0.007  0.037
   15  0.003  0.001  0.016  0.020
   16  0.001  0.001  0.054  0.055
   17  0.003  0.001  0.016  0.020
   18  0.013  0.000  0.034  0.047
   19  0.001  0.000  0.038  0.039
   20  0.009  0.000  0.039  0.048
   21  0.002  0.001  0.025  0.028
   22  0.005  0.001  0.038  0.043
   23  0.002  0.001  0.025  0.028
   24  0.020  0.001  0.009  0.030
   25  0.003  0.000  0.013  0.016
   26  0.001  0.000  0.038  0.039
   27  0.005  0.001  0.037  0.043
   28  0.000  0.000  0.002  0.002
   29  0.001  0.000  0.004  0.006
   30  0.000  0.000  0.002  0.003
   31  0.001  0.000  0.004  0.006
   32  0.001  0.000  0.002  0.003
   33  0.000  0.000  0.002  0.003
   34  0.001  0.000  0.002  0.003
   35  0.000  0.000  0.007  0.008
   36  0.000  0.000  0.001  0.001
   37  0.000  0.000  0.000  0.000
tot    0.123  0.017  0.665  0.804
 
band    10 # energy   -5.07267250 # occ.  2.00000000
 
ion      s      p      d    tot
    1  0.000  0.000  0.002  0.002
    2  0.002  0.001  0.006  0.008
    3  0.000  0.000  0.003  0.003
    4  0.002  0.001  0.006  0.008
    5  0.000  0.000  0.009  0.010
    6  0.001  0.000  0.004  0.005
    7  0.000  0.000  0.003  0.003
    8  0.001  0.000  0.004  0.005
    9  0.000  0.000  0.003  0.004
   10  0.000  0.001  0.066  0.066
   11  0.021  0.001  0.028  0.050
   12  0.002  0.000  0.032  0.034
   13  0.021  0.001  0.028  0.050
   14  0.000  0.000  0.088  0.089
   15  0.010  0.001  0.028  0.039
   16  0.002  0.000  0.032  0.034
   17  0.010  0.001  0.028  0.039
   18  0.000  0.002  0.009  0.010
   19  0.002  0.000  0.021  0.024
   20  0.000  0.001  0.020  0.022
   21  0.007  0.001  0.034  0.041
   22  0.015  0.001  0.018  0.034
   23  0.007  0.001  0.034  0.041
   24  0.000  0.000  0.047  0.047
   25  0.000  0.000  0.047  0.047
   26  0.002  0.000  0.021  0.024
   27  0.015  0.001  0.019  0.034
   28  0.000  0.000  0.002  0.002
   29  0.000  0.000  0.002  0.002
   30  0.001  0.000  0.003  0.005
   31  0.000  0.000  0.002  0.002
   32  0.001  0.000  0.003  0.004
   33  0.001  0.000  0.003  0.005
   34  0.001  0.000  0.003  0.004
   35  0.000  0.000  0.007  0.008
   36  0.000  0.000  0.001  0.001
   37  0.000  0.000  0.000  0.000
tot    0.123  0.017  0.665  0.804
 
band    11 # energy   -5.05767641 # occ.  2.00000000
 
ion      s      p      d    tot
    1  0.001  0.001  0.013  0.015
    2  0.000  0.000  0.008  0.008
    3  0.000  0.000  0.008  0.008
    4  0.000  0.000  0.008  0.008
    5  0.001  0.000  0.003  0.004
    6  0.000  0.000  0.008  0.008
    7  0.000  0.000  0.008  0.008
    8  0.000  0.000  0.008  0.008
    9  0.008  0.001  0.000  0.009
   10  0.004  0.000  0.053  0.057
   11  0.001  0.000  0.051  0.052
   12  0.004  0.000  0.053  0.057
   13  0.001  0.000  0.051  0.052
   14  0.001  0.000  0.051  0.052
   15  0.007  0.000  0.007  0.014
   16  0.004  0.000  0.053  0.057
   17  0.007  0.000  0.007  0.014
   18  0.007  0.000  0.007  0.014
   19  0.004  0.000  0.011  0.015
   20  0.004  0.000  0.038  0.042
   21  0.004  0.000  0.038  0.042
   22  0.000  0.000  0.039  0.039
   23  0.004  0.000  0.038  0.042
   24  0.000  0.000  0.038  0.039
   25  0.004  0.000  0.011  0.015
   26  0.004  0.000  0.011  0.015
   27  0.000  0.000  0.039  0.039
   28  0.008  0.001  0.000  0.009
   29  0.000  0.000  0.012  0.012
   30  0.000  0.000  0.012  0.012
   31  0.000  0.000  0.012  0.012
   32  0.000  0.000  0.012  0.012
   33  0.000  0.000  0.012  0.012
   34  0.000  0.000  0.012  0.012
   35  0.000  0.000  0.009  0.009
   36  0.005  0.001  0.000  0.006
   37  0.000  0.000  0.000  0.000
tot    0.084  0.010  0.739  0.832
 
band    12 # energy   -5.03292676 # occ.  2.00000000
 
ion      s      p      d    tot
    1  0.001  0.000  0.002  0.003
    2  0.000  0.000  0.008  0.008
    3  0.000  0.000  0.008  0.008
    4  0.000  0.000  0.008  0.008
    5  0.002  0.000  0.000  0.003
    6  0.000  0.000  0.008  0.008
    7  0.000  0.000  0.008  0.008
    8  0.000  0.000  0.008  0.008
    9  0.000  0.000  0.013  0.013
   10  0.000  0.000  0.056  0.056
   11  0.004  0.001  0.002  0.006
   12  0.000  0.000  0.055  0.055
   13  0.004  0.001  0.002  0.006
   14  0.004  0.001  0.002  0.006
   15  0.005  0.000  0.067  0.072
   16  0.000  0.000  0.055  0.055
   17  0.005  0.000  0.067  0.072
   18  0.005  0.000  0.066  0.071
   19  0.001  0.000  0.042  0.043
   20  0.001  0.000  0.021  0.023
   21  0.001  0.000  0.021  0.022
   22  0.000  0.000  0.039  0.039
   23  0.001  0.000  0.021  0.022
   24  0.000  0.000  0.040  0.040
   25  0.001  0.000  0.042  0.043
   26  0.001  0.000  0.042  0.043
   27  0.000  0.000  0.039  0.039
   28  0.000  0.000  0.005  0.005
   29  0.000  0.000  0.007  0.008
   30  0.000  0.000  0.007  0.008
   31  0.000  0.000  0.007  0.008
   32  0.000  0.000  0.007  0.008
   33  0.000  0.000  0.007  0.008
   34  0.000  0.000  0.007  0.008
   35  0.004  0.000  0.004  0.007
   36  0.001  0.001  0.001  0.003
   37  0.000  0.000  0.000  0.000
tot    0.046  0.008  0.794  0.848
 
band    13 # energy   -5.03162064 # occ.  2.00000000
 
ion      s      p      d    tot
    1  0.000  0.000  0.014  0.014
    2  0.002  0.001  0.010  0.012
    3  0.003  0.001  0.005  0.008
    4  0.001  0.001  0.010  0.012
    5  0.000  0.000  0.006  0.006
    6  0.000  0.000  0.009  0.009
    7  0.003  0.001  0.005  0.008
    8  0.000  0.000  0.009  0.009
    9  0.000  0.001  0.008  0.008
   10  0.020  0.000  0.029  0.049
   11  0.000  0.001  0.024  0.024
   12  0.005  0.000  0.056  0.062
   13  0.000  0.001  0.025  0.026
   14  0.000  0.000  0.047  0.047
   15  0.004  0.000  0.099  0.102
   16  0.005  0.000  0.058  0.063
   17  0.004  0.000  0.094  0.098
   18  0.016  0.000  0.004  0.021
   19  0.000  0.000  0.030  0.030
   20  0.001  0.001  0.011  0.013
   21  0.000  0.000  0.023  0.023
   22  0.001  0.000  0.017  0.018
   23  0.000  0.000  0.023  0.024
   24  0.002  0.000  0.023  0.025
   25  0.000  0.001  0.021  0.022
   26  0.000  0.000  0.029  0.030
   27  0.000  0.000  0.017  0.017
   28  0.000  0.000  0.013  0.013
   29  0.002  0.000  0.004  0.006
   30  0.000  0.000  0.004  0.004
   31  0.002  0.000  0.003  0.006
   32  0.002  0.000  0.004  0.007
   33  0.000  0.000  0.004  0.004
   34  0.002  0.000  0.004  0.007
   35  0.000  0.000  0.005  0.005
   36  0.000  0.000  0.000  0.001
   37  0.000  0.000  0.000  0.000
tot    0.077  0.010  0.744  0.831
 
band    14 # energy   -5.03160623 # occ.  2.00000000
 
ion      s      p      d    tot
    1  0.000  0.000  0.014  0.014
    2  0.002  0.000  0.006  0.008
    3  0.000  0.000  0.011  0.011
    4  0.002  0.000  0.005  0.007
    5  0.000  0.000  0.006  0.006
    6  0.003  0.001  0.006  0.010
    7  0.000  0.000  0.011  0.012
    8  0.003  0.001  0.007  0.010
    9  0.000  0.001  0.008  0.008
   10  0.000  0.001  0.066  0.066
   11  0.000  0.000  0.040  0.040
   12  0.015  0.000  0.039  0.054
   13  0.000  0.000  0.039  0.039
   14  0.000  0.001  0.017  0.018
   15  0.012  0.000  0.032  0.045
   16  0.015  0.000  0.038  0.053
   17  0.012  0.000  0.037  0.049
   18  0.000  0.000  0.127  0.127
   19  0.000  0.000  0.024  0.024
   20  0.000  0.000  0.027  0.027
   21  0.001  0.000  0.015  0.017
   22  0.001  0.000  0.021  0.023
   23  0.001  0.000  0.015  0.016
   24  0.000  0.000  0.014  0.014
   25  0.000  0.000  0.032  0.032
   26  0.000  0.000  0.024  0.025
   27  0.002  0.000  0.021  0.023
   28  0.000  0.000  0.013  0.013
   29  0.001  0.000  0.004  0.005
   30  0.003  0.000  0.004  0.007
   31  0.001  0.000  0.004  0.005
   32  0.000  0.000  0.004  0.004
   33  0.003  0.000  0.004  0.007
   34  0.001  0.000  0.004  0.004
   35  0.000  0.000  0.005  0.005
   36  0.000  0.000  0.000  0.001
   37  0.000  0.000  0.000  0.000
tot    0.077  0.010  0.744  0.831
 
band    15 # energy   -5.01838373 # occ.  2.00000000
 
ion      s      p      d    tot
    1  0.000  0.000  0.006  0.006
    2  0.003  0.000  0.006  0.009
    3  0.000  0.000  0.009  0.009
    4  0.003  0.000  0.006  0.009
    5  0.000  0.000  0.009  0.010
    6  0.002  0.000  0.006  0.009
    7  0.000  0.000  0.009  0.009
    8  0.002  0.000  0.006  0.009
    9  0.000  0.000  0.018  0.018
   10  0.003  0.000  0.024  0.028
   11  0.002  0.000  0.050  0.051
   12  0.001  0.000  0.027  0.028
   13  0.002  0.000  0.047  0.049
   14  0.007  0.000  0.008  0.015
   15  0.000  0.000  0.027  0.027
   16  0.001  0.000  0.027  0.028
   17  0.000  0.000  0.028  0.028
   18  0.001  0.000  0.039  0.040
   19  0.002  0.000  0.067  0.068
   20  0.000  0.000  0.052  0.052
   21  0.000  0.000  0.025  0.025
   22  0.003  0.000  0.056  0.059
   23  0.000  0.000  0.023  0.024
   24  0.011  0.000  0.023  0.035
   25  0.008  0.000  0.007  0.015
   26  0.002  0.000  0.063  0.065
   27  0.003  0.000  0.058  0.061
   28  0.000  0.000  0.004  0.004
   29  0.000  0.000  0.007  0.008
   30  0.002  0.000  0.002  0.004
   31  0.000  0.000  0.008  0.008
   32  0.001  0.001  0.008  0.009
   33  0.002  0.000  0.002  0.004
   34  0.001  0.001  0.008  0.009
   35  0.000  0.000  0.009  0.010
   36  0.000  0.000  0.001  0.001
   37  0.000  0.000  0.000  0.000
tot    0.060  0.007  0.776  0.844
 
band    16 # energy   -5.01836535 # occ.  2.00000000
 
ion      s      p      d    tot
    1  0.000  0.000  0.006  0.006
    2  0.000  0.000  0.008  0.009
    3  0.003  0.000  0.005  0.009
    4  0.000  0.000  0.008  0.009
    5  0.000  0.000  0.009  0.010
    6  0.001  0.000  0.008  0.010
    7  0.003  0.000  0.005  0.009
    8  0.002  0.000  0.008  0.010
    9  0.000  0.000  0.018  0.018
   10  0.000  0.000  0.028  0.028
   11  0.005  0.000  0.020  0.026
   12  0.002  0.000  0.025  0.028
   13  0.005  0.000  0.023  0.028
   14  0.000  0.000  0.062  0.062
   15  0.000  0.000  0.036  0.036
   16  0.003  0.000  0.025  0.028
   17  0.000  0.000  0.035  0.036
   18  0.000  0.000  0.023  0.024
   19  0.006  0.000  0.025  0.031
   20  0.000  0.000  0.015  0.015
   21  0.000  0.000  0.042  0.042
   22  0.008  0.000  0.035  0.044
   23  0.000  0.000  0.044  0.044
   24  0.000  0.000  0.068  0.068
   25  0.000  0.000  0.084  0.084
   26  0.006  0.000  0.028  0.034
   27  0.009  0.000  0.033  0.042
   28  0.000  0.000  0.004  0.004
   29  0.002  0.001  0.004  0.006
   30  0.000  0.000  0.010  0.010
   31  0.002  0.001  0.004  0.006
   32  0.001  0.000  0.003  0.005
   33  0.000  0.000  0.010  0.010
   34  0.001  0.000  0.004  0.005
   35  0.000  0.000  0.009  0.010
   36  0.000  0.000  0.001  0.001
   37  0.000  0.000  0.000  0.000
tot    0.060  0.007  0.776  0.844
 
band    17 # energy   -4.99378181 # occ.  2.00000000
 
ion      s      p      d    tot
    1  0.006  0.000  0.008  0.014
    2  0.003  0.000  0.012  0.015
    3  0.003  0.000  0.012  0.015
    4  0.003  0.000  0.012  0.015
    5  0.003  0.000  0.015  0.017
    6  0.003  0.000  0.012  0.015
    7  0.003  0.000  0.012  0.015
    8  0.003  0.000  0.012  0.015
    9  0.002  0.000  0.011  0.013
   10  0.001  0.000  0.008  0.009
   11  0.003  0.000  0.009  0.011
   12  0.001  0.000  0.008  0.009
   13  0.003  0.000  0.009  0.011
   14  0.003  0.000  0.009  0.011
   15  0.002  0.000  0.008  0.010
   16  0.001  0.000  0.008  0.009
   17  0.002  0.000  0.008  0.010
   18  0.002  0.000  0.008  0.010
   19  0.002  0.001  0.014  0.016
   20  0.000  0.001  0.021  0.022
   21  0.000  0.001  0.021  0.022
   22  0.000  0.001  0.019  0.020
   23  0.000  0.001  0.021  0.022
   24  0.000  0.001  0.019  0.020
   25  0.002  0.001  0.014  0.016
   26  0.002  0.001  0.014  0.016
   27  0.000  0.001  0.019  0.020
   28  0.014  0.000  0.036  0.050
   29  0.014  0.000  0.030  0.044
   30  0.014  0.000  0.030  0.044
   31  0.014  0.000  0.030  0.044
   32  0.014  0.000  0.030  0.044
   33  0.014  0.000  0.030  0.044
   34  0.014  0.000  0.030  0.044
   35  0.016  0.000  0.030  0.046
   36  0.009  0.000  0.007  0.017
   37  0.001  0.000  0.000  0.001
tot    0.178  0.008  0.592  0.778
 
band    18 # energy   -4.89498688 # occ.  2.00000000
 
ion      s      p      d    tot
    1  0.000  0.000  0.000  0.000
    2  0.000  0.000  0.005  0.005
    3  0.000  0.000  0.005  0.005
    4  0.000  0.000  0.005  0.005
    5  0.000  0.000  0.016  0.017
    6  0.000  0.000  0.005  0.005
    7  0.000  0.000  0.005  0.005
    8  0.000  0.000  0.005  0.005
    9  0.001  0.001  0.007  0.009
   10  0.000  0.000  0.012  0.012
   11  0.000  0.001  0.078  0.078
   12  0.000  0.000  0.012  0.012
   13  0.000  0.001  0.078  0.078
   14  0.000  0.001  0.078  0.078
   15  0.000  0.001  0.039  0.040
   16  0.000  0.000  0.012  0.012
   17  0.000  0.001  0.039  0.040
   18  0.000  0.001  0.039  0.040
   19  0.000  0.000  0.018  0.018
   20  0.001  0.000  0.071  0.073
   21  0.001  0.000  0.071  0.073
   22  0.003  0.000  0.020  0.023
   23  0.001  0.000  0.071  0.073
   24  0.003  0.000  0.020  0.023
   25  0.000  0.000  0.018  0.018
   26  0.000  0.000  0.018  0.018
   27  0.003  0.000  0.020  0.023
   28  0.005  0.001  0.000  0.006
   29  0.000  0.000  0.011  0.011
   30  0.000  0.000  0.011  0.011
   31  0.000  0.000  0.011  0.011
   32  0.000  0.000  0.011  0.011
   33  0.000  0.000  0.011  0.011
   34  0.000  0.000  0.011  0.011
   35  0.001  0.000  0.001  0.002
   36  0.001  0.001  0.003  0.005
   37  0.000  0.001  0.000  0.001
tot    0.023  0.014  0.832  0.870
 
band    19 # energy   -4.87970869 # occ.  2.00000000
 
ion      s      p      d    tot
    1  0.000  0.000  0.001  0.001
    2  0.000  0.000  0.007  0.007
    3  0.001  0.001  0.005  0.007
    4  0.000  0.000  0.007  0.008
    5  0.000  0.001  0.015  0.016
    6  0.000  0.000  0.008  0.009
    7  0.001  0.001  0.005  0.007
    8  0.001  0.000  0.008  0.009
    9  0.000  0.000  0.010  0.010
   10  0.000  0.000  0.029  0.030
   11  0.001  0.000  0.054  0.055
   12  0.000  0.001  0.024  0.025
   13  0.001  0.000  0.057  0.059
   14  0.000  0.000  0.092  0.092
   15  0.002  0.001  0.030  0.032
   16  0.000  0.001  0.024  0.025
   17  0.002  0.001  0.028  0.030
   18  0.000  0.000  0.009  0.009
   19  0.002  0.001  0.025  0.028
   20  0.000  0.000  0.100  0.100
   21  0.002  0.000  0.066  0.069
   22  0.000  0.001  0.024  0.025
   23  0.003  0.000  0.063  0.066
   24  0.000  0.000  0.032  0.033
   25  0.000  0.000  0.004  0.004
   26  0.002  0.001  0.023  0.026
   27  0.000  0.001  0.023  0.024
   28  0.000  0.000  0.008  0.008
   29  0.001  0.001  0.008  0.010
   30  0.002  0.001  0.005  0.008
   31  0.001  0.001  0.008  0.009
   32  0.000  0.000  0.006  0.007
   33  0.002  0.001  0.005  0.008
   34  0.000  0.000  0.006  0.006
   35  0.000  0.000  0.001  0.001
   36  0.000  0.002  0.004  0.006
   37  0.000  0.000  0.000  0.000
tot    0.025  0.016  0.824  0.865
 
band    20 # energy   -4.87970185 # occ.  2.00000000
 
ion      s      p      d    tot
    1  0.000  0.000  0.001  0.001
    2  0.001  0.001  0.007  0.008
    3  0.000  0.000  0.009  0.009
    4  0.001  0.001  0.006  0.008
    5  0.000  0.001  0.015  0.016
    6  0.001  0.000  0.005  0.006
    7  0.000  0.000  0.009  0.009
    8  0.001  0.000  0.005  0.006
    9  0.000  0.000  0.010  0.010
   10  0.000  0.001  0.022  0.024
   11  0.000  0.000  0.081  0.082
   12  0.000  0.000  0.027  0.028
   13  0.000  0.000  0.078  0.079
   14  0.002  0.000  0.043  0.045
   15  0.000  0.000  0.015  0.015
   16  0.000  0.000  0.028  0.028
   17  0.001  0.000  0.017  0.017
   18  0.002  0.001  0.035  0.038
   19  0.000  0.000  0.010  0.010
   20  0.003  0.000  0.053  0.057
   21  0.001  0.000  0.086  0.087
   22  0.000  0.000  0.029  0.030
   23  0.001  0.000  0.090  0.090
   24  0.000  0.001  0.021  0.022
   25  0.002  0.001  0.031  0.034
   26  0.001  0.000  0.011  0.012
   27  0.000  0.000  0.030  0.030
   28  0.000  0.000  0.008  0.008
   29  0.001  0.000  0.005  0.006
   30  0.000  0.000  0.008  0.008
   31  0.001  0.000  0.005  0.006
   32  0.002  0.001  0.006  0.009
   33  0.000  0.000  0.008  0.008
   34  0.002  0.001  0.007  0.009
   35  0.000  0.000  0.001  0.001
   36  0.000  0.002  0.004  0.006
   37  0.000  0.000  0.000  0.000
tot    0.025  0.016  0.824  0.865
 
band    21 # energy   -4.86157611 # occ.  2.00000000
 
ion      s      p      d    tot
    1  0.000  0.000  0.006  0.006
    2  0.000  0.001  0.012  0.012
    3  0.000  0.001  0.012  0.012
    4  0.000  0.001  0.012  0.012
    5  0.004  0.001  0.000  0.006
    6  0.000  0.001  0.012  0.012
    7  0.000  0.001  0.012  0.012
    8  0.000  0.001  0.012  0.012
    9  0.002  0.000  0.003  0.005
   10  0.002  0.001  0.052  0.055
   11  0.000  0.000  0.024  0.024
   12  0.002  0.001  0.052  0.055
   13  0.000  0.000  0.024  0.024
   14  0.000  0.000  0.024  0.025
   15  0.003  0.000  0.025  0.028
   16  0.002  0.001  0.052  0.055
   17  0.003  0.000  0.025  0.028
   18  0.003  0.000  0.025  0.028
   19  0.001  0.000  0.054  0.056
   20  0.001  0.000  0.016  0.016
   21  0.001  0.000  0.016  0.016
   22  0.000  0.001  0.044  0.045
   23  0.001  0.000  0.016  0.016
   24  0.000  0.001  0.044  0.045
   25  0.001  0.000  0.054  0.056
   26  0.001  0.000  0.054  0.056
   27  0.000  0.001  0.044  0.045
   28  0.000  0.000  0.014  0.015
   29  0.000  0.000  0.010  0.011
   30  0.000  0.000  0.010  0.011
   31  0.000  0.000  0.010  0.011
   32  0.000  0.000  0.010  0.011
   33  0.000  0.000  0.010  0.011
   34  0.000  0.000  0.010  0.011
   35  0.004  0.001  0.003  0.007
   36  0.003  0.001  0.000  0.004