 vasp.6.2.0 18Jan21 (build Jun 12 2021 23:27:24) complex                        
  
 executed on             LinuxIFC date 2022.05.27  05:08:36
 running on   28 total cores
 distrk:  each k-point on   28 cores,    1 groups
 distr:  one band on NCORE=   1 cores,   28 groups


--------------------------------------------------------------------------------------------------------


 INCAR:
   ISMEAR = -5
   SIGMA = 0.1
   ISPIN = 1
   EDIFF = 1.d-5
   EDIFFG = -0.01
   NSW = 0
   NELM = 150
   ENCUT = 500
   ISIF = 2
   IBRION = 2
   LREAL = Auto
   ALGO = Fast
   ICHARG = 11
   LORBIT = 10
   LCHARG = .F.
   LWAVE = .F.

 POTCAR:    PAW_PBE Au 04Oct2007                  
 POTCAR:    PAW_PBE Nb_sv 25May2007               
 POTCAR:    PAW_PBE C 08Apr2002                   
 POTCAR:    PAW_PBE O 08Apr2002                   
 -----------------------------------------------------------------------------
|                                                                             |
|           W    W    AA    RRRRR   N    N  II  N    N   GGGG   !!!           |
|           W    W   A  A   R    R  NN   N  II  NN   N  G    G  !!!           |
|           W    W  A    A  R    R  N N  N  II  N N  N  G       !!!           |
|           W WW W  AAAAAA  RRRRR   N  N N  II  N  N N  G  GGG   !            |
|           WW  WW  A    A  R   R   N   NN  II  N   NN  G    G                |
|           W    W  A    A  R    R  N    N  II  N    N   GGGG   !!!           |
|                                                                             |
|     For optimal performance we recommend to set                             |
|       NCORE = 2 up to number-of-cores-per-socket                            |
|     NCORE specifies how many cores store one orbital (NPAR=cpu/NCORE).      |
|     This setting can greatly improve the performance of VASP for DFT.       |
|     The default, NCORE=1 might be grossly inefficient on modern             |
|     multi-core architectures or massively parallel machines. Do your        |
|     own testing! More info at https://www.vasp.at/wiki/index.php/NCORE      |
|     Unfortunately you need to use the default for GW and RPA                |
|     calculations (for HF NCORE is supported but not extensively tested      |
|     yet).                                                                   |
|                                                                             |
 -----------------------------------------------------------------------------

 POTCAR:    PAW_PBE Au 04Oct2007                  
   VRHFIN =Au: s1d10                                                                                
   LEXCH  = PE                                                                                      
   EATOM  =   926.0867 eV,   68.0654 Ry                                                             
                                                                                                    
   TITEL  = PAW_PBE Au 04Oct2007                                                                    
   LULTRA =        F    use ultrasoft PP ?                                                          
   IUNSCR =        1    unscreen: 0-lin 1-nonlin 2-no                                               
   RPACOR =    2.330    partial core radius                                                         
   POMASS =  196.966; ZVAL   =   11.000    mass and valenz                                          
   RCORE  =    2.500    outmost cutoff radius                                                       
   RWIGS  =    2.840; RWIGS  =    1.503    wigner-seitz radius (au A)                               
   ENMAX  =  229.943; ENMIN  =  172.457 eV                                                          
   ICORE  =        3    local potential                                                             
   LCOR   =        T    correct aug charges                                                         
   LPAW   =        T    paw PP                                                                      
   EAUG   =  356.670                                                                                
   DEXC   =    0.000                                                                                
   RMAX   =    2.562    core radius for proj-oper                                                   
   RAUG   =    1.300    factor for augmentation sphere                                              
   RDEP   =    2.598    radius for radial grids                                                     
   RDEPT  =    2.193    core radius for aug-charge                                                  
                                                                                                    
   Atomic configuration                                                                             
   16 entries                                                                                       
     n  l   j            E        occ.                                                              
     1  0  0.50    -80748.5001   2.0000                                                             
     2  0  0.50    -14244.7466   2.0000                                                             
     2  1  1.50    -12310.9591   6.0000                                                             
     3  0  0.50     -3362.1768   2.0000                                                             
     3  1  1.50     -2801.5463   6.0000                                                             
     3  2  2.50     -2203.8206  10.0000                                                             
     4  0  0.50      -729.8168   2.0000                                                             
     4  1  1.50      -546.0527   6.0000                                                             
     4  2  2.50      -325.7302  10.0000                                                             
     4  3  3.50       -81.1472  14.0000                                                             
     5  0  0.50      -108.3201   2.0000                                                             
     5  1  1.50       -59.7479   6.0000                                                             
     5  2  2.50        -6.8783  10.0000                                                             
     6  0  0.50        -5.7602   1.0000                                                             
     6  1  1.50        -6.8029   0.0000                                                             
     5  3  2.50        -1.3606   0.0000                                                             
   Description                                                                                      
     l       E           TYP  RCUT    TYP  RCUT                                                     
     2     -6.8782861     23  2.500                                                                 
     2     -8.2388687     23  2.500                                                                 
     0     -5.7601759     23  2.500                                                                 
     0     -0.8493231     23  2.500                                                                 
     1     -2.7211652     23  2.500                                                                 
     1     27.2116520     23  2.500                                                                 
     3     -1.3605826     23  2.500                                                                 
  local pseudopotential read in
  partial core-charges read in
  partial kinetic energy density read in
  atomic valenz-charges read in
  non local Contribution for L=           2  read in
    real space projection operators read in
  non local Contribution for L=           2  read in
    real space projection operators read in
  non local Contribution for L=           0  read in
    real space projection operators read in
  non local Contribution for L=           0  read in
    real space projection operators read in
  non local Contribution for L=           1  read in
    real space projection operators read in
  non local Contribution for L=           1  read in
    real space projection operators read in
    PAW grid and wavefunctions read in
 
   number of l-projection  operators is LMAX  =           6
   number of lm-projection operators is LMMAX =          18
 
 POTCAR:    PAW_PBE Nb_sv 25May2007               
   VRHFIN =Nb: 4p5s4d                                                                               
   LEXCH  = PE                                                                                      
   EATOM  =  1555.1913 eV,  114.3033 Ry                                                             
                                                                                                    
   TITEL  = PAW_PBE Nb_sv 25May2007                                                                 
   LULTRA =        F    use ultrasoft PP ?                                                          
   IUNSCR =        1    unscreen: 0-lin 1-nonlin 2-no                                               
   RPACOR =    1.800    partial core radius                                                         
   POMASS =   92.910; ZVAL   =   13.000    mass and valenz                                          
   RCORE  =    2.400    outmost cutoff radius                                                       
   RWIGS  =    2.400; RWIGS  =    1.270    wigner-seitz radius (au A)                               
   ENMAX  =  293.235; ENMIN  =  219.927 eV                                                          
   ICORE  =        3    local potential                                                             
   LCOR   =        T    correct aug charges                                                         
   LPAW   =        T    paw PP                                                                      
   EAUG   =  455.659                                                                                
   DEXC   =    0.000                                                                                
   RMAX   =    2.456    core radius for proj-oper                                                   
   RAUG   =    1.300    factor for augmentation sphere                                              
   RDEP   =    2.451    radius for radial grids                                                     
   RDEPT  =    1.956    core radius for aug-charge                                                  
                                                                                                    
   Atomic configuration                                                                             
   11 entries                                                                                       
     n  l   j            E        occ.                                                              
     1  0  0.50    -18805.2457   2.0000                                                             
     2  0  0.50     -2630.2869   2.0000                                                             
     2  1  1.50     -2348.4046   6.0000                                                             
     3  0  0.50      -438.8757   2.0000                                                             
     3  1  1.50      -346.7588   6.0000                                                             
     3  2  2.50      -196.2560  10.0000                                                             
     4  0  0.50       -58.3859   2.0000                                                             
     5  0  0.50        -3.9816   1.0000                                                             
     4  1  1.50       -34.5141   6.0000                                                             
     4  2  2.50        -3.0408   4.0000                                                             
     4  3  2.50        -1.3606   0.0000                                                             
   Description                                                                                      
     l       E           TYP  RCUT    TYP  RCUT                                                     
     0    -58.3859094     23  2.200                                                                 
     0     -3.9816262     23  2.200                                                                 
     1    -34.5140738     23  2.200                                                                 
     1     13.6058260     23  2.200                                                                 
     2     -3.0408010     23  2.200                                                                 
     2     -0.1283038     23  2.200                                                                 
     3     -1.3605826     23  2.400                                                                 
  local pseudopotential read in
  partial core-charges read in
  partial kinetic energy density read in
  atomic valenz-charges read in
  non local Contribution for L=           0  read in
    real space projection operators read in
  non local Contribution for L=           0  read in
    real space projection operators read in
  non local Contribution for L=           1  read in
    real space projection operators read in
  non local Contribution for L=           1  read in
    real space projection operators read in
  non local Contribution for L=           2  read in
    real space projection operators read in
  non local Contribution for L=           2  read in
    real space projection operators read in
    PAW grid and wavefunctions read in
 
   number of l-projection  operators is LMAX  =           6
   number of lm-projection operators is LMMAX =          18
 
 POTCAR:    PAW_PBE C 08Apr2002                   
   VRHFIN =C: s2p2                                                                                  
   LEXCH  = PE                                                                                      
   EATOM  =   147.1560 eV,   10.8157 Ry                                                             
                                                                                                    
   TITEL  = PAW_PBE C 08Apr2002                                                                     
   LULTRA =        F    use ultrasoft PP ?                                                          
   IUNSCR =        1    unscreen: 0-lin 1-nonlin 2-no                                               
   RPACOR =    1.200    partial core radius                                                         
   POMASS =   12.011; ZVAL   =    4.000    mass and valenz                                          
   RCORE  =    1.500    outmost cutoff radius                                                       
   RWIGS  =    1.630; RWIGS  =    0.863    wigner-seitz radius (au A)                               
   ENMAX  =  400.000; ENMIN  =  300.000 eV                                                          
   ICORE  =        2    local potential                                                             
   LCOR   =        T    correct aug charges                                                         
   LPAW   =        T    paw PP                                                                      
   EAUG   =  644.873                                                                                
   DEXC   =    0.000                                                                                
   RMAX   =    1.529    core radius for proj-oper                                                   
   RAUG   =    1.300    factor for augmentation sphere                                              
   RDEP   =    1.501    radius for radial grids                                                     
   RDEPT  =    1.300    core radius for aug-charge                                                  
                                                                                                    
   Atomic configuration                                                                             
    4 entries                                                                                       
     n  l   j            E        occ.                                                              
     1  0  0.50      -273.3789   2.0000                                                             
     2  0  0.50       -13.7508   2.0000                                                             
     2  1  0.50        -5.2854   2.0000                                                             
     3  2  1.50        -5.4423   0.0000                                                             
   Description                                                                                      
     l       E           TYP  RCUT    TYP  RCUT                                                     
     0    -13.7508458     23  1.200                                                                 
     0     -8.2022199     23  1.200                                                                 
     1     -5.2854383     23  1.500                                                                 
     1     34.0145650     23  1.500                                                                 
     2     -5.4423304      7  1.500                                                                 
  local pseudopotential read in
  partial core-charges read in
  partial kinetic energy density read in
  atomic valenz-charges read in
  non local Contribution for L=           0  read in
    real space projection operators read in
  non local Contribution for L=           0  read in
    real space projection operators read in
  non local Contribution for L=           1  read in
    real space projection operators read in
  non local Contribution for L=           1  read in
    real space projection operators read in
    PAW grid and wavefunctions read in
 
   number of l-projection  operators is LMAX  =           4
   number of lm-projection operators is LMMAX =           8
 
 POTCAR:    PAW_PBE O 08Apr2002                   
   VRHFIN =O: s2p4                                                                                  
   LEXCH  = PE                                                                                      
   EATOM  =   432.3788 eV,   31.7789 Ry                                                             
                                                                                                    
   TITEL  = PAW_PBE O 08Apr2002                                                                     
   LULTRA =        F    use ultrasoft PP ?                                                          
   IUNSCR =        1    unscreen: 0-lin 1-nonlin 2-no                                               
   RPACOR =    1.200    partial core radius                                                         
   POMASS =   16.000; ZVAL   =    6.000    mass and valenz                                          
   RCORE  =    1.520    outmost cutoff radius                                                       
   RWIGS  =    1.550; RWIGS  =    0.820    wigner-seitz radius (au A)                               
   ENMAX  =  400.000; ENMIN  =  300.000 eV                                                          
   ICORE  =        2    local potential                                                             
   LCOR   =        T    correct aug charges                                                         
   LPAW   =        T    paw PP                                                                      
   EAUG   =  605.392                                                                                
   DEXC   =    0.000                                                                                
   RMAX   =    1.553    core radius for proj-oper                                                   
   RAUG   =    1.300    factor for augmentation sphere                                              
   RDEP   =    1.550    radius for radial grids                                                     
   RDEPT  =    1.329    core radius for aug-charge                                                  
                                                                                                    
   Atomic configuration                                                                             
    4 entries                                                                                       
     n  l   j            E        occ.                                                              
     1  0  0.50      -514.6923   2.0000                                                             
     2  0  0.50       -23.9615   2.0000                                                             
     2  1  0.50        -9.0305   4.0000                                                             
     3  2  1.50        -9.5241   0.0000                                                             
   Description                                                                                      
     l       E           TYP  RCUT    TYP  RCUT                                                     
     0    -23.9615318     23  1.200                                                                 
     0     -9.5240782     23  1.200                                                                 
     1     -9.0304911     23  1.520                                                                 
     1      8.1634956     23  1.520                                                                 
     2     -9.5240782      7  1.500                                                                 
  local pseudopotential read in
  partial core-charges read in
  partial kinetic energy density read in
  kinetic energy density of atom read in
  atomic valenz-charges read in
  non local Contribution for L=           0  read in
    real space projection operators read in
  non local Contribution for L=           0  read in
    real space projection operators read in
  non local Contribution for L=           1  read in
    real space projection operators read in
  non local Contribution for L=           1  read in
    real space projection operators read in
    PAW grid and wavefunctions read in
 
   number of l-projection  operators is LMAX  =           4
   number of lm-projection operators is LMMAX =           8
 
 Optimization of the real space projectors (new method)

 maximal supplied QI-value         = 15.12
 optimisation between [QCUT,QGAM] = [ 11.34, 22.83] = [ 36.00,145.93] Ry 
 Optimized for a Real-space Cutoff    1.39 Angstroem

   l    n(q)    QCUT    max X(q) W(low)/X(q) W(high)/X(q)  e(spline) 
   2      9    11.338    60.898    0.39E-03    0.42E-03    0.21E-06
   2      9    11.338    58.894    0.40E-03    0.42E-03    0.22E-06
   0      9    11.338   109.617    0.13E-03    0.20E-04    0.13E-06
   0      9    11.338    75.026    0.13E-03    0.20E-04    0.13E-06
   1      9    11.338    16.344    0.33E-04    0.24E-03    0.18E-06
   1      9    11.338    10.160    0.26E-04    0.19E-03    0.15E-06
 Optimization of the real space projectors (new method)

 maximal supplied QI-value         = 15.68
 optimisation between [QCUT,QGAM] = [ 11.45, 22.90] = [ 36.71,146.85] Ry 
 Optimized for a Real-space Cutoff    1.56 Angstroem

   l    n(q)    QCUT    max X(q) W(low)/X(q) W(high)/X(q)  e(spline) 
   0     11    11.450    10.201    0.21E-04    0.96E-05    0.78E-07
   0     11    11.450     8.174    0.31E-04    0.18E-04    0.14E-06
   1     10    11.450     3.488    0.27E-04    0.12E-04    0.96E-07
   1     10    11.450     4.917    0.11E-03    0.11E-03    0.37E-06
   2     10    11.450   153.744    0.37E-03    0.81E-03    0.10E-05
   2     10    11.450   126.342    0.37E-03    0.81E-03    0.10E-05
 Optimization of the real space projectors (new method)

 maximal supplied QI-value         = 25.13
 optimisation between [QCUT,QGAM] = [ 11.31, 22.87] = [ 35.82,146.48] Ry 
 Optimized for a Real-space Cutoff    1.00 Angstroem

   l    n(q)    QCUT    max X(q) W(low)/X(q) W(high)/X(q)  e(spline) 
   0      7    11.310   115.676    0.43E-03    0.13E-02    0.19E-06
   0      7    11.310    87.132    0.43E-03    0.13E-02    0.18E-06
   1      6    11.310     4.429    0.42E-03    0.74E-03    0.11E-06
   1      6    11.310     2.733    0.34E-03    0.55E-03    0.92E-07
 Optimization of the real space projectors (new method)

 maximal supplied QI-value         = 24.76
 optimisation between [QCUT,QGAM] = [ 11.39, 22.77] = [ 36.31,145.25] Ry 
 Optimized for a Real-space Cutoff    1.00 Angstroem

   l    n(q)    QCUT    max X(q) W(low)/X(q) W(high)/X(q)  e(spline) 
   0      7    11.387    20.381    0.39E-03    0.13E-02    0.15E-06
   0      7    11.387    15.268    0.42E-03    0.14E-02    0.17E-06
   1      6    11.387     5.964    0.41E-03    0.11E-02    0.17E-06
   1      6    11.387     5.382    0.39E-03    0.87E-03    0.15E-06
  PAW_PBE Au 04Oct2007                  :
 energy of atom  1       EATOM= -926.0867
 kinetic energy error for atom=    0.0042 (will be added to EATOM!!)
  PAW_PBE Nb_sv 25May2007               :
 energy of atom  2       EATOM=-1555.1913
 kinetic energy error for atom=    0.0069 (will be added to EATOM!!)
  PAW_PBE C 08Apr2002                   :
 energy of atom  3       EATOM= -147.1560
 kinetic energy error for atom=    0.0076 (will be added to EATOM!!)
  PAW_PBE O 08Apr2002                   :
 energy of atom  4       EATOM= -432.3788
 kinetic energy error for atom=    0.0224 (will be added to EATOM!!)
 
 
 POSCAR: Au-Nb-CO
  positions in direct lattice
  velocities in cartesian coordinates
 exchange correlation table for  LEXCH =        8
   RHO(1)=    0.500       N(1)  =     2000
   RHO(2)=  100.500       N(2)  =     4000

 VTST: version 3.2, (02/03/18)

 CHAIN: initializing optimizer
 
 OPT: Using VASP Conjugate-Gradient optimizer
 CHAIN: Read ICHAIN            0
 
 POSCAR: Au-Nb-CO
  positions in direct lattice
  velocities in cartesian coordinates
 


--------------------------------------------------------------------------------------------------------


 ion  position               nearest neighbor table
   1  0.000  0.000  0.238-  16 2.94  12 2.94   6 2.94   8 2.94   7 2.94   3 2.94  10 2.94   4 2.94
                             2 2.94
   2  0.333  0.000  0.238-   9 2.94  11 2.94  17 2.94  10 2.94   8 2.94   4 2.94   5 2.94   1 2.94
                             3 2.94
   3  0.667  0.000  0.238-   7 2.94  18 2.94  12 2.94   1 2.94  11 2.94   5 2.94   6 2.94   9 2.94
                             2 2.94
   4  0.000  0.333  0.238-  10 2.94   6 2.94   5 2.94  13 2.94   2 2.94  15 2.94   9 2.94   1 2.94
                             7 2.94
   5  0.333  0.333  0.238-  13 2.94   7 2.94  11 2.94   4 2.94   2 2.94  14 2.94   3 2.94   8 2.94
                             6 2.94
   6  0.667  0.333  0.238-  15 2.94  14 2.94   1 2.94  12 2.94   4 2.94   9 2.94   8 2.94   3 2.94
                             5 2.94
   7  0.000  0.667  0.238-  18 2.94   3 2.94  16 2.94   5 2.94   1 2.94  13 2.94   8 2.94   4 2.94
                             9 2.94
   8  0.333  0.667  0.238-   9 2.94  17 2.94   1 2.94   2 2.94  14 2.94  16 2.94   6 2.94   7 2.94
                             5 2.94
   9  0.667  0.667  0.238-   2 2.94   8 2.94  17 2.94   6 2.94  15 2.94   4 2.94   3 2.94  18 2.94
                             7 2.94
  10  0.111  0.111  0.346-  20 2.91  11 2.94  17 2.94   2 2.94   4 2.94   1 2.94  12 2.94  16 2.94
                            13 2.94  15 2.94  26 2.95  19 2.95
  11  0.444  0.111  0.346-  20 2.91  21 2.91  13 2.94   2 2.94  10 2.94  17 2.94   5 2.94   3 2.94
                            18 2.94  14 2.94  12 2.94  27 2.94
  12  0.778  0.111  0.346-  21 2.91  16 2.94  18 2.94   1 2.94  14 2.94  15 2.94   3 2.94   6 2.94
                            10 2.94  11 2.94  25 2.95  19 2.95
  13  0.111  0.444  0.346-  23 2.91  20 2.91   5 2.94  18 2.94  11 2.94   7 2.94   4 2.94  16 2.94
                            10 2.94  14 2.94  15 2.94  22 2.94
  14  0.444  0.444  0.346-  21 2.91  23 2.91  15 2.94   6 2.94  12 2.94   8 2.94  17 2.94   5 2.94
                            16 2.94  13 2.94  11 2.94  24 2.94
  15  0.778  0.444  0.346-  24 2.93  22 2.93  14 2.94   6 2.94  17 2.94  12 2.94   9 2.94   4 2.94
                            10 2.94  13 2.94  18 2.94  19 2.94
  16  0.111  0.778  0.346-  23 2.91  18 2.94  12 2.94   7 2.94   1 2.94   8 2.94  13 2.94  10 2.94
                            14 2.94  17 2.94  25 2.95  26 2.95
  17  0.444  0.778  0.346-  27 2.93  24 2.93   9 2.94  15 2.94   2 2.94  10 2.94  11 2.94   8 2.94
                            14 2.94  16 2.94  18 2.94  26 2.94
  18  0.778  0.778  0.346-  22 2.93  27 2.93  16 2.94   7 2.94  13 2.94  12 2.94   3 2.94  11 2.94
                             9 2.94  15 2.94  17 2.94  25 2.94
  19  0.889  0.223  0.454-  24 2.93  22 2.93  21 2.94  20 2.94  15 2.94  26 2.94  25 2.94  10 2.95
                            12 2.95  28 2.95  32 3.04  31 3.04
  20  0.222  0.222  0.453-  36 2.78  10 2.91  11 2.91  13 2.91  26 2.94  19 2.94  23 2.94  21 2.94
                            27 2.95  22 2.95  29 2.99  31 2.99
  21  0.556  0.222  0.453-  36 2.78  12 2.91  14 2.91  11 2.91  25 2.94  19 2.94  20 2.94  23 2.94
                            27 2.95  24 2.95  30 2.99  32 2.99
  22  0.887  0.557  0.454-  24 2.91  27 2.91  18 2.93  15 2.93  25 2.93  19 2.93  13 2.94  23 2.95
                            20 2.95  35 2.96  33 3.02  31 3.02
  23  0.222  0.556  0.453-  36 2.78  16 2.91  13 2.91  14 2.91  25 2.94  26 2.94  20 2.94  21 2.94
                            22 2.95  24 2.95  33 2.99  34 2.99
  24  0.557  0.557  0.454-  27 2.91  22 2.91  15 2.93  17 2.93  26 2.93  19 2.93  14 2.94  21 2.95
                            23 2.95  35 2.96  32 3.02  34 3.02
  25  0.889  0.889  0.454-  22 2.93  27 2.93  23 2.94  21 2.94  18 2.94  19 2.94  26 2.94  16 2.95
                            12 2.95  28 2.95  33 3.04  30 3.04
  26  0.223  0.889  0.454-  27 2.93  24 2.93  20 2.94  23 2.94  17 2.94  19 2.94  25 2.94  10 2.95
                            16 2.95  28 2.95  29 3.04  34 3.04
  27  0.557  0.887  0.454-  24 2.91  22 2.91  17 2.93  18 2.93  26 2.93  25 2.93  11 2.94  20 2.95
                            21 2.95  35 2.96  29 3.02  30 3.02
  28  0.000  0.000  0.563-  25 2.95  19 2.95  26 2.95  34 2.98  32 2.98  33 2.98  30 2.98  31 2.98
                            29 2.98
  29  0.334  0.009  0.566-  30 2.85  31 2.86  36 2.87  35 2.98  28 2.98  20 2.99  27 3.02  26 3.04
                            34 3.10
  30  0.657  0.009  0.566-  29 2.85  32 2.86  36 2.87  35 2.98  28 2.98  21 2.99  27 3.02  25 3.04
                            33 3.10
  31  0.009  0.334  0.566-  33 2.85  29 2.86  36 2.87  35 2.98  28 2.98  20 2.99  22 3.02  19 3.04
                            32 3.10
  32  0.657  0.334  0.566-  34 2.85  30 2.86  36 2.87  35 2.98  28 2.98  21 2.99  24 3.02  19 3.04
                            31 3.10
  33  0.009  0.657  0.566-  31 2.85  34 2.86  36 2.87  35 2.98  28 2.98  23 2.99  22 3.02  25 3.04
                            30 3.10
  34  0.334  0.657  0.566-  32 2.85  33 2.86  36 2.87  35 2.98  28 2.98  23 2.99  24 3.02  26 3.04
                            29 3.10
  35  0.667  0.667  0.563-  24 2.96  27 2.96  22 2.96  29 2.98  34 2.98  32 2.98  31 2.98  30 2.98
                            33 2.98
  36  0.333  0.333  0.552-  37 2.10  20 2.78  23 2.78  21 2.78  33 2.87  31 2.87  29 2.87  30 2.87
                            34 2.87  32 2.87
  37  0.333  0.333  0.646-  38 1.16  36 2.10
  38  0.333  0.333  0.699-  37 1.16
 
  LATTYP: Found a hexagonal cell.
 ALAT       =     8.8135128021
 C/A-ratio  =     2.5184286595
  
  Lattice vectors:
  
 A1 = (  -4.4067569092,  -7.6327256898,   0.0000000000)
 A2 = (   8.8135128021,   0.0000000000,   0.0000000000)
 A3 = (   0.0000000000,   0.0000000000,  22.1962032318)


Analysis of symmetry for initial positions (statically):
=====================================================================
 Subroutine PRICEL returns:
 Original cell was already a primitive cell.
 

 Routine SETGRP: Setting up the symmetry group for a 
 hexagonal supercell.


 Subroutine GETGRP returns: Found  6 space group operations
 (whereof  6 operations were pure point group operations)
 out of a pool of 24 trial point group operations.


The static configuration has the point symmetry C_3v.


Analysis of symmetry for dynamics (positions and initial velocities):
=====================================================================
 Subroutine PRICEL returns:
 Original cell was already a primitive cell.
 

 Routine SETGRP: Setting up the symmetry group for a 
 hexagonal supercell.


 Subroutine GETGRP returns: Found  6 space group operations
 (whereof  6 operations were pure point group operations)
 out of a pool of 24 trial point group operations.


The dynamic configuration has the point symmetry C_3v.


Analysis of constrained symmetry for selective dynamics:
=====================================================================
 Subroutine PRICEL returns:
 Original cell was already a primitive cell.
 

 Routine SETGRP: Setting up the symmetry group for a 
 hexagonal supercell.


 Subroutine GETGRP returns: Found  6 space group operations
 (whereof  6 operations were pure point group operations)
 out of a pool of 24 trial point group operations.


The constrained configuration has the point symmetry C_3v.


 Subroutine INISYM returns: Found  6 space group operations
 (whereof  6 operations are pure point group operations),
 and found     1 'primitive' translations


----------------------------------------------------------------------------------------

                                     Primitive cell                                     

  volume of cell :    1493.1636

  direct lattice vectors                    reciprocal lattice vectors
     8.813512802  0.000000000  0.000000000     0.113462137 -0.065507406  0.000000000
     4.406756909  7.632725690  0.000000000     0.000000000  0.131014796  0.000000000
     0.000000000  0.000000000 22.196203232     0.000000000  0.000000000  0.045052750

  length of vectors
     8.813512802  8.813512802 22.196203232     0.131014796  0.131014796  0.045052750

  position of ions in fractional coordinates (direct lattice)
     0.000000000  0.000000000  0.237895638
     0.333333343  0.000000000  0.237895638
     0.666666687  0.000000000  0.237895638
     1.000000000  0.333333343  0.237895638
     0.333333313  0.333333343  0.237895638
     0.666666687  0.333333343  0.237895638
     1.000000000  0.666666687  0.237895638
     0.333333343  0.666666687  0.237895638
     0.666666627  0.666666687  0.237895638
     0.111111119  0.111111112  0.345965207
     0.444444418  0.111111112  0.345965207
     0.777777791  0.111111112  0.345965207
     0.111111127  0.444444448  0.345965207
     0.444444478  0.444444448  0.345965207
     0.777777731  0.444444448  0.345965207
     0.111111090  0.777777791  0.345965207
     0.444444448  0.777777791  0.345965207
     0.777777851  0.777777791  0.345965207
     0.888618023  0.222763970  0.454446333
     0.222009851  0.222009836  0.452661401
     0.555980358  0.222009836  0.452661401
     0.886669919  0.556665071  0.453631222
     0.222009806  0.555980358  0.452661401
     0.556665071  0.556665071  0.453631222
     0.888618023  0.888618023  0.454446333
     0.222764000  0.888618023  0.454446333
     0.556665011  0.886669919  0.453631222
     0.000000000  0.000000000  0.563133560
     0.333745784  0.009183304  0.565704203
     0.657070942  0.009183304  0.565704203
     0.009183304  0.333745784  0.565704203
     0.657070942  0.333745784  0.565704203
     0.009183304  0.657070942  0.565704203
     0.333745784  0.657070942  0.565704203
     0.666666627  0.666666687  0.563383642
     0.333333313  0.333333343  0.551633869
     0.333333313  0.333333343  0.646326224
     0.333333313  0.333333343  0.698683824

  ion indices of the primitive-cell ions
   primitive index   ion index
                 1           1
                 2           2
                 3           3
                 4           4
                 5           5
                 6           6
                 7           7
                 8           8
                 9           9
                10          10
                11          11
                12          12
                13          13
                14          14
                15          15
                16          16
                17          17
                18          18
                19          19
                20          20
                21          21
                22          22
                23          23
                24          24
                25          25
                26          26
                27          27
                28          28
                29          29
                30          30
                31          31
                32          32
                33          33
                34          34
                35          35
                36          36
                37          37
                38          38

----------------------------------------------------------------------------------------

 
 
 KPOINTS: Automatic mesh                          

Automatic generation of k-mesh.
 Grid dimensions read from file:
 generate k-points for:    8    8    1

 Generating k-lattice:

  Cartesian coordinates                     Fractional coordinates (reciprocal lattice)
     0.014182767 -0.008188426  0.000000000     0.125000000 -0.000000000  0.000000000
     0.000000000  0.016376850  0.000000000     0.000000000  0.125000000  0.000000000
     0.000000000  0.000000000  0.045052750     0.000000000  0.000000000  1.000000000

  Length of vectors
     0.016376850  0.016376850  0.045052750

  Shift w.r.t. Gamma in fractional coordinates (k-lattice)
     0.000000000  0.000000000  0.000000000

 TETIRR: Found     36 inequivalent tetrahedra from      384
 
 Subroutine IBZKPT returns following result:
 ===========================================
 
 Found     10 irreducible k-points:
 
 Following reciprocal coordinates:
            Coordinates               Weight
  0.000000  0.000000  0.000000      1.000000
  0.125000 -0.000000  0.000000      6.000000
  0.250000 -0.000000  0.000000      6.000000
  0.375000  0.000000  0.000000      6.000000
  0.500000 -0.000000  0.000000      3.000000
  0.250000  0.125000  0.000000      6.000000
  0.375000  0.125000  0.000000     12.000000
  0.500000  0.125000  0.000000     12.000000
  0.500000  0.250000  0.000000      6.000000
 -0.375000  0.250000  0.000000      6.000000
 
 Following cartesian coordinates:
            Coordinates               Weight
  0.000000  0.000000  0.000000      1.000000
  0.014183 -0.008188  0.000000      6.000000
  0.028366 -0.016377  0.000000      6.000000
  0.042548 -0.024565  0.000000      6.000000
  0.056731 -0.032754  0.000000      3.000000
  0.028366 -0.000000  0.000000      6.000000
  0.042548 -0.008188  0.000000     12.000000
  0.056731 -0.016377  0.000000     12.000000
  0.056731 -0.000000  0.000000      6.000000
 -0.042548  0.057319  0.000000      6.000000
 


--------------------------------------------------------------------------------------------------------




 Dimension of arrays:
   k-points           NKPTS =     10   k-points in BZ     NKDIM =     10   number of bands    NBANDS=    252
   number of dos      NEDOS =    301   number of ions     NIONS =     38
   non local maximal  LDIM  =      6   non local SUM 2l+1 LMDIM =     18
   total plane-waves  NPLWV = 290304
   max r-space proj   IRMAX =   3166   max aug-charges    IRDMAX=  12088
   dimension x,y,z NGX =    48 NGY =   48 NGZ =  126
   dimension x,y,z NGXF=    96 NGYF=   96 NGZF=  252
   support grid    NGXF=    96 NGYF=   96 NGZF=  252
   ions per type =              35   1   1   1
   NGX,Y,Z   is equivalent  to a cutoff of   9.05,  9.05,  9.44 a.u.
   NGXF,Y,Z  is equivalent  to a cutoff of  18.11, 18.11, 18.87 a.u.

 SYSTEM =  unknown system                          
 POSCAR =  Au-Nb-CO                                

 Startparameter for this run:
   NWRITE =      2    write-flag & timer
   PREC   = normal    normal or accurate (medium, high low for compatibility)
   ISTART =      0    job   : 0-new  1-cont  2-samecut
   ICHARG =     11    charge: 1-file 2-atom 10-const
   ISPIN  =      1    spin polarized calculation?
   LNONCOLLINEAR =      F non collinear calculations
   LSORBIT =      F    spin-orbit coupling
   INIWAV =      1    electr: 0-lowe 1-rand  2-diag
   LASPH  =      F    aspherical Exc in radial PAW
   METAGGA=      F    non-selfconsistent MetaGGA calc.

 Electronic Relaxation 1
   ENCUT  =  500.0 eV  36.75 Ry    6.06 a.u.  16.07 16.07 40.47*2*pi/ulx,y,z
   ENINI  =  500.0     initial cutoff
   ENAUG  =  644.9 eV  augmentation charge cutoff
   NELM   =    150;   NELMIN=  2; NELMDL= -5     # of ELM steps 
   EDIFF  = 0.1E-04   stopping-criterion for ELM
   LREAL  =      T    real-space projection
   NLSPLINE    = F    spline interpolate recip. space projectors
   LCOMPAT=      F    compatible to vasp.4.4
   GGA_COMPAT  = T    GGA compatible to vasp.4.4-vasp.4.6
   LMAXPAW     = -100 max onsite density
   LMAXMIX     =    2 max onsite mixed and CHGCAR
   VOSKOWN=      0    Vosko Wilk Nusair interpolation
   ROPT   =   -0.00050  -0.00050  -0.00050  -0.00050
 Ionic relaxation
   EDIFFG = -.1E-01   stopping-criterion for IOM
   NSW    =      0    number of steps for IOM
   NBLOCK =      1;   KBLOCK =      1    inner block; outer block 
   IBRION =     -1    ionic relax: 0-MD 1-quasi-New 2-CG
   NFREE  =      1    steps in history (QN), initial steepest desc. (CG)
   ISIF   =      2    stress and relaxation
   IWAVPR =     10    prediction:  0-non 1-charg 2-wave 3-comb
   ISYM   =      2    0-nonsym 1-usesym 2-fastsym
   LCORR  =      T    Harris-Foulkes like correction to forces

   POTIM  = 0.5000    time-step for ionic-motion
   TEIN   =    0.0    initial temperature
   TEBEG  =    0.0;   TEEND  =   0.0 temperature during run
   SMASS  =  -3.00    Nose mass-parameter (am)
   estimated Nose-frequenzy (Omega)   =  0.10E-29 period in steps = 0.13E+47 mass=  -0.178E-26a.u.
   SCALEE = 1.0000    scale energy and forces
   NPACO  =    256;   APACO  = 16.0  distance and # of slots for P.C.
   PSTRESS=    0.0 pullay stress

  Mass of Ions in am
   POMASS = 196.97 92.91 12.01 16.00
  Ionic Valenz
   ZVAL   =  11.00 13.00  4.00  6.00
  Atomic Wigner-Seitz radii
   RWIGS  =  -1.00 -1.00 -1.00 -1.00
  virtual crystal weights 
   VCA    =   1.00  1.00  1.00  1.00
   NELECT =     408.0000    total number of electrons
   NUPDOWN=      -1.0000    fix difference up-down

 DOS related values:
   EMIN   =  10.00;   EMAX   =-10.00  energy-range for DOS
   EFERMI =   0.00
   ISMEAR =    -5;   SIGMA  =   0.10  broadening in eV -4-tet -1-fermi 0-gaus

 Electronic relaxation 2 (details)
   IALGO  =     68    algorithm
   LDIAG  =      T    sub-space diagonalisation (order eigenvalues)
   LSUBROT=      F    optimize rotation matrix (better conditioning)
   TURBO    =      0    0=normal 1=particle mesh
   IRESTART =      0    0=no restart 2=restart with 2 vectors
   NREBOOT  =      0    no. of reboots
   NMIN     =      0    reboot dimension
   EREF     =   0.00    reference energy to select bands
   IMIX   =      4    mixing-type and parameters
     AMIX     =   0.40;   BMIX     =  1.00
     AMIX_MAG =   1.60;   BMIX_MAG =  1.00
     AMIN     =   0.10
     WC   =   100.;   INIMIX=   1;  MIXPRE=   1;  MAXMIX= -45

 Intra band minimization:
   WEIMIN = 0.0000     energy-eigenvalue tresh-hold
   EBREAK =  0.99E-08  absolut break condition
   DEPER  =   0.30     relativ break condition  

   TIME   =   0.40     timestep for ELM

  volume/ion in A,a.u.               =      39.29       265.17
  Fermi-wavevector in a.u.,A,eV,Ry     =   1.062329  2.007511 15.354762  1.128543
  Thomas-Fermi vector in A             =   2.197776
 
 Write flags
   LWAVE        =      F    write WAVECAR
   LDOWNSAMPLE  =      F    k-point downsampling of WAVECAR
   LCHARG       =      F    write CHGCAR
   LVTOT        =      F    write LOCPOT, total local potential
   LVHAR        =      F    write LOCPOT, Hartree potential only
   LELF         =      F    write electronic localiz. function (ELF)
   LORBIT       =     10    0 simple, 1 ext, 2 COOP (PROOUT), +10 PAW based schemes


 Dipole corrections
   LMONO  =      F    monopole corrections only (constant potential shift)
   LDIPOL =      F    correct potential (dipole corrections)
   IDIPOL =      0    1-x, 2-y, 3-z, 4-all directions 
   EPSILON=  1.0000000 bulk dielectric constant

 Exchange correlation treatment:
   GGA     =    --    GGA type
   LEXCH   =     8    internal setting for exchange type
   VOSKOWN=      0    Vosko Wilk Nusair interpolation
   LHFCALC =     F    Hartree Fock is set to
   LHFONE  =     F    Hartree Fock one center treatment
   AEXX    =    0.0000 exact exchange contribution

 Linear response parameters
   LEPSILON=     F    determine dielectric tensor
   LRPA    =     F    only Hartree local field effects (RPA)
   LNABLA  =     F    use nabla operator in PAW spheres
   LVEL    =     F    velocity operator in full k-point grid
   LINTERFAST=   F  fast interpolation
   KINTER  =     0    interpolate to denser k-point grid
   CSHIFT  =0.1000    complex shift for real part using Kramers Kronig
   OMEGAMAX=  -1.0    maximum frequency
   DEG_THRESHOLD= 0.2000000E-02 threshold for treating states as degnerate
   RTIME   =   -0.100 relaxation time in fs
  (WPLASMAI=    0.000 imaginary part of plasma frequency in eV, 0.658/RTIME)
   DFIELD  = 0.0000000 0.0000000 0.0000000 field for delta impulse in time
 
 Orbital magnetization related:
   ORBITALMAG=     F  switch on orbital magnetization
   LCHIMAG   =     F  perturbation theory with respect to B field
   DQ        =  0.001000  dq finite difference perturbation B field
   LLRAUG    =     F  two centre corrections for induced B field



--------------------------------------------------------------------------------------------------------


 Static calculation
 charge density and potential remain constant during run
 non-spin polarized calculation
 RMM-DIIS sequential band-by-band and
  variant of blocked Davidson during initial phase
 perform sub-space diagonalisation
    before iterative eigenvector-optimisation
 no mixing
 using additional bands           48
 real space projection scheme for non local part
 use partial core corrections
 calculate Harris-corrections to forces 
   (improved forces if not selfconsistent)
 use gradient corrections 
 WARNING: stress and forces are not correct
  (second derivative of E(xc) not defined)
 use of overlap-Matrix (Vanderbilt PP)
 Fermi weights with tetrahedron method with Bloechl corrections


--------------------------------------------------------------------------------------------------------


  energy-cutoff  :      500.00
  volume of cell :     1493.16
      direct lattice vectors                 reciprocal lattice vectors
     8.813512802  0.000000000  0.000000000     0.113462137 -0.065507406  0.000000000
     4.406756909  7.632725690  0.000000000     0.000000000  0.131014796  0.000000000
     0.000000000  0.000000000 22.196203232     0.000000000  0.000000000  0.045052750

  length of vectors
     8.813512802  8.813512802 22.196203232     0.131014796  0.131014796  0.045052750


 
 k-points in units of 2pi/SCALE and weight: Automatic mesh                          
   0.00000000  0.00000000  0.00000000       0.016
   0.01418277 -0.00818843  0.00000000       0.094
   0.02836553 -0.01637685  0.00000000       0.094
   0.04254830 -0.02456528  0.00000000       0.094
   0.05673107 -0.03275370  0.00000000       0.047
   0.02836553 -0.00000000  0.00000000       0.094
   0.04254830 -0.00818843  0.00000000       0.188
   0.05673107 -0.01637685  0.00000000       0.188
   0.05673107 -0.00000000  0.00000000       0.094
  -0.04254830  0.05731898  0.00000000       0.094
 
 k-points in reciprocal lattice and weights: Automatic mesh                          
   0.00000000  0.00000000  0.00000000       0.016
   0.12500000 -0.00000000  0.00000000       0.094
   0.25000000 -0.00000000  0.00000000       0.094
   0.37500000  0.00000000  0.00000000       0.094
   0.50000000 -0.00000000  0.00000000       0.047
   0.25000000  0.12500000  0.00000000       0.094
   0.37500000  0.12500000  0.00000000       0.188
   0.50000000  0.12500000  0.00000000       0.188
   0.50000000  0.25000000  0.00000000       0.094
  -0.37500000  0.25000000  0.00000000       0.094
 
 position of ions in fractional coordinates (direct lattice) 
   0.00000000  0.00000000  0.23789564
   0.33333334  0.00000000  0.23789564
   0.66666669  0.00000000  0.23789564
   0.00000000  0.33333334  0.23789564
   0.33333331  0.33333334  0.23789564
   0.66666669  0.33333334  0.23789564
   0.00000000  0.66666669  0.23789564
   0.33333334  0.66666669  0.23789564
   0.66666663  0.66666669  0.23789564
   0.11111112  0.11111111  0.34596521
   0.44444442  0.11111111  0.34596521
   0.77777779  0.11111111  0.34596521
   0.11111113  0.44444445  0.34596521
   0.44444448  0.44444445  0.34596521
   0.77777773  0.44444445  0.34596521
   0.11111109  0.77777779  0.34596521
   0.44444445  0.77777779  0.34596521
   0.77777785  0.77777779  0.34596521
   0.88861802  0.22276397  0.45444633
   0.22200985  0.22200984  0.45266140
   0.55598036  0.22200984  0.45266140
   0.88666992  0.55666507  0.45363122
   0.22200981  0.55598036  0.45266140
   0.55666507  0.55666507  0.45363122
   0.88861802  0.88861802  0.45444633
   0.22276400  0.88861802  0.45444633
   0.55666501  0.88666992  0.45363122
   0.00000000  0.00000000  0.56313356
   0.33374578  0.00918330  0.56570420
   0.65707094  0.00918330  0.56570420
   0.00918330  0.33374578  0.56570420
   0.65707094  0.33374578  0.56570420
   0.00918330  0.65707094  0.56570420
   0.33374578  0.65707094  0.56570420
   0.66666663  0.66666669  0.56338364
   0.33333331  0.33333334  0.55163387
   0.33333331  0.33333334  0.64632622
   0.33333331  0.33333334  0.69868382
 
 position of ions in cartesian coordinates  (Angst):
   0.00000000  0.00000000  5.28037993
   2.93783769  0.00000000  5.28037993
   5.87567538  0.00000000  5.28037993
   1.46891901  2.54424197  5.28037993
   4.40675643  2.54424197  5.28037993
   7.34459439  2.54424197  5.28037993
   2.93783803  5.08848395  5.28037993
   5.87567571  5.08848395  5.28037993
   8.81351288  5.08848395  5.28037993
   1.46891893  0.84808064  7.67911405
   4.40675623  0.84808064  7.67911405
   7.34459418  0.84808064  7.67911405
   2.93783798  3.39232256  7.67911405
   5.87567574  3.39232256  7.67911405
   8.81351263  3.39232256  7.67911405
   4.40675667  5.93656453  7.67911405
   7.34459449  5.93656453  7.67911405
  10.28243270  5.93656453  7.67911405
   8.81351299  1.70029628 10.08698316
   2.93503004  1.69454018 10.04736446
   5.87848338  1.69454018 10.04736446
  10.26776433  4.24887178 10.06889079
   4.40675655  4.24364556 10.04736446
   7.35926237  4.24887178 10.06889079
  11.74776993  6.78257761 10.08698316
   5.87925698  6.78257761 10.08698316
   8.81351299  6.76770827 10.06889079
   0.00000000  0.00000000 12.49942695
   2.98194133  0.07009364 12.55648547
   5.83157175  0.07009364 12.55648547
   1.55167371  2.54739002 12.55648547
   7.26183970  2.54739002 12.55648547
   2.97648908  5.01524226 12.55648547
   5.83702465  5.01524226 12.55648547
   8.81351288  5.08848395 12.50497782
   4.40675643  2.54424197 12.24417747
   4.40675643  2.54424197 14.34598823
   4.40675643  2.54424197 15.50812815
 


--------------------------------------------------------------------------------------------------------


 k-point   1 :   0.0000 0.0000 0.0000  plane waves:   37827
 k-point   2 :   0.1250-0.0000 0.0000  plane waves:   37876
 k-point   3 :   0.2500-0.0000 0.0000  plane waves:   37924
 k-point   4 :   0.3750 0.0000 0.0000  plane waves:   37904
 k-point   5 :   0.5000-0.0000 0.0000  plane waves:   37912
 k-point   6 :   0.2500 0.1250 0.0000  plane waves:   37858
 k-point   7 :   0.3750 0.1250 0.0000  plane waves:   37928
 k-point   8 :   0.5000 0.1250 0.0000  plane waves:   37924
 k-point   9 :   0.5000 0.2500 0.0000  plane waves:   37926
 k-point  10 :  -0.3750 0.2500 0.0000  plane waves:   37916

 maximum and minimum number of plane-waves per node :     37928    37827

 maximum number of plane-waves:     37928
 maximum index in each direction: 
   IXMAX=   16   IYMAX=   16   IZMAX=   40
   IXMIN=  -16   IYMIN=  -16   IZMIN=  -40


 serial   3D FFT for wavefunctions
 parallel 3D FFT for charge:
    minimum data exchange during FFTs selected (reduces bandwidth)


 total amount of memory used by VASP MPI-rank0   123539. kBytes
=======================================================================

   base      :      30000. kBytes
   nonlr-proj:      14359. kBytes
   fftplans  :       4330. kBytes
   grid      :      18659. kBytes
   one-center:        590. kBytes
   wavefun   :      55601. kBytes
 
     INWAV:  cpu time    0.0000: real time    0.0000
 initial charge density was supplied:
 number of electron     408.0000098 magnetization 
 keeping initial charge density in first step


--------------------------------------------------------------------------------------------------------


 Maximum index for non-local projection operator         3066
 Maximum index for augmentation-charges          863 (set IRDMAX)


--------------------------------------------------------------------------------------------------------


 First call to EWALD:  gamma=   0.155
 Maximum number of real-space cells 4x 4x 2
 Maximum number of reciprocal cells 2x 2x 5

    FEWALD:  cpu time    0.0013: real time    0.0013


--------------------------------------- Iteration      1(   1)  ---------------------------------------


    POTLOK:  cpu time    0.0421: real time    0.0425
    SETDIJ:  cpu time    0.0049: real time    0.0050
     EDDAV:  cpu time    7.2593: real time    7.2610
 BZINTS: Fermi energy:   11.938581;  408.000000 electrons
         Band energy: 0.137955E+04;  BLOECHL correction:   -0.029669
       DOS:  cpu time    0.0099: real time    0.0100
    --------------------------------------------
      LOOP:  cpu time    7.3162: real time    7.3184

 eigenvalue-minimisations  :  5152
 total energy-change (2. order) : 0.2772534E+04  (-0.1889021E+05)
 number of electron     408.0000098 magnetization 
 augmentation part      408.0000098 magnetization 

 Free energy of the ion-electron system (eV)
  ---------------------------------------------------
  alpha Z        PSCENC =      1055.96287420
  Ewald energy   TEWEN  =     95285.04277202
  -Hartree energ DENC   =   -130854.87414371
  -exchange      EXHF   =         0.00000000
  -V(xc)+E(xc)   XCENC  =       614.10895054
  PAW double counting   =     37358.71541162   -36613.55107258
  entropy T*S    EENTRO =         0.00000000
  eigenvalues    EBANDS =      1379.55403988
  atomic energy  EATOM  =     34547.57550769
  Solvation  Ediel_sol  =         0.00000000
  ---------------------------------------------------
  free energy    TOTEN  =      2772.53433965 eV

  energy without entropy =     2772.53433965  energy(sigma->0) =     2772.53433965


--------------------------------------------------------------------------------------------------------




--------------------------------------- Iteration      1(   2)  ---------------------------------------


     EDDAV:  cpu time    7.7891: real time    7.7894
 BZINTS: Fermi energy:    1.784147;  408.000000 electrons
         Band energy:-0.137137E+04;  BLOECHL correction:   -0.038899
       DOS:  cpu time    0.0095: real time    0.0095
    --------------------------------------------
      LOOP:  cpu time    7.7986: real time    7.7989

 eigenvalue-minimisations  :  5600
 total energy-change (2. order) :-0.2750920E+04  (-0.2590204E+04)
 number of electron     408.0000098 magnetization 
 augmentation part      408.0000098 magnetization 

 Free energy of the ion-electron system (eV)
  ---------------------------------------------------
  alpha Z        PSCENC =      1055.96287420
  Ewald energy   TEWEN  =     95285.04277202
  -Hartree energ DENC   =   -130854.87414371
  -exchange      EXHF   =         0.00000000
  -V(xc)+E(xc)   XCENC  =       614.10895054
  PAW double counting   =     37358.71541162   -36613.55107258
  entropy T*S    EENTRO =         0.00000000
  eigenvalues    EBANDS =     -1371.36601422
  atomic energy  EATOM  =     34547.57550769
  Solvation  Ediel_sol  =         0.00000000
  ---------------------------------------------------
  free energy    TOTEN  =        21.61428555 eV

  energy without entropy =       21.61428555  energy(sigma->0) =       21.61428555


--------------------------------------------------------------------------------------------------------




--------------------------------------- Iteration      1(   3)  ---------------------------------------


     EDDAV:  cpu time    9.0537: real time    9.0540
 BZINTS: Fermi energy:    0.845778;  408.000000 electrons
         Band energy:-0.152096E+04;  BLOECHL correction:   -0.034406
       DOS:  cpu time    0.0099: real time    0.0099
    --------------------------------------------
      LOOP:  cpu time    9.0637: real time    9.0640

 eigenvalue-minimisations  :  6720
 total energy-change (2. order) :-0.1495985E+03  (-0.1450401E+03)
 number of electron     408.0000098 magnetization 
 augmentation part      408.0000098 magnetization 

 Free energy of the ion-electron system (eV)
  ---------------------------------------------------
  alpha Z        PSCENC =      1055.96287420
  Ewald energy   TEWEN  =     95285.04277202
  -Hartree energ DENC   =   -130854.87414371
  -exchange      EXHF   =         0.00000000
  -V(xc)+E(xc)   XCENC  =       614.10895054
  PAW double counting   =     37358.71541162   -36613.55107258
  entropy T*S    EENTRO =         0.00000000
  eigenvalues    EBANDS =     -1520.96452366
  atomic energy  EATOM  =     34547.57550769
  Solvation  Ediel_sol  =         0.00000000
  ---------------------------------------------------
  free energy    TOTEN  =      -127.98422389 eV

  energy without entropy =     -127.98422389  energy(sigma->0) =     -127.98422389


--------------------------------------------------------------------------------------------------------




--------------------------------------- Iteration      1(   4)  ---------------------------------------


     EDDAV:  cpu time    9.6006: real time    9.6007
 BZINTS: Fermi energy:    0.809888;  408.000000 electrons
         Band energy:-0.152546E+04;  BLOECHL correction:   -0.036844
       DOS:  cpu time    0.0101: real time    0.0101
    --------------------------------------------
      LOOP:  cpu time    9.6107: real time    9.6108

 eigenvalue-minimisations  :  7224
 total energy-change (2. order) :-0.4492366E+01  (-0.4458093E+01)
 number of electron     408.0000098 magnetization 
 augmentation part      408.0000098 magnetization 

 Free energy of the ion-electron system (eV)
  ---------------------------------------------------
  alpha Z        PSCENC =      1055.96287420
  Ewald energy   TEWEN  =     95285.04277202
  -Hartree energ DENC   =   -130854.87414371
  -exchange      EXHF   =         0.00000000
  -V(xc)+E(xc)   XCENC  =       614.10895054
  PAW double counting   =     37358.71541162   -36613.55107258
  entropy T*S    EENTRO =         0.00000000
  eigenvalues    EBANDS =     -1525.45688944
  atomic energy  EATOM  =     34547.57550769
  Solvation  Ediel_sol  =         0.00000000
  ---------------------------------------------------
  free energy    TOTEN  =      -132.47658966 eV

  energy without entropy =     -132.47658966  energy(sigma->0) =     -132.47658966


--------------------------------------------------------------------------------------------------------




--------------------------------------- Iteration      1(   5)  ---------------------------------------


     EDDAV:  cpu time    8.8501: real time    8.8503
 BZINTS: Fermi energy:    0.809107;  408.000000 electrons
         Band energy:-0.152560E+04;  BLOECHL correction:   -0.036715
       DOS:  cpu time    0.0097: real time    0.0097
    --------------------------------------------
      LOOP:  cpu time    8.8599: real time    8.8600

 eigenvalue-minimisations  :  6580
 total energy-change (2. order) :-0.1461344E+00  (-0.1460923E+00)
 number of electron     408.0000098 magnetization 
 augmentation part      408.0000098 magnetization 

 Free energy of the ion-electron system (eV)
  ---------------------------------------------------
  alpha Z        PSCENC =      1055.96287420
  Ewald energy   TEWEN  =     95285.04277202
  -Hartree energ DENC   =   -130854.87414371
  -exchange      EXHF   =         0.00000000
  -V(xc)+E(xc)   XCENC  =       614.10895054
  PAW double counting   =     37358.71541162   -36613.55107258
  entropy T*S    EENTRO =         0.00000000
  eigenvalues    EBANDS =     -1525.60302387
  atomic energy  EATOM  =     34547.57550769
  Solvation  Ediel_sol  =         0.00000000
  ---------------------------------------------------
  free energy    TOTEN  =      -132.62272410 eV

  energy without entropy =     -132.62272410  energy(sigma->0) =     -132.62272410


--------------------------------------------------------------------------------------------------------




--------------------------------------- Iteration      1(   6)  ---------------------------------------


    EDDIAG:  cpu time    1.4241: real time    1.4244
  RMM-DIIS:  cpu time    5.7202: real time    5.7204
    ORTHCH:  cpu time    0.2605: real time    0.2605
 BZINTS: Fermi energy:    0.809092;  408.000000 electrons
         Band energy:-0.152561E+04;  BLOECHL correction:   -0.036713
       DOS:  cpu time    0.0095: real time    0.0094
    --------------------------------------------
      LOOP:  cpu time    7.4143: real time    7.4147

 eigenvalue-minimisations  :  7210
 total energy-change (2. order) :-0.2430965E-02  (-0.2430710E-02)
 number of electron     408.0000098 magnetization 
 augmentation part      408.0000098 magnetization 

 Free energy of the ion-electron system (eV)
  ---------------------------------------------------
  alpha Z        PSCENC =      1055.96287420
  Ewald energy   TEWEN  =     95285.04277202
  -Hartree energ DENC   =   -130854.87414371
  -exchange      EXHF   =         0.00000000
  -V(xc)+E(xc)   XCENC  =       614.10895054
  PAW double counting   =     37358.71541162   -36613.55107258
  entropy T*S    EENTRO =         0.00000000
  eigenvalues    EBANDS =     -1525.60545484
  atomic energy  EATOM  =     34547.57550769
  Solvation  Ediel_sol  =         0.00000000
  ---------------------------------------------------
  free energy    TOTEN  =      -132.62515506 eV

  energy without entropy =     -132.62515506  energy(sigma->0) =     -132.62515506


--------------------------------------------------------------------------------------------------------




--------------------------------------- Iteration      1(   7)  ---------------------------------------


    EDDIAG:  cpu time    1.4276: real time    1.4278
  RMM-DIIS:  cpu time    7.6340: real time    7.6341
    ORTHCH:  cpu time    0.2601: real time    0.2601
 BZINTS: Fermi energy:    0.809086;  408.000000 electrons
         Band energy:-0.152561E+04;  BLOECHL correction:   -0.036712
       DOS:  cpu time    0.0101: real time    0.0101
    --------------------------------------------
      LOOP:  cpu time    9.3318: real time    9.3321

 eigenvalue-minimisations  :  9645
 total energy-change (2. order) :-0.1195848E-02  (-0.1180048E-02)
 number of electron     408.0000098 magnetization 
 augmentation part      408.0000098 magnetization 

 Free energy of the ion-electron system (eV)
  ---------------------------------------------------
  alpha Z        PSCENC =      1055.96287420
  Ewald energy   TEWEN  =     95285.04277202
  -Hartree energ DENC   =   -130854.87414371
  -exchange      EXHF   =         0.00000000
  -V(xc)+E(xc)   XCENC  =       614.10895054
  PAW double counting   =     37358.71541162   -36613.55107258
  entropy T*S    EENTRO =         0.00000000
  eigenvalues    EBANDS =     -1525.60665068
  atomic energy  EATOM  =     34547.57550769
  Solvation  Ediel_sol  =         0.00000000
  ---------------------------------------------------
  free energy    TOTEN  =      -132.62635091 eV

  energy without entropy =     -132.62635091  energy(sigma->0) =     -132.62635091


--------------------------------------------------------------------------------------------------------




--------------------------------------- Iteration      1(   8)  ---------------------------------------


    EDDIAG:  cpu time    1.4275: real time    1.4276
  RMM-DIIS:  cpu time    7.2268: real time    7.2268
    ORTHCH:  cpu time    0.2601: real time    0.2601
 BZINTS: Fermi energy:    0.809083;  408.000000 electrons
         Band energy:-0.152561E+04;  BLOECHL correction:   -0.036712
       DOS:  cpu time    0.0097: real time    0.0097
    --------------------------------------------
      LOOP:  cpu time    8.9241: real time    8.9265

 eigenvalue-minimisations  :  9026
 total energy-change (2. order) :-0.2800736E-03  (-0.2611315E-03)
 number of electron     408.0000098 magnetization 
 augmentation part      408.0000098 magnetization 

 Free energy of the ion-electron system (eV)
  ---------------------------------------------------
  alpha Z        PSCENC =      1055.96287420
  Ewald energy   TEWEN  =     95285.04277202
  -Hartree energ DENC   =   -130854.87414371
  -exchange      EXHF   =         0.00000000
  -V(xc)+E(xc)   XCENC  =       614.10895054
  PAW double counting   =     37358.71541162   -36613.55107258
  entropy T*S    EENTRO =         0.00000000
  eigenvalues    EBANDS =     -1525.60693076
  atomic energy  EATOM  =     34547.57550769
  Solvation  Ediel_sol  =         0.00000000
  ---------------------------------------------------
  free energy    TOTEN  =      -132.62663099 eV

  energy without entropy =     -132.62663099  energy(sigma->0) =     -132.62663099


--------------------------------------------------------------------------------------------------------




--------------------------------------- Iteration      1(   9)  ---------------------------------------


    EDDIAG:  cpu time    1.4253: real time    1.4277
  RMM-DIIS:  cpu time    6.4459: real time    6.4460
    ORTHCH:  cpu time    0.2602: real time    0.2602
 BZINTS: Fermi energy:    0.809082;  408.000000 electrons
         Band energy:-0.152561E+04;  BLOECHL correction:   -0.036711
       DOS:  cpu time    0.0100: real time    0.0100
    --------------------------------------------
      LOOP:  cpu time    8.1414: real time    8.1417

 eigenvalue-minimisations  :  7887
 total energy-change (2. order) :-0.1172579E-03  (-0.1125425E-03)
 number of electron     408.0000098 magnetization 
 augmentation part      408.0000098 magnetization 

 Free energy of the ion-electron system (eV)
  ---------------------------------------------------
  alpha Z        PSCENC =      1055.96287420
  Ewald energy   TEWEN  =     95285.04277202
  -Hartree energ DENC   =   -130854.87414371
  -exchange      EXHF   =         0.00000000
  -V(xc)+E(xc)   XCENC  =       614.10895054
  PAW double counting   =     37358.71541162   -36613.55107258
  entropy T*S    EENTRO =         0.00000000
  eigenvalues    EBANDS =     -1525.60704802
  atomic energy  EATOM  =     34547.57550769
  Solvation  Ediel_sol  =         0.00000000
  ---------------------------------------------------
  free energy    TOTEN  =      -132.62674824 eV

  energy without entropy =     -132.62674824  energy(sigma->0) =     -132.62674824


--------------------------------------------------------------------------------------------------------




--------------------------------------- Iteration      1(  10)  ---------------------------------------


    EDDIAG:  cpu time    1.4286: real time    1.4288
  RMM-DIIS:  cpu time    5.7101: real time    5.7102
    ORTHCH:  cpu time    0.2604: real time    0.2604
 BZINTS: Fermi energy:    0.809081;  408.000000 electrons
         Band energy:-0.152561E+04;  BLOECHL correction:   -0.036711
       DOS:  cpu time    0.0101: real time    0.0101
    --------------------------------------------
      LOOP:  cpu time    7.4091: real time    7.4094

 eigenvalue-minimisations  :  7013
 total energy-change (2. order) :-0.5452553E-04  (-0.5230810E-04)
 number of electron     408.0000098 magnetization 
 augmentation part      408.0000098 magnetization 

 Free energy of the ion-electron system (eV)
  ---------------------------------------------------
  alpha Z        PSCENC =      1055.96287420
  Ewald energy   TEWEN  =     95285.04277202
  -Hartree energ DENC   =   -130854.87414371
  -exchange      EXHF   =         0.00000000
  -V(xc)+E(xc)   XCENC  =       614.10895054
  PAW double counting   =     37358.71541162   -36613.55107258
  entropy T*S    EENTRO =         0.00000000
  eigenvalues    EBANDS =     -1525.60710254
  atomic energy  EATOM  =     34547.57550769
  Solvation  Ediel_sol  =         0.00000000
  ---------------------------------------------------
  free energy    TOTEN  =      -132.62680277 eV

  energy without entropy =     -132.62680277  energy(sigma->0) =     -132.62680277


--------------------------------------------------------------------------------------------------------




--------------------------------------- Iteration      1(  11)  ---------------------------------------


    EDDIAG:  cpu time    1.4241: real time    1.4243
  RMM-DIIS:  cpu time    5.2625: real time    5.2625
    ORTHCH:  cpu time    0.2602: real time    0.2602
 BZINTS: Fermi energy:    0.809081;  408.000000 electrons
         Band energy:-0.152561E+04;  BLOECHL correction:   -0.036711
       DOS:  cpu time    0.0101: real time    0.0101
    --------------------------------------------
      LOOP:  cpu time    6.9568: real time    6.9571

 eigenvalue-minimisations  :  6236
 total energy-change (2. order) :-0.2418971E-04  (-0.2365674E-04)
 number of electron     408.0000098 magnetization 
 augmentation part      408.0000098 magnetization 

 Free energy of the ion-electron system (eV)
  ---------------------------------------------------
  alpha Z        PSCENC =      1055.96287420
  Ewald energy   TEWEN  =     95285.04277202
  -Hartree energ DENC   =   -130854.87414371
  -exchange      EXHF   =         0.00000000
  -V(xc)+E(xc)   XCENC  =       614.10895054
  PAW double counting   =     37358.71541162   -36613.55107258
  entropy T*S    EENTRO =         0.00000000
  eigenvalues    EBANDS =     -1525.60712673
  atomic energy  EATOM  =     34547.57550769
  Solvation  Ediel_sol  =         0.00000000
  ---------------------------------------------------
  free energy    TOTEN  =      -132.62682696 eV

  energy without entropy =     -132.62682696  energy(sigma->0) =     -132.62682696


--------------------------------------------------------------------------------------------------------




--------------------------------------- Iteration      1(  12)  ---------------------------------------


    EDDIAG:  cpu time    1.4251: real time    1.4253
WARNING in EDDRMM: call to ZHEGV failed, returncode =   6  3      5
  RMM-DIIS:  cpu time    4.6946: real time    4.6947
    ORTHCH:  cpu time    0.2602: real time    0.2602
 BZINTS: Fermi energy:    0.809081;  408.000000 electrons
         Band energy:-0.152561E+04;  BLOECHL correction:   -0.036711
       DOS:  cpu time    0.0101: real time    0.0101
    --------------------------------------------
      LOOP:  cpu time    6.3900: real time    6.3903

 eigenvalue-minimisations  :  5571
 total energy-change (2. order) :-0.1159165E-04  (-0.1148111E-04)
 number of electron     408.0000098 magnetization 
 augmentation part      408.0000098 magnetization 

 Free energy of the ion-electron system (eV)
  ---------------------------------------------------
  alpha Z        PSCENC =      1055.96287420
  Ewald energy   TEWEN  =     95285.04277202
  -Hartree energ DENC   =   -130854.87414371
  -exchange      EXHF   =         0.00000000
  -V(xc)+E(xc)   XCENC  =       614.10895054
  PAW double counting   =     37358.71541162   -36613.55107258
  entropy T*S    EENTRO =         0.00000000
  eigenvalues    EBANDS =     -1525.60713832
  atomic energy  EATOM  =     34547.57550769
  Solvation  Ediel_sol  =         0.00000000
  ---------------------------------------------------
  free energy    TOTEN  =      -132.62683855 eV

  energy without entropy =     -132.62683855  energy(sigma->0) =     -132.62683855


--------------------------------------------------------------------------------------------------------




--------------------------------------- Iteration      1(  13)  ---------------------------------------


    EDDIAG:  cpu time    1.4284: real time    1.4287
  RMM-DIIS:  cpu time    4.4923: real time    4.4924
    ORTHCH:  cpu time    0.2608: real time    0.2608
 BZINTS: Fermi energy:    0.809081;  408.000000 electrons
         Band energy:-0.152561E+04;  BLOECHL correction:   -0.036711
       DOS:  cpu time    0.0101: real time    0.0101
    --------------------------------------------
      LOOP:  cpu time    6.1916: real time    6.1919

 eigenvalue-minimisations  :  5211
 total energy-change (2. order) :-0.5730457E-05  (-0.6060363E-05)
 number of electron     408.0000098 magnetization 
 augmentation part      408.0000098 magnetization 

 Free energy of the ion-electron system (eV)
  ---------------------------------------------------
  alpha Z        PSCENC =      1055.96287420
  Ewald energy   TEWEN  =     95285.04277202
  -Hartree energ DENC   =   -130854.87414371
  -exchange      EXHF   =         0.00000000
  -V(xc)+E(xc)   XCENC  =       614.10895054
  PAW double counting   =     37358.71541162   -36613.55107258
  entropy T*S    EENTRO =         0.00000000
  eigenvalues    EBANDS =     -1525.60714405
  atomic energy  EATOM  =     34547.57550769
  Solvation  Ediel_sol  =         0.00000000
  ---------------------------------------------------
  free energy    TOTEN  =      -132.62684428 eV

  energy without entropy =     -132.62684428  energy(sigma->0) =     -132.62684428


--------------------------------------------------------------------------------------------------------




 average (electrostatic) potential at core
  the test charge radii are     1.2098  1.0703  0.6991  0.7215
  (the norm of the test charge is              1.0000)
       1 -72.2172       2 -72.2085       3 -72.2084       4 -72.2085       5 -72.1978
       6 -72.2082       7 -72.2084       8 -72.2082       9 -72.2058      10 -72.5682
      11 -72.5180      12 -72.5680      13 -72.5180      14 -72.5177      15 -72.5362
      16 -72.5680      17 -72.5362      18 -72.5363      19 -72.5097      20 -72.8125
      21 -72.8123      22 -72.4973      23 -72.8123      24 -72.4971      25 -72.5097
      26 -72.5097      27 -72.4973      28 -72.2197      29 -72.3518      30 -72.3518
      31 -72.3518      32 -72.3516      33 -72.3518      34 -72.3516      35 -72.2103
      36 -88.6006      37 -55.7952      38 -76.7493
 
 
 
 E-fermi :   0.8091     XC(G=0):  -6.2416     alpha+bet : -5.9155

 Fermi energy:         0.8090808145

 k-point     1 :       0.0000    0.0000    0.0000
  band No.  band energies     occupation 
      1     -54.7133      2.00000
      2     -30.8385      2.00000
      3     -30.8385      2.00000
      4     -30.6369      2.00000
      5     -22.4932      2.00000
      6      -8.0855      2.00000
      7      -7.8835      2.00000
      8      -6.8185      2.00000
      9      -5.8976      2.00000
     10      -5.8770      2.00000
     11      -5.8741      2.00000
     12      -5.8741      2.00000
     13      -5.8316      2.00000
     14      -5.8166      2.00000
     15      -5.8000      2.00000
     16      -5.8000      2.00000
     17      -5.4135      2.00000
     18      -5.3862      2.00000
     19      -5.3861      2.00000
     20      -5.3758      2.00000
     21      -5.3269      2.00000
     22      -5.3268      2.00000
     23      -5.3181      2.00000
     24      -5.3181      2.00000
     25      -5.1474      2.00000
     26      -5.0078      2.00000
     27      -5.0078      2.00000
     28      -4.9935      2.00000
     29      -4.9702      2.00000
     30      -4.9563      2.00000
     31      -4.9563      2.00000
     32      -4.8109      2.00000
     33      -4.8108      2.00000
     34      -4.8055      2.00000
     35      -4.7994      2.00000
     36      -4.7994      2.00000
     37      -4.6884      2.00000
     38      -4.6657      2.00000
     39      -4.6570      2.00000
     40      -4.6570      2.00000
     41      -4.6364      2.00000
     42      -4.6364      2.00000
     43      -4.6238      2.00000
     44      -4.6238      2.00000
     45      -4.5964      2.00000
     46      -4.5891      2.00000
     47      -4.5891      2.00000
     48      -4.5887      2.00000
     49      -4.5051      2.00000
     50      -4.1335      2.00000
     51      -4.1335      2.00000
     52      -4.1135      2.00000
     53      -4.1134      2.00000
     54      -4.0928      2.00000
     55      -4.0722      2.00000
     56      -4.0722      2.00000
     57      -4.0603      2.00000
     58      -4.0375      2.00000
     59      -4.0375      2.00000
     60      -3.9615      2.00000
     61      -3.9602      2.00000
     62      -3.8840      2.00000
     63      -3.8606      2.00000
     64      -3.6212      2.00000
     65      -3.5916      2.00000
     66      -3.5916      2.00000
     67      -3.5691      2.00000
     68      -3.5622      2.00000
     69      -3.5622      2.00000
     70      -3.5531      2.00000
     71      -3.4866      2.00000
     72      -3.4866      2.00000
[...]
  0.000   0.000   0.000   0.000   0.000   0.000   0.000   0.000   0.000   0.000   0.000   0.000   0.000   0.000   0.000   0.000
  0.000   0.000   0.000   0.000   0.000   0.000   0.000   0.000   0.000   0.000   0.000   0.000   0.000   0.000   0.000   0.000
  0.000   0.000   0.000   0.000   0.000   0.000   0.000   0.000   0.000   0.000   1.000   0.000   0.000   0.000   0.000   0.000
  0.000   0.000   0.000   0.000   0.000   0.000   0.000   0.000   0.000   0.000   0.000   0.000   0.000   0.000   0.000   0.000
  0.000   0.000   0.000   0.000   0.000   0.000   0.000   0.000   0.000   0.000   0.000   0.000   0.000   0.000   0.000   0.000
  0.000   0.000   0.000   0.000   0.000   0.000   0.000   0.000   0.000   0.000   0.000   0.000   0.000   0.000   0.000   0.000
  0.000   0.000   0.000   0.000   0.000   0.000   0.000   0.000   0.000   0.000   0.000   0.000   0.000   0.000   0.000   0.000
  0.000   0.000   0.000   0.000   0.000   0.000   0.000   0.000   0.000   0.000   0.000   0.000   0.000   0.000   0.000   0.000
  0.000   0.000   0.000   0.000   0.000   0.000   0.000   0.000   0.000   0.000   0.000   0.000   0.000   0.000   0.000   0.000
  0.000   0.000   0.000   0.000   0.000   0.000   0.000   0.000   0.000   0.000   0.000   0.000   0.000   0.000   0.000   0.000


------------------------ aborting loop because EDIFF is reached ----------------------------------------





 total charge

# of ion       s       p       d       tot
------------------------------------------
    1        0.547   0.236   8.770   9.552
    2        0.541   0.241   8.766   9.548
    3        0.541   0.241   8.766   9.548
    4        0.541   0.241   8.766   9.548
    5        0.549   0.240   8.759   9.549
    6        0.541   0.241   8.766   9.548
    7        0.541   0.241   8.766   9.548
    8        0.541   0.241   8.766   9.548
    9        0.542   0.239   8.769   9.550
   10        0.527   0.307   8.767   9.600
   11        0.524   0.306   8.780   9.609
   12        0.527   0.307   8.767   9.600
   13        0.524   0.306   8.780   9.609
   14        0.524   0.306   8.780   9.609
   15        0.516   0.308   8.775   9.598
   16        0.527   0.307   8.767   9.600
   17        0.516   0.308   8.775   9.598
   18        0.516   0.308   8.775   9.598
   19        0.518   0.296   8.770   9.584
   20        0.576   0.335   8.732   9.643
   21        0.576   0.335   8.732   9.643
   22        0.506   0.305   8.778   9.590
   23        0.576   0.335   8.732   9.643
   24        0.506   0.305   8.778   9.590
   25        0.518   0.296   8.770   9.584
   26        0.518   0.296   8.770   9.584
   27        0.506   0.305   8.778   9.590
   28        0.538   0.228   8.757   9.523
   29        0.585   0.246   8.735   9.565
   30        0.585   0.246   8.735   9.565
   31        0.585   0.246   8.735   9.565
   32        0.585   0.246   8.735   9.565
   33        0.585   0.246   8.735   9.565
   34        0.585   0.246   8.735   9.565
   35        0.539   0.228   8.759   9.526
   36        2.173   6.015   2.311  10.499
   37        0.975   1.534   0.000   2.509
   38        1.617   3.525   0.000   5.142
--------------------------------------------------
tot         23.735  20.732 308.934 353.402
 
    CHARGE:  cpu time    0.3400: real time    0.3402
    FORLOC:  cpu time    0.0110: real time    0.0110
    FORNL :  cpu time    1.4513: real time    1.4516
    STRESS:  cpu time    4.3457: real time    4.3459
    FORCOR:  cpu time    0.0463: real time    0.0463
    FORHAR:  cpu time    0.0178: real time    0.0178
    OFIELD:  cpu time    0.0002: real time    0.0002

  FORCE on cell =-STRESS in cart. coord.  units (eV):
  Direction    XX          YY          ZZ          XY          YZ          ZX
  --------------------------------------------------------------------------------------
  Alpha Z  1055.96287  1055.96287  1055.96287
  Ewald  118228.46869118228.46918************    -0.00031    -0.00008    -0.00012
  Hartree127373.82600127373.82602************     0.00002    -0.00002    -0.00003
  E(xc)   -1831.13464 -1831.13469 -1837.09360     0.00005    -0.00000    -0.00000
  Local  ************************257656.79064     0.00200     0.00000    -0.00002
  n-local   -95.36724   -50.32546   -49.91548    22.18052    -1.44293     1.39178
  augment  2387.64201  2387.64354  2409.37524    -0.00132     0.00000     0.00002
  Kinetic  5774.04802  5782.51346  5824.89964     4.87392     0.03777     0.44057
  Fock        0.00000     0.00000     0.00000     0.00000     0.00000     0.00000
  -------------------------------------------------------------------------------------
  Total     -21.34207   -21.34207     3.77267    -0.00000     0.00000    -0.00000
  in kB     -22.90023   -22.90022     4.04811    -0.00000     0.00000    -0.00000
  external pressure =      -13.92 kB  Pullay stress =        0.00 kB


 VOLUME and BASIS-vectors are now :
 -----------------------------------------------------------------------------
  energy-cutoff  :      500.00
  volume of cell :     1493.16
      direct lattice vectors                 reciprocal lattice vectors
     8.813512802  0.000000000  0.000000000     0.113462137 -0.065507406  0.000000000
     4.406756909  7.632725690  0.000000000     0.000000000  0.131014796  0.000000000
     0.000000000  0.000000000 22.196203232     0.000000000  0.000000000  0.045052750

  length of vectors
     8.813512802  8.813512802 22.196203232     0.131014796  0.131014796  0.045052750


 FORCES acting on ions
    electron-ion (+dipol)            ewald-force                    non-local-force                 convergence-correction
 -----------------------------------------------------------------------------------------------
   -.196E-04 -.162E-04 0.251E+04   0.520E-04 0.435E-04 -.251E+04   0.617E-18 0.183E-17 -.829E+00   -.240E-03 -.152E-03 -.200E+00
   0.872E+00 0.763E+00 0.251E+04   -.897E+00 -.949E+00 -.251E+04   0.639E-01 0.174E+00 -.306E+00   -.372E-01 -.912E-03 -.219E+00
   -.872E+00 0.763E+00 0.251E+04   0.897E+00 -.949E+00 -.251E+04   -.639E-01 0.174E+00 -.306E+00   0.375E-01 0.102E-02 -.219E+00
   0.110E+01 0.374E+00 0.251E+04   -.127E+01 -.303E+00 -.251E+04   0.183E+00 -.319E-01 -.306E+00   -.193E-01 -.318E-01 -.219E+00
   0.903E-05 -.234E-04 0.251E+04   0.951E-04 0.173E-05 -.251E+04   -.106E-17 -.208E-18 0.221E+00   0.428E-02 0.261E-02 -.148E+00
   -.110E+01 0.374E+00 0.251E+04   0.127E+01 -.303E+00 -.251E+04   -.183E+00 -.319E-01 -.306E+00   0.178E-01 -.309E-01 -.218E+00
   0.225E+00 -.114E+01 0.251E+04   -.373E+00 0.125E+01 -.251E+04   0.119E+00 -.143E+00 -.306E+00   0.197E-01 0.319E-01 -.219E+00
   -.225E+00 -.114E+01 0.251E+04   0.373E+00 0.125E+01 -.251E+04   -.119E+00 -.143E+00 -.306E+00   -.178E-01 0.308E-01 -.218E+00
   0.196E-04 -.415E-04 0.251E+04   0.166E-03 -.202E-04 -.251E+04   -.286E-17 -.908E-18 -.521E+00   -.459E-02 -.237E-02 -.196E+00
   0.921E+01 0.532E+01 0.891E+03   -.881E+01 -.509E+01 -.890E+03   -.388E+00 -.224E+00 -.641E+00   -.512E-01 -.297E-01 0.373E-01
   0.161E-04 0.102E+02 0.904E+03   0.147E-03 -.102E+02 -.904E+03   0.138E-08 0.207E-01 -.542E-01   0.402E-02 -.862E-01 0.444E-01
   -.921E+01 0.532E+01 0.891E+03   0.881E+01 -.509E+01 -.890E+03   0.388E+00 -.224E+00 -.641E+00   0.497E-01 -.285E-01 0.372E-01
   0.886E+01 -.512E+01 0.904E+03   -.884E+01 0.510E+01 -.904E+03   0.180E-01 -.104E-01 -.542E-01   -.723E-01 0.468E-01 0.444E-01
   -.886E+01 -.512E+01 0.904E+03   0.884E+01 0.510E+01 -.904E+03   -.180E-01 -.104E-01 -.542E-01   0.799E-01 0.460E-01 0.437E-01
   0.299E-04 0.243E+01 0.892E+03   0.236E-03 -.249E+01 -.891E+03   0.115E-08 0.173E-01 -.551E+00   -.230E-02 -.257E-01 0.781E-02
   -.219E-04 -.106E+02 0.891E+03   0.163E-03 0.102E+02 -.890E+03   0.298E-07 0.448E+00 -.641E+00   -.664E-04 0.572E-01 0.371E-01
   0.211E+01 -.122E+01 0.892E+03   -.216E+01 0.125E+01 -.891E+03   0.150E-01 -.867E-02 -.551E+00   -.232E-01 0.113E-01 0.784E-02
   -.211E+01 -.122E+01 0.892E+03   0.216E+01 0.125E+01 -.891E+03   -.150E-01 -.867E-02 -.551E+00   0.235E-01 0.133E-01 0.844E-02
   -.425E-04 0.352E+01 -.775E+03   0.513E-04 -.340E+01 0.774E+03   0.514E-10 0.772E-03 0.637E+00   -.676E-03 -.110E+00 0.344E+00
   0.604E+02 0.349E+02 -.675E+03   -.593E+02 -.342E+02 0.676E+03   -.125E+01 -.723E+00 -.151E+01   -.241E-01 -.140E-01 0.457E+00
   -.604E+02 0.349E+02 -.675E+03   0.593E+02 -.342E+02 0.676E+03   0.125E+01 -.723E+00 -.151E+01   0.249E-01 -.135E-01 0.457E+00
   0.164E+02 -.947E+01 -.754E+03   -.168E+02 0.972E+01 0.753E+03   0.428E+00 -.247E+00 0.585E+00   0.450E-01 -.257E-01 0.293E+00
   -.995E-05 -.698E+02 -.675E+03   0.145E-03 0.684E+02 0.676E+03   0.963E-07 0.145E+01 -.151E+01   0.476E-03 0.283E-01 0.457E+00
   -.164E+02 -.947E+01 -.754E+03   0.168E+02 0.972E+01 0.753E+03   -.428E+00 -.247E+00 0.585E+00   -.453E-01 -.261E-01 0.293E+00
   -.305E+01 -.176E+01 -.775E+03   0.294E+01 0.170E+01 0.774E+03   -.669E-03 -.386E-03 0.637E+00   0.954E-01 0.550E-01 0.344E+00
   0.305E+01 -.176E+01 -.775E+03   -.294E+01 0.170E+01 0.774E+03   0.669E-03 -.386E-03 0.637E+00   -.950E-01 0.543E-01 0.344E+00
   0.158E-04 0.189E+02 -.754E+03   0.193E-03 -.194E+02 0.753E+03   0.329E-07 0.494E+00 0.585E+00   -.325E-03 0.518E-01 0.293E+00
   -.185E-04 -.158E-04 -.239E+04   0.321E-04 0.379E-04 0.239E+04   -.190E-17 0.169E-18 0.605E+00   -.134E-03 -.978E-04 0.163E+00
   0.719E+02 0.119E+03 -.239E+04   -.709E+02 -.118E+03 0.239E+04   -.115E+01 -.185E+01 -.203E+00   0.241E-01 0.138E+00 0.171E+00
   -.719E+02 0.119E+03 -.239E+04   0.709E+02 -.118E+03 0.239E+04   0.115E+01 -.185E+01 -.203E+00   -.238E-01 0.140E+00 0.171E+00
   0.139E+03 0.256E+01 -.239E+04   -.138E+03 -.243E+01 0.239E+04   -.218E+01 -.714E-01 -.203E+00   0.132E+00 -.482E-01 0.171E+00
   -.139E+03 0.256E+01 -.239E+04   0.138E+03 -.243E+01 0.239E+04   0.218E+01 -.714E-01 -.203E+00   -.133E+00 -.474E-01 0.171E+00
   0.675E+02 -.122E+03 -.239E+04   -.667E+02 0.120E+03 0.239E+04   -.103E+01 0.192E+01 -.203E+00   0.109E+00 -.907E-01 0.171E+00
   -.675E+02 -.122E+03 -.239E+04   0.667E+02 0.120E+03 0.239E+04   0.103E+01 0.192E+01 -.203E+00   -.108E+00 -.918E-01 0.171E+00
   0.336E-04 -.235E-04 -.239E+04   0.139E-03 -.535E-04 0.239E+04   0.570E-17 -.283E-17 0.651E+00   -.451E-02 -.231E-02 0.231E+00
   0.259E-03 -.147E-03 -.248E+04   0.135E-03 0.122E-04 0.249E+04   0.349E-17 -.153E-17 -.163E+01   0.733E-02 0.448E-02 0.360E+00
   0.417E-05 -.855E-04 -.869E+03   0.116E-04 0.790E-06 0.850E+03   -.650E-18 -.109E-18 0.185E+02   0.126E-02 0.766E-03 -.963E-01
   0.245E-03 -.923E-04 -.150E+04   0.407E-05 0.449E-06 0.156E+04   -.849E-18 -.201E-18 -.597E+02   0.375E-02 0.230E-02 -.889E-01
 -----------------------------------------------------------------------------------------------
   -.233E-03 -.107E-02 0.473E+02   0.939E-13 0.951E-13 -.136E-11   -.658E-15 0.439E-15 -.504E+02   0.165E-01 0.104E-01 0.329E+01
 
 
 POSITION                                       TOTAL-FORCE (eV/Angst)
 -----------------------------------------------------------------------------------
      0.00000      0.00000      5.28038         0.000000     -0.000000     -0.169839
      2.93784      0.00000      5.28038         0.001998     -0.011027     -0.057696
      5.87568      0.00000      5.28038        -0.001998     -0.011027     -0.057696
      1.46892      2.54424      5.28038        -0.008551      0.007244     -0.057696
      4.40676      2.54424      5.28038         0.000000     -0.000000     -0.094773
      7.34459      2.54424      5.28038         0.008551      0.007244     -0.057696
      2.93784      5.08848      5.28038        -0.010549      0.003783     -0.057696
      5.87568      5.08848      5.28038         0.010549      0.003783     -0.057696
      8.81351      5.08848      5.28038         0.000000     -0.000000     -0.079614
      1.46892      0.84808      7.67911        -0.039469     -0.022788      0.087411
      4.40676      0.84808      7.67911        -0.000000     -0.039872      0.005719
      7.34459      0.84808      7.67911         0.039469     -0.022788      0.087411
      2.93784      3.39232      7.67911        -0.034530      0.019936      0.005719
      5.87568      3.39232      7.67911         0.034530      0.019936      0.005719
      8.81351      3.39232      7.67911        -0.000000     -0.066217      0.103699
      4.40676      5.93656      7.67911         0.000000      0.045575      0.087411
      7.34459      5.93656      7.67911        -0.057346      0.033109      0.103699
     10.28243      5.93656      7.67911         0.057346      0.033109      0.103699
      8.81351      1.70030     10.08698         0.000000      0.015682      0.044417
      2.93503      1.69454     10.04736        -0.113455     -0.065503     -0.185668
      5.87848      1.69454     10.04736         0.113455     -0.065503     -0.185668
     10.26776      4.24887     10.06889         0.031400     -0.018129      0.040941
      4.40676      4.24365     10.04736         0.000000      0.131006     -0.185668
      7.35926      4.24887     10.06889        -0.031400     -0.018129      0.040941
     11.74777      6.78258     10.08698        -0.013581     -0.007841      0.044417
      5.87926      6.78258     10.08698         0.013581     -0.007841      0.044417
      8.81351      6.76771     10.06889         0.000000      0.036258      0.040941
      0.00000      0.00000     12.49943         0.000000     -0.000000     -0.018574
      2.98194      0.07009     12.55649        -0.047504     -0.101143     -0.038814
      5.83157      0.07009     12.55649         0.047504     -0.101143     -0.038814
      1.55167      2.54739     12.55649        -0.111344      0.009432     -0.038814
      7.26184      2.54739     12.55649         0.111344      0.009432     -0.038814
      2.97649      5.01524     12.55649        -0.063841      0.091711     -0.038814
      5.83702      5.01524     12.55649         0.063841      0.091711     -0.038814
      8.81351      5.08848     12.50498         0.000000     -0.000000     -0.001054
      4.40676      2.54424     12.24418         0.000000     -0.000000      0.658714
      4.40676      2.54424     14.34599         0.000000     -0.000000     -0.005260
      4.40676      2.54424     15.50813         0.000000     -0.000000     -0.000098
 -----------------------------------------------------------------------------------
    total drift:                                0.016241      0.009367      0.245152


--------------------------------------------------------------------------------------------------------



  FREE ENERGIE OF THE ION-ELECTRON SYSTEM (eV)
  ---------------------------------------------------
  free  energy   TOTEN  =      -132.62684428 eV

  energy  without entropy=     -132.62684428  energy(sigma->0) =     -132.62684428
 


--------------------------------------------------------------------------------------------------------


    POTLOK:  cpu time    0.0424: real time    0.0424


--------------------------------------------------------------------------------------------------------


 stress matrix after NEB project (eV)
    -21.34207     -0.00000     -0.00000
     -0.00000    -21.34207      0.00000
      0.00000      0.00000      3.77267
  FORCES: max atom, RMS     0.005260    0.000853
  FORCE total and by dimension    0.005261    0.005260
  Stress total and by dimension   30.417116   21.342071
     LOOP+:  cpu time  109.7106: real time  109.7232
 -----------------------------------------------------------------------------
|                                                                             |
|           W    W    AA    RRRRR   N    N  II  N    N   GGGG   !!!           |
|           W    W   A  A   R    R  NN   N  II  NN   N  G    G  !!!           |
|           W    W  A    A  R    R  N N  N  II  N N  N  G       !!!           |
|           W WW W  AAAAAA  RRRRR   N  N N  II  N  N N  G  GGG   !            |
|           WW  WW  A    A  R   R   N   NN  II  N   NN  G    G                |
|           W    W  A    A  R    R  N    N  II  N    N   GGGG   !!!           |
|                                                                             |
|     Tetrahedron method does not include variations of the Fermi             |
|     occupations, so forces and stress will be inaccurate. We suggest        |
|     using a different smearing scheme ISMEAR = 1 or 2 for metals in         |
|     relaxations.                                                            |
|                                                                             |
 -----------------------------------------------------------------------------

    4ORBIT:  cpu time    0.0000: real time    0.0000



 total charge

# of ion       s       p       d       tot
------------------------------------------
    1        0.547   0.236   8.770   9.552
    2        0.541   0.241   8.766   9.548
    3        0.541   0.241   8.766   9.548
    4        0.541   0.241   8.766   9.548
    5        0.549   0.240   8.759   9.549
    6        0.541   0.241   8.766   9.548
    7        0.541   0.241   8.766   9.548
    8        0.541   0.241   8.766   9.548
    9        0.542   0.239   8.769   9.550
   10        0.527   0.307   8.767   9.600
   11        0.524   0.306   8.780   9.609
   12        0.527   0.307   8.767   9.600
   13        0.524   0.306   8.780   9.609
   14        0.524   0.306   8.780   9.609
   15        0.516   0.308   8.775   9.598
   16        0.527   0.307   8.767   9.600
   17        0.516   0.308   8.775   9.598
   18        0.516   0.308   8.775   9.598
   19        0.518   0.296   8.770   9.584
   20        0.576   0.335   8.732   9.643
   21        0.576   0.335   8.732   9.643
   22        0.506   0.305   8.778   9.590
   23        0.576   0.335   8.732   9.643
   24        0.506   0.305   8.778   9.590
   25        0.518   0.296   8.770   9.584
   26        0.518   0.296   8.770   9.584
   27        0.506   0.305   8.778   9.590
   28        0.538   0.228   8.757   9.523
   29        0.585   0.246   8.735   9.565
   30        0.585   0.246   8.735   9.565
   31        0.585   0.246   8.735   9.565
   32        0.585   0.246   8.735   9.565
   33        0.585   0.246   8.735   9.565
   34        0.585   0.246   8.735   9.565
   35        0.539   0.228   8.759   9.526
   36        2.173   6.015   2.311  10.499
   37        0.975   1.534   0.000   2.509
   38        1.617   3.525   0.000   5.142
--------------------------------------------------
tot         23.735  20.732 308.934 353.402
 
 BZINTS: Fermi energy:    0.809081;  408.000000 electrons
         Band energy:-0.152561E+04;  BLOECHL correction:   -0.036711

 total amount of memory used by VASP MPI-rank0   123539. kBytes
=======================================================================

   base      :      30000. kBytes
   nonlr-proj:      14359. kBytes
   fftplans  :       4330. kBytes
   grid      :      18659. kBytes
   one-center:        590. kBytes
   wavefun   :      55601. kBytes
 
  
  
 General timing and accounting informations for this job:
 ========================================================
  
                  Total CPU time used (sec):      117.096
                            User time (sec):      113.441
                          System time (sec):        3.655
                         Elapsed time (sec):      117.457
  
                   Maximum memory used (kb):      382056.
                   Average memory used (kb):          N/A
  
                          Minor page faults:        94138
                          Major page faults:            0
                 Voluntary context switches:        11493
