PROCAR new format
# of k-points:   10         # of bands:  252         # of ions:   38

 k-point     1 :    0.00000000 0.00000000 0.00000000     weight = 0.01562500

band     1 # energy  -54.71331323 # occ.  2.00000000
 
ion      s      p      d    tot
    1  0.000  0.000  0.000  0.000
    2  0.000  0.000  0.000  0.000
    3  0.000  0.000  0.000  0.000
    4  0.000  0.000  0.000  0.000
    5  0.000  0.000  0.000  0.000
    6  0.000  0.000  0.000  0.000
    7  0.000  0.000  0.000  0.000
    8  0.000  0.000  0.000  0.000
    9  0.000  0.000  0.000  0.000
   10  0.000  0.000  0.000  0.000
   11  0.000  0.000  0.000  0.000
   12  0.000  0.000  0.000  0.000
   13  0.000  0.000  0.000  0.000
   14  0.000  0.000  0.000  0.000
   15  0.000  0.000  0.000  0.000
   16  0.000  0.000  0.000  0.000
   17  0.000  0.000  0.000  0.000
   18  0.000  0.000  0.000  0.000
   19  0.000  0.000  0.000  0.000
   20  0.000  0.000  0.000  0.000
   21  0.000  0.000  0.000  0.000
   22  0.000  0.000  0.000  0.000
   23  0.000  0.000  0.000  0.000
   24  0.000  0.000  0.000  0.000
   25  0.000  0.000  0.000  0.000
   26  0.000  0.000  0.000  0.000
   27  0.000  0.000  0.000  0.000
   28  0.000  0.000  0.000  0.000
   29  0.000  0.000  0.000  0.000
   30  0.000  0.000  0.000  0.000
   31  0.000  0.000  0.000  0.000
   32  0.000  0.000  0.000  0.000
   33  0.000  0.000  0.000  0.000
   34  0.000  0.000  0.000  0.000
   35  0.000  0.000  0.000  0.000
   36  0.992  0.000  0.000  0.992
   37  0.000  0.000  0.000  0.000
   38  0.000  0.000  0.000  0.000
tot    0.992  0.000  0.000  0.993
 
band     2 # energy  -30.83853608 # occ.  2.00000000
 
ion      s      p      d    tot
    1  0.000  0.000  0.000  0.000
    2  0.000  0.000  0.000  0.000
    3  0.000  0.000  0.000  0.000
    4  0.000  0.000  0.000  0.000
    5  0.000  0.000  0.000  0.000
    6  0.000  0.000  0.000  0.000
    7  0.000  0.000  0.000  0.000
    8  0.000  0.000  0.000  0.000
    9  0.000  0.000  0.000  0.000
   10  0.000  0.000  0.000  0.000
   11  0.000  0.000  0.000  0.000
   12  0.000  0.000  0.000  0.000
   13  0.000  0.000  0.000  0.000
   14  0.000  0.000  0.000  0.000
   15  0.000  0.000  0.000  0.000
   16  0.000  0.000  0.000  0.000
   17  0.000  0.000  0.000  0.000
   18  0.000  0.000  0.000  0.000
   19  0.000  0.000  0.000  0.000
   20  0.000  0.000  0.000  0.000
   21  0.000  0.000  0.000  0.000
   22  0.000  0.000  0.000  0.000
   23  0.000  0.000  0.000  0.000
   24  0.000  0.000  0.000  0.000
   25  0.000  0.000  0.000  0.000
   26  0.000  0.000  0.000  0.000
   27  0.000  0.000  0.000  0.000
   28  0.000  0.000  0.000  0.000
   29  0.000  0.000  0.000  0.000
   30  0.000  0.000  0.000  0.000
   31  0.000  0.000  0.000  0.000
   32  0.000  0.000  0.000  0.000
   33  0.000  0.000  0.000  0.000
   34  0.000  0.000  0.000  0.000
   35  0.000  0.000  0.000  0.000
   36  0.000  0.972  0.000  0.972
   37  0.000  0.000  0.000  0.000
   38  0.000  0.000  0.000  0.000
tot    0.000  0.973  0.001  0.974
 
band     3 # energy  -30.83853420 # occ.  2.00000000
 
ion      s      p      d    tot
    1  0.000  0.000  0.000  0.000
    2  0.000  0.000  0.000  0.000
    3  0.000  0.000  0.000  0.000
    4  0.000  0.000  0.000  0.000
    5  0.000  0.000  0.000  0.000
    6  0.000  0.000  0.000  0.000
    7  0.000  0.000  0.000  0.000
    8  0.000  0.000  0.000  0.000
    9  0.000  0.000  0.000  0.000
   10  0.000  0.000  0.000  0.000
   11  0.000  0.000  0.000  0.000
   12  0.000  0.000  0.000  0.000
   13  0.000  0.000  0.000  0.000
   14  0.000  0.000  0.000  0.000
   15  0.000  0.000  0.000  0.000
   16  0.000  0.000  0.000  0.000
   17  0.000  0.000  0.000  0.000
   18  0.000  0.000  0.000  0.000
   19  0.000  0.000  0.000  0.000
   20  0.000  0.000  0.000  0.000
   21  0.000  0.000  0.000  0.000
   22  0.000  0.000  0.000  0.000
   23  0.000  0.000  0.000  0.000
   24  0.000  0.000  0.000  0.000
   25  0.000  0.000  0.000  0.000
   26  0.000  0.000  0.000  0.000
   27  0.000  0.000  0.000  0.000
   28  0.000  0.000  0.000  0.000
   29  0.000  0.000  0.000  0.000
   30  0.000  0.000  0.000  0.000
   31  0.000  0.000  0.000  0.000
   32  0.000  0.000  0.000  0.000
   33  0.000  0.000  0.000  0.000
   34  0.000  0.000  0.000  0.000
   35  0.000  0.000  0.000  0.000
   36  0.000  0.972  0.000  0.972
   37  0.000  0.000  0.000  0.000
   38  0.000  0.000  0.000  0.000
tot    0.000  0.973  0.001  0.974
 
band     4 # energy  -30.63687086 # occ.  2.00000000
 
ion      s      p      d    tot
    1  0.000  0.000  0.000  0.000
    2  0.000  0.000  0.000  0.000
    3  0.000  0.000  0.000  0.000
    4  0.000  0.000  0.000  0.000
    5  0.000  0.000  0.000  0.000
    6  0.000  0.000  0.000  0.000
    7  0.000  0.000  0.000  0.000
    8  0.000  0.000  0.000  0.000
    9  0.000  0.000  0.000  0.000
   10  0.000  0.000  0.000  0.000
   11  0.000  0.000  0.000  0.000
   12  0.000  0.000  0.000  0.000
   13  0.000  0.000  0.000  0.000
   14  0.000  0.000  0.000  0.000
   15  0.000  0.000  0.000  0.000
   16  0.000  0.000  0.000  0.000
   17  0.000  0.000  0.000  0.000
   18  0.000  0.000  0.000  0.000
   19  0.000  0.000  0.000  0.000
   20  0.000  0.000  0.000  0.001
   21  0.000  0.000  0.000  0.001
   22  0.000  0.000  0.000  0.000
   23  0.000  0.000  0.000  0.001
   24  0.000  0.000  0.000  0.000
   25  0.000  0.000  0.000  0.000
   26  0.000  0.000  0.000  0.000
   27  0.000  0.000  0.000  0.000
   28  0.000  0.000  0.000  0.000
   29  0.000  0.000  0.000  0.000
   30  0.000  0.000  0.000  0.000
   31  0.000  0.000  0.000  0.000
   32  0.000  0.000  0.000  0.000
   33  0.000  0.000  0.000  0.000
   34  0.000  0.000  0.000  0.000
   35  0.000  0.000  0.000  0.000
   36  0.000  0.967  0.000  0.967
   37  0.002  0.001  0.000  0.003
   38  0.000  0.000  0.000  0.000
tot    0.002  0.969  0.001  0.971
 
band     5 # energy  -22.49324072 # occ.  2.00000000
 
ion      s      p      d    tot
    1  0.000  0.000  0.000  0.000
    2  0.000  0.000  0.000  0.000
    3  0.000  0.000  0.000  0.000
    4  0.000  0.000  0.000  0.000
    5  0.000  0.000  0.000  0.000
    6  0.000  0.000  0.000  0.000
    7  0.000  0.000  0.000  0.000
    8  0.000  0.000  0.000  0.000
    9  0.000  0.000  0.000  0.000
   10  0.000  0.000  0.000  0.000
   11  0.000  0.000  0.000  0.000
   12  0.000  0.000  0.000  0.000
   13  0.000  0.000  0.000  0.000
   14  0.000  0.000  0.000  0.000
   15  0.000  0.000  0.000  0.000
   16  0.000  0.000  0.000  0.000
   17  0.000  0.000  0.000  0.000
   18  0.000  0.000  0.000  0.000
   19  0.000  0.000  0.000  0.000
   20  0.000  0.000  0.000  0.000
   21  0.000  0.000  0.000  0.000
   22  0.000  0.000  0.000  0.000
   23  0.000  0.000  0.000  0.000
   24  0.000  0.000  0.000  0.000
   25  0.000  0.000  0.000  0.000
   26  0.000  0.000  0.000  0.000
   27  0.000  0.000  0.000  0.000
   28  0.000  0.000  0.000  0.000
   29  0.000  0.000  0.000  0.000
   30  0.000  0.000  0.000  0.000
   31  0.000  0.000  0.000  0.000
   32  0.000  0.000  0.000  0.000
   33  0.000  0.000  0.000  0.000
   34  0.000  0.000  0.000  0.000
   35  0.000  0.000  0.000  0.000
   36  0.000  0.000  0.000  0.000
   37  0.158  0.118  0.000  0.276
   38  0.640  0.096  0.000  0.735
tot    0.798  0.214  0.000  1.012
 
band     6 # energy   -8.08550592 # occ.  2.00000000
 
ion      s      p      d    tot
    1  0.003  0.000  0.000  0.003
    2  0.003  0.000  0.000  0.003
    3  0.003  0.000  0.000  0.003
    4  0.003  0.000  0.000  0.003
    5  0.003  0.000  0.000  0.003
    6  0.003  0.000  0.000  0.003
    7  0.003  0.000  0.000  0.003
    8  0.003  0.000  0.000  0.003
    9  0.003  0.000  0.000  0.003
   10  0.013  0.000  0.000  0.013
   11  0.013  0.000  0.000  0.014
   12  0.013  0.000  0.000  0.013
   13  0.013  0.000  0.000  0.014
   14  0.013  0.000  0.000  0.014
   15  0.012  0.000  0.000  0.012
   16  0.013  0.000  0.000  0.013
   17  0.012  0.000  0.000  0.012
   18  0.012  0.000  0.000  0.012
   19  0.013  0.000  0.000  0.014
   20  0.019  0.000  0.001  0.020
   21  0.019  0.000  0.001  0.020
   22  0.014  0.000  0.000  0.014
   23  0.019  0.000  0.001  0.020
   24  0.014  0.000  0.000  0.014
   25  0.013  0.000  0.000  0.014
   26  0.013  0.000  0.000  0.014
   27  0.014  0.000  0.000  0.014
   28  0.003  0.000  0.000  0.004
   29  0.005  0.000  0.000  0.005
   30  0.005  0.000  0.000  0.005
   31  0.005  0.000  0.000  0.005
   32  0.005  0.000  0.000  0.005
   33  0.005  0.000  0.000  0.005
   34  0.005  0.000  0.000  0.005
   35  0.003  0.000  0.000  0.004
   36  0.012  0.001  0.010  0.023
   37  0.117  0.001  0.000  0.119
   38  0.063  0.102  0.000  0.165
tot    0.509  0.110  0.014  0.632
 
band     7 # energy   -7.88347189 # occ.  2.00000000
 
ion      s      p      d    tot
    1  0.004  0.000  0.000  0.004
    2  0.004  0.000  0.000  0.004
    3  0.004  0.000  0.000  0.004
    4  0.004  0.000  0.000  0.004
    5  0.004  0.000  0.000  0.004
    6  0.004  0.000  0.000  0.004
    7  0.004  0.000  0.000  0.004
    8  0.004  0.000  0.000  0.004
    9  0.004  0.000  0.000  0.004
   10  0.014  0.000  0.000  0.014
   11  0.014  0.000  0.000  0.015
   12  0.014  0.000  0.000  0.014
   13  0.014  0.000  0.000  0.015
   14  0.014  0.000  0.000  0.015
   15  0.014  0.000  0.000  0.015
   16  0.014  0.000  0.000  0.014
   17  0.014  0.000  0.000  0.015
   18  0.014  0.000  0.000  0.015
   19  0.009  0.000  0.000  0.010
   20  0.008  0.000  0.000  0.009
   21  0.008  0.000  0.000  0.009
   22  0.010  0.000  0.000  0.010
   23  0.008  0.000  0.000  0.009
   24  0.010  0.000  0.000  0.010
   25  0.009  0.000  0.000  0.010
   26  0.009  0.000  0.000  0.010
   27  0.010  0.000  0.000  0.010
   28  0.001  0.000  0.000  0.001
   29  0.000  0.000  0.000  0.001
   30  0.000  0.000  0.000  0.001
   31  0.000  0.000  0.000  0.001
   32  0.000  0.000  0.000  0.001
   33  0.000  0.000  0.000  0.001
   34  0.000  0.000  0.000  0.001
   35  0.001  0.000  0.000  0.002
   36  0.002  0.004  0.010  0.016
   37  0.144  0.000  0.000  0.144
   38  0.086  0.160  0.000  0.247
tot    0.484  0.172  0.015  0.672
 
band     8 # energy   -6.81848949 # occ.  2.00000000
 
ion      s      p      d    tot
    1  0.016  0.000  0.001  0.018
    2  0.016  0.000  0.001  0.018
    3  0.016  0.000  0.001  0.018
    4  0.016  0.000  0.001  0.018
    5  0.016  0.000  0.001  0.017
    6  0.016  0.000  0.001  0.017
    7  0.016  0.000  0.001  0.018
    8  0.016  0.000  0.001  0.017
    9  0.016  0.000  0.001  0.018
   10  0.010  0.001  0.002  0.014
   11  0.009  0.001  0.002  0.013
   12  0.010  0.001  0.002  0.014
   13  0.009  0.001  0.002  0.013
   14  0.009  0.001  0.002  0.013
   15  0.010  0.001  0.002  0.013
   16  0.010  0.001  0.002  0.014
   17  0.010  0.001  0.002  0.013
   18  0.010  0.001  0.002  0.013
   19  0.013  0.001  0.003  0.018
   20  0.014  0.001  0.004  0.019
   21  0.014  0.001  0.004  0.019
   22  0.014  0.001  0.003  0.018
   23  0.014  0.001  0.004  0.019
   24  0.014  0.001  0.003  0.018
   25  0.013  0.001  0.003  0.018
   26  0.013  0.001  0.003  0.018
   27  0.014  0.001  0.003  0.018
   28  0.014  0.000  0.001  0.015
   29  0.014  0.000  0.001  0.015
   30  0.014  0.000  0.001  0.015
   31  0.014  0.000  0.001  0.015
   32  0.014  0.000  0.001  0.015
   33  0.014  0.000  0.001  0.015
   34  0.014  0.000  0.001  0.015
   35  0.014  0.000  0.001  0.016
   36  0.005  0.000  0.000  0.006
   37  0.002  0.003  0.000  0.005
   38  0.004  0.017  0.000  0.021
tot    0.481  0.050  0.069  0.599
 
band     9 # energy   -5.89755649 # occ.  2.00000000
 
ion      s      p      d    tot
    1  0.000  0.001  0.010  0.010
    2  0.006  0.000  0.007  0.013
    3  0.006  0.000  0.007  0.013
    4  0.006  0.000  0.007  0.013
    5  0.003  0.000  0.003  0.006
    6  0.006  0.000  0.007  0.013
    7  0.006  0.000  0.007  0.013
    8  0.006  0.000  0.007  0.013
    9  0.025  0.001  0.002  0.027
   10  0.013  0.001  0.015  0.029
   11  0.007  0.002  0.010  0.019
   12  0.013  0.001  0.015  0.029
   13  0.007  0.002  0.010  0.019
   14  0.007  0.002  0.010  0.018
   15  0.009  0.001  0.008  0.018
   16  0.013  0.001  0.015  0.029
   17  0.009  0.001  0.008  0.018
   18  0.009  0.001  0.008  0.018
   19  0.001  0.001  0.017  0.018
   20  0.022  0.001  0.020  0.044
   21  0.022  0.001  0.020  0.043
   22  0.009  0.002  0.004  0.015
   23  0.022  0.001  0.020  0.043
   24  0.009  0.002  0.004  0.015
   25  0.001  0.001  0.017  0.018
   26  0.001  0.001  0.017  0.018
   27  0.009  0.002  0.004  0.015
   28  0.009  0.000  0.002  0.011
   29  0.007  0.000  0.007  0.015
   30  0.007  0.000  0.007  0.015
   31  0.007  0.000  0.007  0.015
   32  0.007  0.000  0.007  0.015
   33  0.007  0.000  0.007  0.015
   34  0.007  0.000  0.007  0.015
   35  0.023  0.001  0.003  0.026
   36  0.000  0.001  0.009  0.010
   37  0.000  0.002  0.000  0.002
   38  0.000  0.003  0.000  0.003
tot    0.317  0.036  0.337  0.690
 
band    10 # energy   -5.87701967 # occ.  2.00000000
 
ion      s      p      d    tot
    1  0.033  0.000  0.009  0.041
    2  0.015  0.000  0.015  0.030
    3  0.015  0.000  0.015  0.030
    4  0.015  0.000  0.015  0.030
    5  0.013  0.000  0.016  0.029
    6  0.015  0.000  0.015  0.030
    7  0.015  0.000  0.015  0.030
    8  0.015  0.000  0.015  0.030
    9  0.005  0.001  0.016  0.021
   10  0.000  0.000  0.024  0.025
   11  0.004  0.001  0.016  0.020
   12  0.000  0.000  0.024  0.025
   13  0.004  0.001  0.016  0.020
   14  0.004  0.001  0.016  0.020
   15  0.022  0.002  0.008  0.032
   16  0.000  0.000  0.024  0.025
   17  0.022  0.002  0.008  0.032
   18  0.022  0.002  0.008  0.032
   19  0.000  0.001  0.005  0.006
   20  0.003  0.000  0.012  0.016
   21  0.003  0.000  0.012  0.016
   22  0.011  0.002  0.001  0.014
   23  0.003  0.000  0.012  0.016
   24  0.011  0.002  0.001  0.014
   25  0.000  0.001  0.005  0.006
   26  0.000  0.001  0.005  0.006
   27  0.011  0.002  0.001  0.014
   28  0.004  0.000  0.003  0.007
   29  0.004  0.000  0.003  0.007
   30  0.004  0.000  0.003  0.007
   31  0.004  0.000  0.003  0.007
   32  0.004  0.000  0.003  0.007
   33  0.004  0.000  0.003  0.007
   34  0.004  0.000  0.003  0.007
   35  0.000  0.000  0.004  0.004
   36  0.007  0.000  0.001  0.009
   37  0.000  0.011  0.000  0.011
   38  0.002  0.020  0.000  0.023
tot    0.295  0.053  0.354  0.702
 
band    11 # energy   -5.87412471 # occ.  2.00000000
 
ion      s      p      d    tot
    1  0.000  0.001  0.009  0.009
    2  0.004  0.001  0.003  0.007
    3  0.000  0.000  0.003  0.004
    4  0.004  0.001  0.003  0.007
    5  0.000  0.001  0.006  0.007
    6  0.006  0.001  0.003  0.011
    7  0.000  0.000  0.003  0.004
    8  0.006  0.001  0.003  0.011
    9  0.000  0.000  0.001  0.001
   10  0.041  0.002  0.005  0.048
   11  0.012  0.003  0.019  0.034
   12  0.011  0.001  0.028  0.040
   13  0.012  0.003  0.019  0.034
   14  0.047  0.001  0.012  0.060
   15  0.000  0.002  0.008  0.010
   16  0.010  0.001  0.029  0.039
   17  0.000  0.002  0.008  0.010
   18  0.000  0.000  0.011  0.012
   19  0.003  0.003  0.006  0.013
   20  0.064  0.001  0.010  0.076
   21  0.016  0.002  0.031  0.049
   22  0.003  0.001  0.019  0.023
   23  0.016  0.002  0.032  0.049
   24  0.012  0.001  0.006  0.019
   25  0.013  0.000  0.013  0.027
   26  0.003  0.003  0.006  0.013
   27  0.003  0.001  0.019  0.023
   28  0.000  0.000  0.001  0.002
   29  0.006  0.001  0.004  0.011
   30  0.002  0.001  0.003  0.005
   31  0.006  0.001  0.004  0.010
   32  0.001  0.000  0.003  0.004
   33  0.002  0.001  0.003  0.005
   34  0.001  0.000  0.003  0.004
   35  0.000  0.000  0.004  0.004
   36  0.000  0.001  0.005  0.006
   37  0.000  0.000  0.000  0.000
   38  0.000  0.000  0.000  0.000
tot    0.305  0.042  0.343  0.690
 
band    12 # energy   -5.87409974 # occ.  2.00000000
 
ion      s      p      d    tot
    1  0.000  0.001  0.009  0.009
    2  0.003  0.001  0.003  0.007
    3  0.006  0.001  0.003  0.011
    4  0.003  0.001  0.003  0.007
    5  0.000  0.001  0.006  0.007
    6  0.001  0.000  0.003  0.004
    7  0.006  0.001  0.003  0.010
    8  0.001  0.000  0.003  0.004
    9  0.000  0.000  0.001  0.001
   10  0.000  0.000  0.036  0.036
   11  0.036  0.001  0.015  0.052
   12  0.031  0.002  0.013  0.045
   13  0.035  0.002  0.015  0.051
   14  0.000  0.004  0.021  0.025
   15  0.000  0.001  0.010  0.011
   16  0.031  0.002  0.013  0.046
   17  0.000  0.001  0.010  0.011
   18  0.000  0.003  0.006  0.010
   19  0.010  0.001  0.011  0.022
   20  0.000  0.002  0.039  0.040
   21  0.048  0.002  0.017  0.067
   22  0.009  0.001  0.010  0.021
   23  0.048  0.002  0.017  0.067
   24  0.000  0.001  0.023  0.024
   25  0.000  0.004  0.004  0.008
   26  0.010  0.001  0.011  0.022
   27  0.009  0.001  0.010  0.021
   28  0.000  0.000  0.001  0.002
   29  0.000  0.000  0.002  0.002
   30  0.004  0.001  0.003  0.008
   31  0.000  0.000  0.002  0.003
   32  0.005  0.001  0.004  0.009
   33  0.004  0.001  0.003  0.008
   34  0.005  0.001  0.004  0.009
   35  0.000  0.000  0.004  0.004
   36  0.000  0.001  0.005  0.006
   37  0.000  0.000  0.000  0.000
   38  0.000  0.000  0.000  0.000
tot    0.305  0.042  0.343  0.690
 
band    13 # energy   -5.83155135 # occ.  2.00000000
 
ion      s      p      d    tot
    1  0.000  0.000  0.005  0.005
    2  0.002  0.000  0.003  0.005
    3  0.002  0.000  0.003  0.005
    4  0.002  0.000  0.003  0.005
    5  0.002  0.000  0.002  0.004
    6  0.002  0.000  0.003  0.005
    7  0.002  0.000  0.003  0.005
    8  0.002  0.000  0.003  0.005
    9  0.005  0.000  0.002  0.007
   10  0.006  0.000  0.013  0.020
   11  0.003  0.000  0.015  0.018
   12  0.006  0.000  0.013  0.020
   13  0.003  0.000  0.015  0.018
   14  0.003  0.000  0.015  0.018
   15  0.000  0.000  0.013  0.013
   16  0.006  0.000  0.013  0.020
   17  0.000  0.000  0.013  0.013
   18  0.000  0.000  0.013  0.013
   19  0.005  0.000  0.022  0.026
   20  0.003  0.000  0.035  0.038
   21  0.003  0.000  0.035  0.038
   22  0.012  0.000  0.021  0.033
   23  0.003  0.000  0.035  0.038
   24  0.012  0.000  0.021  0.033
   25  0.005  0.000  0.022  0.026
   26  0.005  0.000  0.022  0.026
   27  0.012  0.000  0.021  0.033
   28  0.013  0.000  0.014  0.027
   29  0.015  0.000  0.014  0.029
   30  0.015  0.000  0.014  0.029
   31  0.015  0.000  0.014  0.029
   32  0.015  0.000  0.014  0.029
   33  0.015  0.000  0.014  0.029
   34  0.015  0.000  0.014  0.029
   35  0.010  0.000  0.015  0.026
   36  0.007  0.000  0.002  0.010
   37  0.000  0.005  0.000  0.005
   38  0.001  0.011  0.000  0.012
tot    0.227  0.021  0.497  0.745
 
band    14 # energy   -5.81658351 # occ.  2.00000000
 
ion      s      p      d    tot
    1  0.004  0.001  0.001  0.005
    2  0.000  0.001  0.006  0.007
    3  0.000  0.001  0.006  0.007
    4  0.000  0.001  0.006  0.007
    5  0.020  0.002  0.001  0.023
    6  0.000  0.001  0.006  0.007
    7  0.000  0.001  0.006  0.007
    8  0.000  0.001  0.006  0.007
    9  0.001  0.000  0.003  0.004
   10  0.018  0.003  0.004  0.026
   11  0.026  0.001  0.015  0.043
   12  0.018  0.003  0.004  0.025
   13  0.026  0.001  0.015  0.043
   14  0.026  0.001  0.015  0.043
   15  0.003  0.000  0.028  0.031
   16  0.018  0.003  0.004  0.025
   17  0.003  0.000  0.028  0.031
   18  0.003  0.000  0.028  0.031
   19  0.027  0.002  0.007  0.036
   20  0.008  0.003  0.014  0.024
   21  0.008  0.003  0.013  0.024
   22  0.002  0.000  0.027  0.029
   23  0.008  0.003  0.013  0.024
   24  0.002  0.000  0.027  0.029
   25  0.027  0.002  0.007  0.036
   26  0.027  0.002  0.007  0.036
   27  0.002  0.000  0.027  0.029
   28  0.008  0.001  0.002  0.012
   29  0.000  0.000  0.004  0.005
   30  0.000  0.000  0.004  0.005
   31  0.000  0.000  0.004  0.005
   32  0.000  0.000  0.004  0.005
   33  0.000  0.000  0.004  0.005
   34  0.000  0.000  0.004  0.005
   35  0.005  0.000  0.001  0.006
   36  0.001  0.000  0.000  0.002
   37  0.000  0.000  0.000  0.000
   38  0.000  0.000  0.000  0.001
tot    0.298  0.041  0.355  0.693
 
band    15 # energy   -5.79996852 # occ.  2.00000000
 
ion      s      p      d    tot
    1  0.000  0.001  0.003  0.004
    2  0.005  0.001  0.003  0.009
    3  0.000  0.000  0.004  0.004
    4  0.005  0.001  0.003  0.009
    5  0.000  0.000  0.005  0.005
    6  0.008  0.001  0.004  0.013
    7  0.000  0.000  0.004  0.004
    8  0.007  0.001  0.004  0.013
    9  0.000  0.001  0.011  0.012
   10  0.000  0.005  0.003  0.007
   11  0.010  0.001  0.011  0.023
   12  0.015  0.001  0.013  0.029
   13  0.009  0.001  0.013  0.023
   14  0.000  0.001  0.029  0.030
   15  0.049  0.001  0.014  0.065
   16  0.016  0.001  0.014  0.030
   17  0.046  0.001  0.016  0.063
   18  0.000  0.001  0.040  0.041
   19  0.028  0.002  0.010  0.040
   20  0.000  0.003  0.009  0.012
   21  0.000  0.001  0.013  0.015
   22  0.028  0.002  0.013  0.042
   23  0.000  0.001  0.014  0.015
   24  0.000  0.004  0.018  0.022
   25  0.000  0.000  0.036  0.036
   26  0.026  0.002  0.012  0.040
   27  0.030  0.001  0.012  0.044
   28  0.000  0.000  0.006  0.007
   29  0.004  0.001  0.002  0.007
   30  0.003  0.000  0.002  0.006
   31  0.004  0.001  0.002  0.007
   32  0.000  0.000  0.002  0.002
   33  0.002  0.000  0.002  0.005
   34  0.000  0.000  0.002  0.002
   35  0.000  0.001  0.004  0.005
   36  0.000  0.000  0.000  0.000
   37  0.000  0.000  0.000  0.000
   38  0.000  0.001  0.000  0.001
tot    0.296  0.042  0.354  0.692
 
band    16 # energy   -5.79995876 # occ.  2.00000000
 
ion      s      p      d    tot
    1  0.000  0.001  0.003  0.004
    2  0.004  0.001  0.004  0.009
    3  0.008  0.001  0.004  0.013
    4  0.003  0.001  0.004  0.008
    5  0.000  0.000  0.005  0.005
    6  0.001  0.000  0.003  0.004
    7  0.008  0.001  0.004  0.013
    8  0.001  0.000  0.003  0.005
    9  0.000  0.001  0.011  0.012
   10  0.020  0.000  0.017  0.037
   11  0.003  0.001  0.024  0.028
   12  0.006  0.003  0.007  0.016
   13  0.003  0.001  0.023  0.027
   14  0.013  0.001  0.006  0.020
   15  0.014  0.001  0.032  0.048
   16  0.005  0.004  0.006  0.014
   17  0.017  0.001  0.031  0.049
   18  0.063  0.001  0.006  0.071
   19  0.008  0.001  0.028  0.037
   20  0.000  0.001  0.015  0.016
   21  0.000  0.002  0.011  0.013
   22  0.011  0.003  0.016  0.030
   23  0.000  0.002  0.011  0.013
   24  0.039  0.001  0.011  0.050
   25  0.036  0.002  0.003  0.042
   26  0.010  0.001  0.027  0.037
   27  0.009  0.003  0.017  0.028
   28  0.000  0.000  0.006  0.007
   29  0.000  0.000  0.002  0.002
   30  0.002  0.000  0.002  0.004
   31  0.001  0.000  0.002  0.003
   32  0.004  0.001  0.003  0.008
   33  0.002  0.000  0.002  0.004
   34  0.005  0.001  0.003  0.008
   35  0.000  0.001  0.004  0.005
   36  0.000  0.000  0.000  0.000
   37  0.000  0.000  0.000  0.000
   38  0.000  0.001  0.000  0.001
tot    0.296  0.042  0.354  0.692
 
band    17 # energy   -5.41354734 # occ.  2.00000000
 
ion      s      p      d    tot
    1  0.001  0.000  0.001  0.002
    2  0.000  0.001  0.006  0.007
    3  0.000  0.001  0.006  0.007
    4  0.000  0.001  0.006  0.007
    5  0.009  0.001  0.000  0.010
    6  0.000  0.001  0.006  0.007
    7  0.000  0.001  0.006  0.007
    8  0.000  0.001  0.006  0.007
    9  0.013  0.002  0.002  0.016
   10  0.004  0.000  0.037  0.041
   11  0.002  0.001  0.016  0.019
   12  0.004  0.000  0.036  0.041
   13  0.002  0.001  0.016  0.019
   14  0.002  0.001  0.016  0.019
   15  0.016  0.002  0.007  0.025
   16  0.004  0.000  0.036  0.041
   17  0.016  0.002  0.007  0.025
   18  0.016  0.002  0.007  0.025
   19  0.005  0.000  0.021  0.026
   20  0.004  0.002  0.025  0.031
   21  0.004  0.002  0.025  0.031
   22  0.001  0.001  0.014  0.016
   23  0.004  0.002  0.025  0.031
   24  0.001  0.001  0.014  0.016
   25  0.005  0.000  0.021  0.026
   26  0.005  0.000  0.021  0.026
   27  0.001  0.001  0.014  0.016
   28  0.001  0.000  0.001  0.002
   29  0.000  0.000  0.002  0.003
   30  0.000  0.000  0.002  0.003
   31  0.000  0.000  0.002  0.003
   32  0.000  0.000  0.002  0.003
   33  0.000  0.000  0.002  0.003
   34  0.000  0.000  0.002  0.003
   35  0.006  0.000  0.000  0.007
   36  0.013  0.000  0.024  0.037
   37  0.006  0.054  0.000  0.060
   38  0.005  0.067  0.000  0.072
tot    0.149  0.150  0.442  0.742
 
band    18 # energy   -5.38616994 # occ.  2.00000000
 
ion      s      p      d    tot
    1  0.000  0.001  0.004  0.004
    2  0.001  0.001  0.005  0.006
    3  0.008  0.001  0.004  0.014
    4  0.001  0.001  0.005  0.006
    5  0.000  0.001  0.010  0.011
    6  0.005  0.001  0.004  0.009
    7  0.008  0.001  0.004  0.014
    8  0.005  0.001  0.004  0.009
    9  0.000  0.000  0.008  0.008
   10  0.000  0.001  0.050  0.051
   11  0.015  0.001  0.020  0.037
   12  0.007  0.001  0.019  0.027
   13  0.015  0.001  0.020  0.037
   14  0.000  0.000  0.048  0.048
   15  0.001  0.000  0.019  0.021
   16  0.007  0.001  0.019  0.027
   17  0.001  0.000  0.019  0.021
   18  0.000  0.001  0.011  0.013
   19  0.004  0.000  0.019  0.024
   20  0.000  0.000  0.084  0.084
   21  0.016  0.001  0.026  0.043
   22  0.003  0.001  0.019  0.023
   23  0.016  0.001  0.026  0.043
   24  0.000  0.001  0.034  0.035
   25  0.000  0.001  0.010  0.011
   26  0.004  0.000  0.019  0.024
   27  0.003  0.001  0.019  0.023
   28  0.000  0.000  0.008  0.008
   29  0.003  0.001  0.005  0.008
   30  0.009  0.001  0.005  0.015
   31  0.003  0.001  0.005  0.008
   32  0.001  0.001  0.004  0.006
   33  0.009  0.001  0.005  0.015
   34  0.001  0.001  0.004  0.006
   35  0.000  0.000  0.003  0.003
   36  0.000  0.001  0.004  0.006
   37  0.000  0.000  0.000  0.000
   38  0.000  0.000  0.000  0.000
tot    0.150  0.028  0.572  0.749
 
band    19 # energy   -5.38614743 # occ.  2.00000000
 
ion      s      p      d    tot
    1  0.000  0.001  0.004  0.004
    2  0.009  0.001  0.004  0.014
    3  0.001  0.000  0.004  0.005
    4  0.009  0.001  0.004  0.014
    5  0.000  0.001  0.010  0.011
    6  0.004  0.001  0.005  0.010
    7  0.001  0.000  0.004  0.005
    8  0.004  0.001  0.005  0.010
    9  0.000  0.000  0.008  0.008
   10  0.009  0.002  0.008  0.019
   11  0.005  0.000  0.039  0.044
   12  0.002  0.001  0.040  0.043
   13  0.005  0.000  0.039  0.044
   14  0.021  0.001  0.011  0.033
   15  0.000  0.001  0.014  0.015
   16  0.002  0.001  0.040  0.043
   17  0.000  0.001  0.014  0.015
   18  0.002  0.000  0.022  0.024
   19  0.001  0.001  0.013  0.016
   20  0.022  0.001  0.007  0.030
   21  0.005  0.000  0.065  0.070
   22  0.001  0.001  0.029  0.031
   23  0.005  0.000  0.065  0.070
   24  0.005  0.001  0.014  0.019
   25  0.006  0.000  0.022  0.028
   26  0.001  0.001  0.013  0.016
   27  0.001  0.001  0.029  0.031
   28  0.000  0.000  0.008  0.008
   29  0.006  0.001  0.004  0.011
   30  0.000  0.000  0.004  0.005
   31  0.006  0.001  0.004  0.011
   32  0.007  0.001  0.005  0.013
   33  0.000  0.000  0.004  0.005
   34  0.007  0.001  0.005  0.013
   35  0.000  0.000  0.003  0.003
   36  0.000  0.001  0.004  0.006
   37  0.000  0.000  0.000  0.000
   38  0.000  0.000  0.000  0.000
tot    0.150  0.028  0.572  0.749
 
band    20 # energy   -5.37578254 # occ.  2.00000000
 
ion      s      p      d    tot
    1  0.016  0.002  0.001  0.019
    2  0.000  0.001  0.007  0.007
    3  0.000  0.001  0.007  0.007
    4  0.000  0.001  0.007  0.007
    5  0.001  0.000  0.002  0.003
    6  0.000  0.001  0.007  0.007
    7  0.000  0.001  0.007  0.007
    8  0.000  0.001  0.007  0.007
    9  0.008  0.000  0.000  0.008
   10  0.007  0.001  0.010  0.018
   11  0.006  0.001  0.030  0.037
   12  0.007  0.001  0.010  0.018
   13  0.006  0.001  0.030  0.037
   14  0.006  0.001  0.030  0.036
   15  0.000  0.000  0.031  0.032
   16  0.007  0.001  0.010  0.018
   17  0.000  0.000  0.031  0.032
   18  0.000  0.000  0.031  0.032
   19  0.009  0.002  0.006  0.017
   20  0.000  0.000  0.049  0.050
   21  0.000  0.000  0.049  0.050
   22  0.010  0.001  0.029  0.040
   23  0.000  0.000  0.049  0.050
   24  0.010  0.001  0.029  0.040
   25  0.009  0.002  0.006  0.017
   26  0.009  0.002  0.006  0.017
   27  0.010  0.001  0.029  0.040
   28  0.019  0.002  0.000  0.021
   29  0.000  0.001  0.008  0.009
   30  0.000  0.001  0.008  0.009
   31  0.000  0.001  0.008  0.009
   32  0.000  0.001  0.008  0.009
   33  0.000  0.001  0.008  0.009
   34  0.000  0.001  0.008  0.009
   35  0.003  0.001  0.003  0.007
   36  0.003  0.000  0.000  0.004
   37  0.001  0.005  0.000  0.006
   38  0.000  0.006  0.000  0.007
tot    0.148  0.039  0.561  0.749
 
band    21 # energy   -5.32685042 # occ.  2.00000000
 
ion      s      p      d    tot
    1  0.000  0.000  0.001  0.001
    2  0.000  0.000  0.000  0.000
    3  0.000  0.000  0.000  0.001
    4  0.000  0.000  0.000  0.000
    5  0.000  0.000  0.000  0.000
    6  0.001  0.000  0.000  0.001
    7  0.000  0.000  0.000  0.001
    8  0.001  0.000  0.000  0.001
    9  0.000  0.000  0.001  0.001
   10  0.000  0.000  0.001  0.002
   11  0.000  0.000  0.001  0.001
   12  0.000  0.000  0.003  0.003
   13  0.000  0.000  0.001  0.001
   14  0.000  0.000  0.002  0.002
   15  0.000  0.000  0.004  0.004
   16  0.000  0.000  0.003  0.003