 vasp.6.2.0 18Jan21 (build Jun 12 2021 23:27:24) complex                        
  
 executed on             LinuxIFC date 2022.05.26  19:42:39
 running on   28 total cores
 distrk:  each k-point on   28 cores,    1 groups
 distr:  one band on NCORE=   1 cores,   28 groups


--------------------------------------------------------------------------------------------------------


 INCAR:
   ISMEAR = -5
   SIGMA = 0.1
   ISPIN = 1
   EDIFF = 1.d-5
   EDIFFG = -0.01
   NSW = 0
   NELM = 150
   ENCUT = 500
   ISIF = 2
   IBRION = 2
   LREAL = Auto
   ALGO = Fast
   ICHARG = 11
   LORBIT = 10
   LCHARG = .F.
   LWAVE = .F.

 POTCAR:    PAW_PBE Ag 02Apr2005                  
 POTCAR:    PAW_PBE Co 02Aug2007                  
 POTCAR:    PAW_PBE O 08Apr2002                   
 -----------------------------------------------------------------------------
|                                                                             |
|           W    W    AA    RRRRR   N    N  II  N    N   GGGG   !!!           |
|           W    W   A  A   R    R  NN   N  II  NN   N  G    G  !!!           |
|           W    W  A    A  R    R  N N  N  II  N N  N  G       !!!           |
|           W WW W  AAAAAA  RRRRR   N  N N  II  N  N N  G  GGG   !            |
|           WW  WW  A    A  R   R   N   NN  II  N   NN  G    G                |
|           W    W  A    A  R    R  N    N  II  N    N   GGGG   !!!           |
|                                                                             |
|     For optimal performance we recommend to set                             |
|       NCORE = 2 up to number-of-cores-per-socket                            |
|     NCORE specifies how many cores store one orbital (NPAR=cpu/NCORE).      |
|     This setting can greatly improve the performance of VASP for DFT.       |
|     The default, NCORE=1 might be grossly inefficient on modern             |
|     multi-core architectures or massively parallel machines. Do your        |
|     own testing! More info at https://www.vasp.at/wiki/index.php/NCORE      |
|     Unfortunately you need to use the default for GW and RPA                |
|     calculations (for HF NCORE is supported but not extensively tested      |
|     yet).                                                                   |
|                                                                             |
 -----------------------------------------------------------------------------

 POTCAR:    PAW_PBE Ag 02Apr2005                  
   VRHFIN =Ag : s1 d10                                                                              
   LEXCH  = PE                                                                                      
   EATOM  =  1037.2675 eV,   76.2370 Ry                                                             
                                                                                                    
   TITEL  = PAW_PBE Ag 02Apr2005                                                                    
   LULTRA =        F    use ultrasoft PP ?                                                          
   IUNSCR =        1    unscreen: 0-lin 1-nonlin 2-no                                               
   RPACOR =    2.000    partial core radius                                                         
   POMASS =  107.868; ZVAL   =   11.000    mass and valenz                                          
   RCORE  =    2.500    outmost cutoff radius                                                       
   RWIGS  =    2.840; RWIGS  =    1.503    wigner-seitz radius (au A)                               
   ENMAX  =  249.844; ENMIN  =  187.383 eV                                                          
   ICORE  =        3    local potential                                                             
   LCOR   =        T    correct aug charges                                                         
   LPAW   =        T    paw PP                                                                      
   EAUG   =  412.496                                                                                
   DEXC   =    0.000                                                                                
   RMAX   =    2.560    core radius for proj-oper                                                   
   RAUG   =    1.300    factor for augmentation sphere                                              
   RDEP   =    2.576    radius for radial grids                                                     
   RDEPT  =    2.072    core radius for aug-charge                                                  
                                                                                                    
   Atomic configuration                                                                             
   12 entries                                                                                       
     n  l   j            E        occ.                                                              
     1  0  0.50    -25324.9161   2.0000                                                             
     2  0  0.50     -3728.5341   2.0000                                                             
     2  1  1.50     -3344.0404   6.0000                                                             
     3  0  0.50      -683.5581   2.0000                                                             
     3  1  1.50      -557.3225   6.0000                                                             
     3  2  2.50      -358.3853  10.0000                                                             
     4  0  0.50       -95.0341   2.0000                                                             
     4  1  1.50       -58.5511   6.0000                                                             
     4  2  2.50        -7.4440  10.0000                                                             
     5  0  0.50        -4.4045   1.0000                                                             
     5  1  0.50        -1.3606   0.0000                                                             
     4  3  2.50        -1.3606   0.0000                                                             
   Description                                                                                      
     l       E           TYP  RCUT    TYP  RCUT                                                     
     2     -7.4439781     23  2.400                                                                 
     2     -8.8045607     23  2.400                                                                 
     0     -4.4044681     23  2.400                                                                 
     0      1.9520038     23  2.400                                                                 
     1     -1.3605826     23  2.500                                                                 
     1     27.2116520     23  2.500                                                                 
     3     -4.0817478     23  2.400                                                                 
  local pseudopotential read in
  partial core-charges read in
  partial kinetic energy density read in
  atomic valenz-charges read in
  non local Contribution for L=           2  read in
    real space projection operators read in
  non local Contribution for L=           2  read in
    real space projection operators read in
  non local Contribution for L=           0  read in
    real space projection operators read in
  non local Contribution for L=           0  read in
    real space projection operators read in
  non local Contribution for L=           1  read in
    real space projection operators read in
  non local Contribution for L=           1  read in
    real space projection operators read in
    PAW grid and wavefunctions read in
 
   number of l-projection  operators is LMAX  =           6
   number of lm-projection operators is LMMAX =          18
 
 POTCAR:    PAW_PBE Co 02Aug2007                  
   VRHFIN =Co: d8 s1                                                                                
   LEXCH  = PE                                                                                      
   EATOM  =   813.3670 eV,   59.7808 Ry                                                             
                                                                                                    
   TITEL  = PAW_PBE Co 02Aug2007                                                                    
   LULTRA =        F    use ultrasoft PP ?                                                          
   IUNSCR =        1    unscreen: 0-lin 1-nonlin 2-no                                               
   RPACOR =    2.000    partial core radius                                                         
   POMASS =   58.933; ZVAL   =    9.000    mass and valenz                                          
   RCORE  =    2.300    outmost cutoff radius                                                       
   RWIGS  =    2.460; RWIGS  =    1.302    wigner-seitz radius (au A)                               
   ENMAX  =  267.968; ENMIN  =  200.976 eV                                                          
   RCLOC  =    1.203    cutoff for local pot                                                        
   LCOR   =        T    correct aug charges                                                         
   LPAW   =        T    paw PP                                                                      
   EAUG   =  477.818                                                                                
   DEXC   =    0.000                                                                                
   RMAX   =    2.360    core radius for proj-oper                                                   
   RAUG   =    1.300    factor for augmentation sphere                                              
   RDEP   =    2.393    radius for radial grids                                                     
   RDEPT  =    1.864    core radius for aug-charge                                                  
                                                                                                    
   Atomic configuration                                                                             
    9 entries                                                                                       
     n  l   j            E        occ.                                                              
     1  0  0.50     -7587.6674   2.0000                                                             
     2  0  0.50      -893.6084   2.0000                                                             
     2  1  1.50      -764.5805   6.0000                                                             
     3  0  0.50       -97.5973   2.0000                                                             
     3  1  1.50       -60.9648   6.0000                                                             
     3  2  2.50        -4.2382   8.0000                                                             
     4  0  0.50        -4.3746   1.0000                                                             
     4  1  1.50        -4.0817   0.0000                                                             
     4  3  2.50        -1.3606   0.0000                                                             
   Description                                                                                      
     l       E           TYP  RCUT    TYP  RCUT                                                     
     2     -4.2382362     23  2.300                                                                 
     2     -5.5988188     23  2.300                                                                 
     0     -4.3745797     23  2.300                                                                 
     0      5.7660125     23  2.300                                                                 
     1     -2.7211652     23  2.300                                                                 
     1     16.9860234     23  2.300                                                                 
  local pseudopotential read in
  partial core-charges read in
  partial kinetic energy density read in
  atomic valenz-charges read in
  non local Contribution for L=           2  read in
    real space projection operators read in
  non local Contribution for L=           2  read in
    real space projection operators read in
  non local Contribution for L=           0  read in
    real space projection operators read in
  non local Contribution for L=           0  read in
    real space projection operators read in
  non local Contribution for L=           1  read in
    real space projection operators read in
  non local Contribution for L=           1  read in
    real space projection operators read in
    PAW grid and wavefunctions read in
 
   number of l-projection  operators is LMAX  =           6
   number of lm-projection operators is LMMAX =          18
 
 POTCAR:    PAW_PBE O 08Apr2002                   
   VRHFIN =O: s2p4                                                                                  
   LEXCH  = PE                                                                                      
   EATOM  =   432.3788 eV,   31.7789 Ry                                                             
                                                                                                    
   TITEL  = PAW_PBE O 08Apr2002                                                                     
   LULTRA =        F    use ultrasoft PP ?                                                          
   IUNSCR =        1    unscreen: 0-lin 1-nonlin 2-no                                               
   RPACOR =    1.200    partial core radius                                                         
   POMASS =   16.000; ZVAL   =    6.000    mass and valenz                                          
   RCORE  =    1.520    outmost cutoff radius                                                       
   RWIGS  =    1.550; RWIGS  =    0.820    wigner-seitz radius (au A)                               
   ENMAX  =  400.000; ENMIN  =  300.000 eV                                                          
   ICORE  =        2    local potential                                                             
   LCOR   =        T    correct aug charges                                                         
   LPAW   =        T    paw PP                                                                      
   EAUG   =  605.392                                                                                
   DEXC   =    0.000                                                                                
   RMAX   =    1.553    core radius for proj-oper                                                   
   RAUG   =    1.300    factor for augmentation sphere                                              
   RDEP   =    1.550    radius for radial grids                                                     
   RDEPT  =    1.329    core radius for aug-charge                                                  
                                                                                                    
   Atomic configuration                                                                             
    4 entries                                                                                       
     n  l   j            E        occ.                                                              
     1  0  0.50      -514.6923   2.0000                                                             
     2  0  0.50       -23.9615   2.0000                                                             
     2  1  0.50        -9.0305   4.0000                                                             
     3  2  1.50        -9.5241   0.0000                                                             
   Description                                                                                      
     l       E           TYP  RCUT    TYP  RCUT                                                     
     0    -23.9615318     23  1.200                                                                 
     0     -9.5240782     23  1.200                                                                 
     1     -9.0304911     23  1.520                                                                 
     1      8.1634956     23  1.520                                                                 
     2     -9.5240782      7  1.500                                                                 
  local pseudopotential read in
  partial core-charges read in
  partial kinetic energy density read in
  kinetic energy density of atom read in
  atomic valenz-charges read in
  non local Contribution for L=           0  read in
    real space projection operators read in
  non local Contribution for L=           0  read in
    real space projection operators read in
  non local Contribution for L=           1  read in
    real space projection operators read in
  non local Contribution for L=           1  read in
    real space projection operators read in
    PAW grid and wavefunctions read in
 
   number of l-projection  operators is LMAX  =           4
   number of lm-projection operators is LMMAX =           8
 
 Optimization of the real space projectors (new method)

 maximal supplied QI-value         = 15.12
 optimisation between [QCUT,QGAM] = [ 11.34, 22.83] = [ 36.00,145.93] Ry 
 Optimized for a Real-space Cutoff    1.43 Angstroem

   l    n(q)    QCUT    max X(q) W(low)/X(q) W(high)/X(q)  e(spline) 
   2      9    11.338    53.897    0.16E-03    0.20E-03    0.28E-06
   2      9    11.338    52.416    0.16E-03    0.20E-03    0.29E-06
   0     10    11.338   122.045    0.31E-04    0.76E-04    0.15E-06
   0     10    11.338    73.629    0.30E-04    0.72E-04    0.15E-06
   1      9    11.338    15.255    0.20E-03    0.19E-04    0.17E-06
   1      9    11.338     9.562    0.16E-03    0.15E-04    0.14E-06
 Optimization of the real space projectors (new method)

 maximal supplied QI-value         = 16.25
 optimisation between [QCUT,QGAM] = [ 11.38, 22.75] = [ 36.24,144.96] Ry 
 Optimized for a Real-space Cutoff    1.39 Angstroem

   l    n(q)    QCUT    max X(q) W(low)/X(q) W(high)/X(q)  e(spline) 
   2      8    11.376    65.824    0.20E-03    0.32E-04    0.13E-06
   2      8    11.376    61.429    0.20E-03    0.33E-04    0.14E-06
   0      9    11.376    56.174    0.76E-04    0.11E-03    0.19E-06
   0      9    11.376    31.263    0.69E-04    0.99E-04    0.17E-06
   1      9    11.376    19.828    0.35E-03    0.11E-03    0.12E-06
   1      9    11.376    15.139    0.29E-03    0.94E-04    0.10E-06
 Optimization of the real space projectors (new method)

 maximal supplied QI-value         = 24.76
 optimisation between [QCUT,QGAM] = [ 11.39, 22.77] = [ 36.31,145.25] Ry 
 Optimized for a Real-space Cutoff    1.00 Angstroem

   l    n(q)    QCUT    max X(q) W(low)/X(q) W(high)/X(q)  e(spline) 
   0      7    11.387    20.381    0.39E-03    0.13E-02    0.15E-06
   0      7    11.387    15.268    0.42E-03    0.14E-02    0.17E-06
   1      6    11.387     5.964    0.41E-03    0.11E-02    0.17E-06
   1      6    11.387     5.382    0.39E-03    0.87E-03    0.15E-06
  PAW_PBE Ag 02Apr2005                  :
 energy of atom  1       EATOM=-1037.2675
 kinetic energy error for atom=    0.0052 (will be added to EATOM!!)
  PAW_PBE Co 02Aug2007                  :
 energy of atom  2       EATOM= -813.3670
 kinetic energy error for atom=    0.0028 (will be added to EATOM!!)
  PAW_PBE O 08Apr2002                   :
 energy of atom  3       EATOM= -432.3788
 kinetic energy error for atom=    0.0224 (will be added to EATOM!!)
 
 
 POSCAR: Ag-Co-O
  positions in direct lattice
  velocities in cartesian coordinates
 exchange correlation table for  LEXCH =        8
   RHO(1)=    0.500       N(1)  =     2000
   RHO(2)=  100.500       N(2)  =     4000

 VTST: version 3.2, (02/03/18)

 CHAIN: initializing optimizer
 
 OPT: Using VASP Conjugate-Gradient optimizer
 CHAIN: Read ICHAIN            0
 
 POSCAR: Ag-Co-O
  positions in direct lattice
  velocities in cartesian coordinates
 


--------------------------------------------------------------------------------------------------------


 ion  position               nearest neighbor table
   1  0.000  0.000  0.238-   2 2.93   8 2.93   7 2.93   6 2.93   4 2.93  12 2.93  16 2.93  10 2.93
                             3 2.93
   2  0.333  0.000  0.238-   1 2.93   8 2.93   9 2.93   3 2.93   4 2.93   5 2.93  10 2.93  17 2.93
                            11 2.93
   3  0.667  0.000  0.238-   9 2.93   2 2.93   5 2.93  11 2.93   7 2.93  18 2.93   1 2.93   6 2.93
                            12 2.93
   4  0.000  0.333  0.238-   5 2.93   6 2.93   2 2.93   1 2.93   7 2.93  13 2.93  15 2.93   9 2.93
                            10 2.93
   5  0.333  0.333  0.238-   4 2.93   3 2.93   7 2.93   2 2.93   8 2.93  14 2.93  13 2.93  11 2.93
                             6 2.93
   6  0.667  0.333  0.238-   4 2.93   9 2.93   1 2.93  15 2.93   8 2.93  12 2.93   3 2.93   5 2.93
                            14 2.93
   7  0.000  0.667  0.238-   8 2.93   1 2.93   5 2.93   3 2.93   4 2.93  16 2.93  18 2.93  13 2.93
                             9 2.93
   8  0.333  0.667  0.238-   7 2.93   1 2.93   2 2.93   9 2.93   5 2.93  16 2.93   6 2.93  17 2.93
                            14 2.93
   9  0.667  0.667  0.238-   3 2.93   2 2.93   8 2.93   6 2.93  17 2.93   4 2.93  15 2.93   7 2.93
                            18 2.93
  10  0.111  0.111  0.346-  20 2.92  19 2.93  26 2.93  12 2.93  16 2.93  15 2.93  17 2.93  13 2.93
                            11 2.93   2 2.93   1 2.93   4 2.93
  11  0.444  0.111  0.346-  21 2.90  20 2.90  27 2.92  14 2.93  17 2.93  18 2.93   3 2.93  12 2.93
                            13 2.93  10 2.93   5 2.93   2 2.93
  12  0.778  0.111  0.346-  21 2.92  25 2.93  19 2.93  10 2.93  16 2.93  18 2.93  15 2.93  11 2.93
                             1 2.93  14 2.93   6 2.93   3 2.93
  13  0.111  0.444  0.346-  20 2.90  23 2.90  22 2.92  15 2.93  14 2.93  18 2.93  10 2.93  11 2.93
                            16 2.93   4 2.93   5 2.93   7 2.93
  14  0.444  0.444  0.346-  23 2.90  21 2.90  24 2.92  13 2.93  11 2.93  16 2.93   5 2.93  12 2.93
                            17 2.93   8 2.93  15 2.93   6 2.93
  15  0.778  0.444  0.346-  24 2.91  22 2.91  19 2.92  13 2.93  10 2.93  12 2.93  17 2.93  18 2.93
                             4 2.93   6 2.93   9 2.93  14 2.93
  16  0.111  0.778  0.346-  23 2.92  26 2.93  25 2.93  18 2.93  12 2.93  10 2.93  14 2.93  17 2.93
                            13 2.93   7 2.93   8 2.93   1 2.93
  17  0.444  0.778  0.346-  27 2.91  24 2.91  26 2.92  11 2.93  10 2.93   9 2.93  18 2.93  15 2.93
                            16 2.93   2 2.93  14 2.93   8 2.93
  18  0.778  0.778  0.346-  22 2.91  27 2.91  25 2.92  16 2.93  12 2.93  13 2.93  11 2.93  17 2.93
                            15 2.93   7 2.93   3 2.93   9 2.93
  19  0.889  0.222  0.454-  28 2.91  15 2.92  10 2.93  12 2.93  24 2.93  22 2.93  26 2.93  25 2.93
                            32 2.94  31 2.94  20 2.94  21 2.94
  20  0.223  0.223  0.453-  36 2.69  31 2.89  29 2.89  13 2.90  11 2.90  21 2.91  23 2.91  10 2.92
                            27 2.93  22 2.93  19 2.94  26 2.94
  21  0.554  0.223  0.453-  36 2.69  30 2.89  32 2.89  11 2.90  14 2.90  20 2.91  23 2.91  12 2.92
                            27 2.93  24 2.93  25 2.94  19 2.94
  22  0.888  0.556  0.453-  35 2.91  33 2.91  31 2.91  18 2.91  15 2.91  13 2.92  24 2.92  27 2.92
                            25 2.93  19 2.93  23 2.93  20 2.93
  23  0.223  0.554  0.453-  36 2.69  34 2.89  33 2.89  14 2.90  13 2.90  21 2.91  20 2.91  16 2.92
                            22 2.93  24 2.93  26 2.94  25 2.94
  24  0.556  0.556  0.453-  35 2.91  32 2.91  34 2.91  15 2.91  17 2.91  14 2.92  27 2.92  22 2.92
                            19 2.93  26 2.93  23 2.93  21 2.93
  25  0.889  0.889  0.454-  28 2.91  18 2.92  16 2.93  12 2.93  22 2.93  27 2.93  26 2.93  19 2.93
                            33 2.94  30 2.94  23 2.94  21 2.94
  26  0.222  0.889  0.454-  28 2.91  17 2.92  16 2.93  10 2.93  27 2.93  24 2.93  25 2.93  19 2.93
                            34 2.94  29 2.94  23 2.94  20 2.94
  27  0.556  0.888  0.453-  35 2.91  29 2.91  30 2.91  17 2.91  18 2.91  11 2.92  24 2.92  22 2.92
                            26 2.93  25 2.93  20 2.93  21 2.93
  28  0.000  0.000  0.560-  26 2.91  25 2.91  19 2.91  29 2.97  34 2.97  33 2.97  32 2.97  31 2.97
                            30 2.97
  29  0.333  0.008  0.560-  31 2.86  30 2.86  36 2.87  20 2.89  27 2.91  26 2.94  28 2.97  35 2.97
                            34 3.07
  30  0.659  0.008  0.560-  32 2.86  29 2.86  36 2.87  21 2.89  27 2.91  25 2.94  28 2.97  35 2.97
                            33 3.07
  31  0.008  0.333  0.560-  29 2.86  33 2.86  36 2.87  20 2.89  22 2.91  19 2.94  28 2.97  35 2.97
                            32 3.07
  32  0.659  0.333  0.560-  30 2.86  34 2.86  36 2.87  21 2.89  24 2.91  19 2.94  28 2.97  35 2.97
                            31 3.07
  33  0.008  0.659  0.560-  34 2.86  31 2.86  36 2.87  23 2.89  22 2.91  25 2.94  28 2.97  35 2.97
                            30 3.07
  34  0.333  0.659  0.560-  33 2.86  32 2.86  36 2.87  23 2.89  24 2.91  26 2.94  28 2.97  35 2.97
                            29 3.07
  35  0.667  0.667  0.560-  24 2.91  27 2.91  22 2.91  32 2.97  30 2.97  29 2.97  34 2.97  31 2.97
                            33 2.97
  36  0.333  0.333  0.547-  37 1.63  21 2.69  20 2.69  23 2.69  31 2.87  30 2.87  33 2.87  29 2.87
                            34 2.87  32 2.87
  37  0.333  0.333  0.621-  36 1.63
 
  LATTYP: Found a hexagonal cell.
 ALAT       =     8.7913665772
 C/A-ratio  =     2.5227160501
  
  Lattice vectors:
  
 A1 = (  -4.3956832886,  -7.6135467898,   0.0000000000)
 A2 = (   8.7913665771,   0.0000000000,   0.0000000000)
 A3 = (   0.0000000000,   0.0000000000,  22.1781215668)


Analysis of symmetry for initial positions (statically):
=====================================================================
 Subroutine PRICEL returns:
 Original cell was already a primitive cell.
 

 Routine SETGRP: Setting up the symmetry group for a 
 hexagonal supercell.


 Subroutine GETGRP returns: Found  6 space group operations
 (whereof  6 operations were pure point group operations)
 out of a pool of 24 trial point group operations.


The static configuration has the point symmetry C_3v.


Analysis of symmetry for dynamics (positions and initial velocities):
=====================================================================
 Subroutine PRICEL returns:
 Original cell was already a primitive cell.
 

 Routine SETGRP: Setting up the symmetry group for a 
 hexagonal supercell.


 Subroutine GETGRP returns: Found  6 space group operations
 (whereof  6 operations were pure point group operations)
 out of a pool of 24 trial point group operations.


The dynamic configuration has the point symmetry C_3v.


Analysis of constrained symmetry for selective dynamics:
=====================================================================
 Subroutine PRICEL returns:
 Original cell was already a primitive cell.
 

 Routine SETGRP: Setting up the symmetry group for a 
 hexagonal supercell.


 Subroutine GETGRP returns: Found  6 space group operations
 (whereof  6 operations were pure point group operations)
 out of a pool of 24 trial point group operations.


The constrained configuration has the point symmetry C_3v.


 Subroutine INISYM returns: Found  6 space group operations
 (whereof  6 operations are pure point group operations),
 and found     1 'primitive' translations


----------------------------------------------------------------------------------------

                                     Primitive cell                                     

  volume of cell :    1484.4589

  direct lattice vectors                    reciprocal lattice vectors
     8.791366577  0.000000000  0.000000000     0.113747958 -0.065672414  0.000000000
     4.395683289  7.613546790  0.000000000     0.000000000  0.131344829  0.000000000
     0.000000000  0.000000000 22.178121567     0.000000000  0.000000000  0.045089481

  length of vectors
     8.791366577  8.791366577 22.178121567     0.131344829  0.131344829  0.045089481

  position of ions in fractional coordinates (direct lattice)
     0.000000000  0.000000000  0.238171124
     0.333333313  0.000000000  0.238171124
     0.666666627  0.000000000  0.238171124
     0.000000000  0.333333343  0.238171124
     0.333333313  0.333333343  0.238171124
     0.666666687  0.333333343  0.238171124
     0.000000000  0.666666687  0.238171124
     0.333333313  0.666666687  0.238171124
     0.666666627  0.666666687  0.238171124
     0.111111104  0.111111112  0.346057051
     0.444444448  0.111111112  0.346057051
     0.777777791  0.111111112  0.346057051
     0.111111097  0.444444448  0.346057051
     0.444444418  0.444444448  0.346057051
     0.777777791  0.444444448  0.346057051
     0.111111104  0.777777791  0.346057051
     0.444444448  0.777777791  0.346057051
     0.777777791  0.777777791  0.346057051
     0.888752503  0.222495009  0.453681489
     0.223120888  0.223120903  0.452661462
     0.553758163  0.223120903  0.452661462
     0.888275417  0.555862322  0.453145952
     0.223120903  0.553758223  0.452661462
     0.555862322  0.555862322  0.453145952
     0.888752503  0.888752503  0.453681489
     0.222494979  0.888752503  0.453681489
     0.555862262  0.888275417  0.453145952
     0.000000000  0.000000000  0.560264796
     0.333222951  0.008221705  0.559989515
     0.658555284  0.008221705  0.559989515
     0.008221705  0.333222981  0.559989515
     0.658555344  0.333222981  0.559989515
     0.008221705  0.658555344  0.559989515
     0.333222951  0.658555344  0.559989515
     0.666666627  0.666666687  0.560068399
     0.333333313  0.333333343  0.547183351
     0.333333313  0.333333343  0.620579864

  ion indices of the primitive-cell ions
   primitive index   ion index
                 1           1
                 2           2
                 3           3
                 4           4
                 5           5
                 6           6
                 7           7
                 8           8
                 9           9
                10          10
                11          11
                12          12
                13          13
                14          14
                15          15
                16          16
                17          17
                18          18
                19          19
                20          20
                21          21
                22          22
                23          23
                24          24
                25          25
                26          26
                27          27
                28          28
                29          29
                30          30
                31          31
                32          32
                33          33
                34          34
                35          35
                36          36
                37          37

----------------------------------------------------------------------------------------

 
 
 KPOINTS: Automatic mesh                          

Automatic generation of k-mesh.
 Grid dimensions read from file:
 generate k-points for:    8    8    1

 Generating k-lattice:

  Cartesian coordinates                     Fractional coordinates (reciprocal lattice)
     0.014218495 -0.008209052  0.000000000     0.125000000  0.000000000  0.000000000
     0.000000000  0.016418104  0.000000000     0.000000000  0.125000000  0.000000000
     0.000000000  0.000000000  0.045089481     0.000000000  0.000000000  1.000000000

  Length of vectors
     0.016418104  0.016418104  0.045089481

  Shift w.r.t. Gamma in fractional coordinates (k-lattice)
     0.000000000  0.000000000  0.000000000

 TETIRR: Found     36 inequivalent tetrahedra from      384
 
 Subroutine IBZKPT returns following result:
 ===========================================
 
 Found     10 irreducible k-points:
 
 Following reciprocal coordinates:
            Coordinates               Weight
  0.000000  0.000000  0.000000      1.000000
  0.125000 -0.000000  0.000000      6.000000
  0.250000 -0.000000  0.000000      6.000000
  0.375000 -0.000000  0.000000      6.000000
  0.500000 -0.000000  0.000000      3.000000
  0.250000  0.125000  0.000000      6.000000
  0.375000  0.125000  0.000000     12.000000
  0.500000  0.125000  0.000000     12.000000
  0.500000  0.250000  0.000000      6.000000
 -0.375000  0.250000  0.000000      6.000000
 
 Following cartesian coordinates:
            Coordinates               Weight
  0.000000  0.000000  0.000000      1.000000
  0.014218 -0.008209  0.000000      6.000000
  0.028437 -0.016418  0.000000      6.000000
  0.042655 -0.024627  0.000000      6.000000
  0.056874 -0.032836  0.000000      3.000000
  0.028437 -0.000000  0.000000      6.000000
  0.042655 -0.008209  0.000000     12.000000
  0.056874 -0.016418  0.000000     12.000000
  0.056874 -0.000000  0.000000      6.000000
 -0.042655  0.057463  0.000000      6.000000
 


--------------------------------------------------------------------------------------------------------




 Dimension of arrays:
   k-points           NKPTS =     10   k-points in BZ     NKDIM =     10   number of bands    NBANDS=    252
   number of dos      NEDOS =    301   number of ions     NIONS =     37
   non local maximal  LDIM  =      6   non local SUM 2l+1 LMDIM =     18
   total plane-waves  NPLWV = 290304
   max r-space proj   IRMAX =   2452   max aug-charges    IRDMAX=   9814
   dimension x,y,z NGX =    48 NGY =   48 NGZ =  126
   dimension x,y,z NGXF=    96 NGYF=   96 NGZF=  252
   support grid    NGXF=    96 NGYF=   96 NGZF=  252
   ions per type =              35   1   1
   NGX,Y,Z   is equivalent  to a cutoff of   9.08,  9.08,  9.44 a.u.
   NGXF,Y,Z  is equivalent  to a cutoff of  18.15, 18.15, 18.89 a.u.

 SYSTEM =  unknown system                          
 POSCAR =  Ag-Co-O                                 

 Startparameter for this run:
   NWRITE =      2    write-flag & timer
   PREC   = normal    normal or accurate (medium, high low for compatibility)
   ISTART =      0    job   : 0-new  1-cont  2-samecut
   ICHARG =     11    charge: 1-file 2-atom 10-const
   ISPIN  =      1    spin polarized calculation?
   LNONCOLLINEAR =      F non collinear calculations
   LSORBIT =      F    spin-orbit coupling
   INIWAV =      1    electr: 0-lowe 1-rand  2-diag
   LASPH  =      F    aspherical Exc in radial PAW
   METAGGA=      F    non-selfconsistent MetaGGA calc.

 Electronic Relaxation 1
   ENCUT  =  500.0 eV  36.75 Ry    6.06 a.u.  16.03 16.03 40.44*2*pi/ulx,y,z
   ENINI  =  500.0     initial cutoff
   ENAUG  =  605.4 eV  augmentation charge cutoff
   NELM   =    150;   NELMIN=  2; NELMDL= -5     # of ELM steps 
   EDIFF  = 0.1E-04   stopping-criterion for ELM
   LREAL  =      T    real-space projection
   NLSPLINE    = F    spline interpolate recip. space projectors
   LCOMPAT=      F    compatible to vasp.4.4
   GGA_COMPAT  = T    GGA compatible to vasp.4.4-vasp.4.6
   LMAXPAW     = -100 max onsite density
   LMAXMIX     =    2 max onsite mixed and CHGCAR
   VOSKOWN=      0    Vosko Wilk Nusair interpolation
   ROPT   =   -0.00050  -0.00050  -0.00050
 Ionic relaxation
   EDIFFG = -.1E-01   stopping-criterion for IOM
   NSW    =      0    number of steps for IOM
   NBLOCK =      1;   KBLOCK =      1    inner block; outer block 
   IBRION =     -1    ionic relax: 0-MD 1-quasi-New 2-CG
   NFREE  =      1    steps in history (QN), initial steepest desc. (CG)
   ISIF   =      2    stress and relaxation
   IWAVPR =     10    prediction:  0-non 1-charg 2-wave 3-comb
   ISYM   =      2    0-nonsym 1-usesym 2-fastsym
   LCORR  =      T    Harris-Foulkes like correction to forces

   POTIM  = 0.5000    time-step for ionic-motion
   TEIN   =    0.0    initial temperature
   TEBEG  =    0.0;   TEEND  =   0.0 temperature during run
   SMASS  =  -3.00    Nose mass-parameter (am)
   estimated Nose-frequenzy (Omega)   =  0.10E-29 period in steps = 0.13E+47 mass=  -0.177E-26a.u.
   SCALEE = 1.0000    scale energy and forces
   NPACO  =    256;   APACO  = 16.0  distance and # of slots for P.C.
   PSTRESS=    0.0 pullay stress

  Mass of Ions in am
   POMASS = 107.87 58.93 16.00
  Ionic Valenz
   ZVAL   =  11.00  9.00  6.00
  Atomic Wigner-Seitz radii
   RWIGS  =  -1.00 -1.00 -1.00
  virtual crystal weights 
   VCA    =   1.00  1.00  1.00
   NELECT =     400.0000    total number of electrons
   NUPDOWN=      -1.0000    fix difference up-down

 DOS related values:
   EMIN   =  10.00;   EMAX   =-10.00  energy-range for DOS
   EFERMI =   0.00
   ISMEAR =    -5;   SIGMA  =   0.10  broadening in eV -4-tet -1-fermi 0-gaus

 Electronic relaxation 2 (details)
   IALGO  =     68    algorithm
   LDIAG  =      T    sub-space diagonalisation (order eigenvalues)
   LSUBROT=      F    optimize rotation matrix (better conditioning)
   TURBO    =      0    0=normal 1=particle mesh
   IRESTART =      0    0=no restart 2=restart with 2 vectors
   NREBOOT  =      0    no. of reboots
   NMIN     =      0    reboot dimension
   EREF     =   0.00    reference energy to select bands
   IMIX   =      4    mixing-type and parameters
     AMIX     =   0.40;   BMIX     =  1.00
     AMIX_MAG =   1.60;   BMIX_MAG =  1.00
     AMIN     =   0.10
     WC   =   100.;   INIMIX=   1;  MIXPRE=   1;  MAXMIX= -45

 Intra band minimization:
   WEIMIN = 0.0000     energy-eigenvalue tresh-hold
   EBREAK =  0.99E-08  absolut break condition
   DEPER  =   0.30     relativ break condition  

   TIME   =   0.40     timestep for ELM

  volume/ion in A,a.u.               =      40.12       270.75
  Fermi-wavevector in a.u.,A,eV,Ry     =   1.057399  1.998194 15.212565  1.118092
  Thomas-Fermi vector in A             =   2.192670
 
 Write flags
   LWAVE        =      F    write WAVECAR
   LDOWNSAMPLE  =      F    k-point downsampling of WAVECAR
   LCHARG       =      F    write CHGCAR
   LVTOT        =      F    write LOCPOT, total local potential
   LVHAR        =      F    write LOCPOT, Hartree potential only
   LELF         =      F    write electronic localiz. function (ELF)
   LORBIT       =     10    0 simple, 1 ext, 2 COOP (PROOUT), +10 PAW based schemes


 Dipole corrections
   LMONO  =      F    monopole corrections only (constant potential shift)
   LDIPOL =      F    correct potential (dipole corrections)
   IDIPOL =      0    1-x, 2-y, 3-z, 4-all directions 
   EPSILON=  1.0000000 bulk dielectric constant

 Exchange correlation treatment:
   GGA     =    --    GGA type
   LEXCH   =     8    internal setting for exchange type
   VOSKOWN=      0    Vosko Wilk Nusair interpolation
   LHFCALC =     F    Hartree Fock is set to
   LHFONE  =     F    Hartree Fock one center treatment
   AEXX    =    0.0000 exact exchange contribution

 Linear response parameters
   LEPSILON=     F    determine dielectric tensor
   LRPA    =     F    only Hartree local field effects (RPA)
   LNABLA  =     F    use nabla operator in PAW spheres
   LVEL    =     F    velocity operator in full k-point grid
   LINTERFAST=   F  fast interpolation
   KINTER  =     0    interpolate to denser k-point grid
   CSHIFT  =0.1000    complex shift for real part using Kramers Kronig
   OMEGAMAX=  -1.0    maximum frequency
   DEG_THRESHOLD= 0.2000000E-02 threshold for treating states as degnerate
   RTIME   =   -0.100 relaxation time in fs
  (WPLASMAI=    0.000 imaginary part of plasma frequency in eV, 0.658/RTIME)
   DFIELD  = 0.0000000 0.0000000 0.0000000 field for delta impulse in time
 
 Orbital magnetization related:
   ORBITALMAG=     F  switch on orbital magnetization
   LCHIMAG   =     F  perturbation theory with respect to B field
   DQ        =  0.001000  dq finite difference perturbation B field
   LLRAUG    =     F  two centre corrections for induced B field



--------------------------------------------------------------------------------------------------------


 Static calculation
 charge density and potential remain constant during run
 non-spin polarized calculation
 RMM-DIIS sequential band-by-band and
  variant of blocked Davidson during initial phase
 perform sub-space diagonalisation
    before iterative eigenvector-optimisation
 no mixing
 using additional bands           52
 real space projection scheme for non local part
 use partial core corrections
 calculate Harris-corrections to forces 
   (improved forces if not selfconsistent)
 use gradient corrections 
 WARNING: stress and forces are not correct
  (second derivative of E(xc) not defined)
 use of overlap-Matrix (Vanderbilt PP)
 Fermi weights with tetrahedron method with Bloechl corrections


--------------------------------------------------------------------------------------------------------


  energy-cutoff  :      500.00
  volume of cell :     1484.46
      direct lattice vectors                 reciprocal lattice vectors
     8.791366577  0.000000000  0.000000000     0.113747958 -0.065672414  0.000000000
     4.395683289  7.613546790  0.000000000     0.000000000  0.131344829  0.000000000
     0.000000000  0.000000000 22.178121567     0.000000000  0.000000000  0.045089481

  length of vectors
     8.791366577  8.791366577 22.178121567     0.131344829  0.131344829  0.045089481


 
 k-points in units of 2pi/SCALE and weight: Automatic mesh                          
   0.00000000  0.00000000  0.00000000       0.016
   0.01421849 -0.00820905  0.00000000       0.094
   0.02843699 -0.01641810  0.00000000       0.094
   0.04265548 -0.02462716  0.00000000       0.094
   0.05687398 -0.03283621  0.00000000       0.047
   0.02843699 -0.00000000  0.00000000       0.094
   0.04265548 -0.00820905  0.00000000       0.188
   0.05687398 -0.01641810  0.00000000       0.188
   0.05687398 -0.00000000  0.00000000       0.094
  -0.04265548  0.05746336  0.00000000       0.094
 
 k-points in reciprocal lattice and weights: Automatic mesh                          
   0.00000000  0.00000000  0.00000000       0.016
   0.12500000 -0.00000000  0.00000000       0.094
   0.25000000 -0.00000000  0.00000000       0.094
   0.37500000 -0.00000000  0.00000000       0.094
   0.50000000 -0.00000000  0.00000000       0.047
   0.25000000  0.12500000  0.00000000       0.094
   0.37500000  0.12500000  0.00000000       0.188
   0.50000000  0.12500000  0.00000000       0.188
   0.50000000  0.25000000  0.00000000       0.094
  -0.37500000  0.25000000  0.00000000       0.094
 
 position of ions in fractional coordinates (direct lattice) 
   0.00000000  0.00000000  0.23817112
   0.33333331  0.00000000  0.23817112
   0.66666663  0.00000000  0.23817112
   0.00000000  0.33333334  0.23817112
   0.33333331  0.33333334  0.23817112
   0.66666669  0.33333334  0.23817112
   0.00000000  0.66666669  0.23817112
   0.33333331  0.66666669  0.23817112
   0.66666663  0.66666669  0.23817112
   0.11111110  0.11111111  0.34605705
   0.44444445  0.11111111  0.34605705
   0.77777779  0.11111111  0.34605705
   0.11111110  0.44444445  0.34605705
   0.44444442  0.44444445  0.34605705
   0.77777779  0.44444445  0.34605705
   0.11111110  0.77777779  0.34605705
   0.44444445  0.77777779  0.34605705
   0.77777779  0.77777779  0.34605705
   0.88875250  0.22249501  0.45368149
   0.22312089  0.22312090  0.45266146
   0.55375816  0.22312090  0.45266146
   0.88827542  0.55586232  0.45314595
   0.22312090  0.55375822  0.45266146
   0.55586232  0.55586232  0.45314595
   0.88875250  0.88875250  0.45368149
   0.22249498  0.88875250  0.45368149
   0.55586226  0.88827542  0.45314595
   0.00000000  0.00000000  0.56026480
   0.33322295  0.00822170  0.55998951
   0.65855528  0.00822170  0.55998951
   0.00822170  0.33322298  0.55998951
   0.65855534  0.33322298  0.55998951
   0.00822170  0.65855534  0.55998951
   0.33322295  0.65855534  0.55998951
   0.66666663  0.66666669  0.56006840
   0.33333331  0.33333334  0.54718335
   0.33333331  0.33333334  0.62057986
 
 position of ions in cartesian coordinates  (Angst):
   0.00000000  0.00000000  5.28218814
   2.93045535  0.00000000  5.28218814
   5.86091070  0.00000000  5.28218814
   1.46522781  2.53784900  5.28218814
   4.39568315  2.53784900  5.28218814
   7.32613904  2.53784900  5.28218814
   2.93045562  5.07569801  5.28218814
   5.86091096  5.07569801  5.28218814
   8.79136632  5.07569801  5.28218814
   1.46522770  0.84594965  7.67489535
   4.39568332  0.84594965  7.67489535
   7.32613893  0.84594965  7.67489535
   2.93045542  3.38379860  7.67489535
   5.86091083  3.38379860  7.67489535
   8.79136671  3.38379860  7.67489535
   4.39568328  5.92164760  7.67489535
   7.32613890  5.92164760  7.67489535
  10.25659451  5.92164760  7.67489535
   8.79136665  1.69397616 10.06180321
   2.94230635  1.69874144 10.03918093
   5.84905984  1.69874144 10.03918093
  10.25254953  4.23208379 10.04992602
   4.39568342  4.21606414 10.03918093
   7.33018415  4.23208379 10.04992602
  11.72002358  6.76655877 10.06180321
   5.86270945  6.76655877 10.06180321
   8.79136631  6.76292645 10.04992602
   0.00000000  0.00000000 12.42562075
   2.96562513  0.06259633 12.41951554
   5.82574092  0.06259633 12.41951554
   1.53702271  2.53700876 12.41951554
   7.25434413  2.53700876 12.41951554
   2.96708074  5.01394193 12.41951554
   5.82428584  5.01394193 12.41951554
   8.79136632  5.07569801 12.42126504
   4.39568315  2.53784900 12.13549887
   4.39568315  2.53784900 13.76329566
 


--------------------------------------------------------------------------------------------------------


 k-point   1 :   0.0000 0.0000 0.0000  plane waves:   37683
 k-point   2 :   0.1250-0.0000 0.0000  plane waves:   37658
 k-point   3 :   0.2500-0.0000 0.0000  plane waves:   37682
 k-point   4 :   0.3750-0.0000 0.0000  plane waves:   37686
 k-point   5 :   0.5000-0.0000 0.0000  plane waves:   37668
 k-point   6 :   0.2500 0.1250 0.0000  plane waves:   37666
 k-point   7 :   0.3750 0.1250 0.0000  plane waves:   37708
 k-point   8 :   0.5000 0.1250 0.0000  plane waves:   37726
 k-point   9 :   0.5000 0.2500 0.0000  plane waves:   37706
 k-point  10 :  -0.3750 0.2500 0.0000  plane waves:   37686

 maximum and minimum number of plane-waves per node :     37726    37658

 maximum number of plane-waves:     37726
 maximum index in each direction: 
   IXMAX=   16   IYMAX=   16   IZMAX=   40
   IXMIN=  -16   IYMIN=  -16   IZMIN=  -40


 serial   3D FFT for wavefunctions
 parallel 3D FFT for charge:
    minimum data exchange during FFTs selected (reduces bandwidth)


 total amount of memory used by VASP MPI-rank0   122908. kBytes
=======================================================================

   base      :      30000. kBytes
   nonlr-proj:      14805. kBytes
   fftplans  :       4330. kBytes
   grid      :      17879. kBytes
   one-center:        575. kBytes
   wavefun   :      55319. kBytes
 
     INWAV:  cpu time    0.0000: real time    0.0000
 initial charge density was supplied:
 number of electron     399.9999931 magnetization 
 keeping initial charge density in first step


--------------------------------------------------------------------------------------------------------


 Maximum index for non-local projection operator         2351
 Maximum index for augmentation-charges          703 (set IRDMAX)


--------------------------------------------------------------------------------------------------------


 First call to EWALD:  gamma=   0.155
 Maximum number of real-space cells 4x 4x 2
 Maximum number of reciprocal cells 2x 2x 5

    FEWALD:  cpu time    0.0013: real time    0.0013


--------------------------------------- Iteration      1(   1)  ---------------------------------------


    POTLOK:  cpu time    0.0532: real time    0.0537
    SETDIJ:  cpu time    0.0045: real time    0.0045
     EDDAV:  cpu time    7.1701: real time    7.1715
 BZINTS: Fermi energy:    9.498214;  400.000000 electrons
         Band energy: 0.124034E+04;  BLOECHL correction:   -0.015118
       DOS:  cpu time    0.0104: real time    0.0105
    --------------------------------------------
      LOOP:  cpu time    7.2381: real time    7.2401

 eigenvalue-minimisations  :  5040
 total energy-change (2. order) : 0.2475373E+04  (-0.1853964E+05)
 number of electron     399.9999931 magnetization 
 augmentation part      399.9999931 magnetization 

 Free energy of the ion-electron system (eV)
  ---------------------------------------------------
  alpha Z        PSCENC =       748.18049628
  Ewald energy   TEWEN  =     99390.13861751
  -Hartree energ DENC   =   -137590.13265694
  -exchange      EXHF   =         0.00000000
  -V(xc)+E(xc)   XCENC  =      -345.91400943
  PAW double counting   =     39639.21405880   -38156.35883500
  entropy T*S    EENTRO =         0.00000000
  eigenvalues    EBANDS =      1240.34414125
  atomic energy  EATOM  =     37549.90144053
  Solvation  Ediel_sol  =         0.00000000
  ---------------------------------------------------
  free energy    TOTEN  =      2475.37325301 eV

  energy without entropy =     2475.37325301  energy(sigma->0) =     2475.37325301


--------------------------------------------------------------------------------------------------------




--------------------------------------- Iteration      1(   2)  ---------------------------------------


     EDDAV:  cpu time    7.4696: real time    7.4735
 BZINTS: Fermi energy:    1.364609;  400.000000 electrons
         Band energy:-0.124248E+04;  BLOECHL correction:   -0.051184
       DOS:  cpu time    0.0101: real time    0.0101
    --------------------------------------------
      LOOP:  cpu time    7.4796: real time    7.4836

 eigenvalue-minimisations  :  5320
 total energy-change (2. order) :-0.2482821E+04  (-0.2362331E+04)
 number of electron     399.9999931 magnetization 
 augmentation part      399.9999931 magnetization 

 Free energy of the ion-electron system (eV)
  ---------------------------------------------------
  alpha Z        PSCENC =       748.18049628
  Ewald energy   TEWEN  =     99390.13861751
  -Hartree energ DENC   =   -137590.13265694
  -exchange      EXHF   =         0.00000000
  -V(xc)+E(xc)   XCENC  =      -345.91400943
  PAW double counting   =     39639.21405880   -38156.35883500
  entropy T*S    EENTRO =         0.00000000
  eigenvalues    EBANDS =     -1242.47732883
  atomic energy  EATOM  =     37549.90144053
  Solvation  Ediel_sol  =         0.00000000
  ---------------------------------------------------
  free energy    TOTEN  =        -7.44821708 eV

  energy without entropy =       -7.44821708  energy(sigma->0) =       -7.44821708


--------------------------------------------------------------------------------------------------------




--------------------------------------- Iteration      1(   3)  ---------------------------------------


     EDDAV:  cpu time    8.2365: real time    8.2366
 BZINTS: Fermi energy:    0.791247;  400.000000 electrons
         Band energy:-0.133431E+04;  BLOECHL correction:   -0.038359
       DOS:  cpu time    0.0089: real time    0.0089
    --------------------------------------------
      LOOP:  cpu time    8.2454: real time    8.2455

 eigenvalue-minimisations  :  5992
 total energy-change (2. order) :-0.9183171E+02  (-0.8972085E+02)
 number of electron     399.9999931 magnetization 
 augmentation part      399.9999931 magnetization 

 Free energy of the ion-electron system (eV)
  ---------------------------------------------------
  alpha Z        PSCENC =       748.18049628
  Ewald energy   TEWEN  =     99390.13861751
  -Hartree energ DENC   =   -137590.13265694
  -exchange      EXHF   =         0.00000000
  -V(xc)+E(xc)   XCENC  =      -345.91400943
  PAW double counting   =     39639.21405880   -38156.35883500
  entropy T*S    EENTRO =         0.00000000
  eigenvalues    EBANDS =     -1334.30904285
  atomic energy  EATOM  =     37549.90144053
  Solvation  Ediel_sol  =         0.00000000
  ---------------------------------------------------
  free energy    TOTEN  =       -99.27993109 eV

  energy without entropy =      -99.27993109  energy(sigma->0) =      -99.27993109


--------------------------------------------------------------------------------------------------------




--------------------------------------- Iteration      1(   4)  ---------------------------------------


     EDDAV:  cpu time    7.7265: real time    7.7266
 BZINTS: Fermi energy:    0.765825;  400.000000 electrons
         Band energy:-0.133567E+04;  BLOECHL correction:   -0.037026
       DOS:  cpu time    0.0102: real time    0.0101
    --------------------------------------------
      LOOP:  cpu time    7.7366: real time    7.7368

 eigenvalue-minimisations  :  5544
 total energy-change (2. order) :-0.1365631E+01  (-0.1362097E+01)
 number of electron     399.9999931 magnetization 
 augmentation part      399.9999931 magnetization 

 Free energy of the ion-electron system (eV)
  ---------------------------------------------------
  alpha Z        PSCENC =       748.18049628
  Ewald energy   TEWEN  =     99390.13861751
  -Hartree energ DENC   =   -137590.13265694
  -exchange      EXHF   =         0.00000000
  -V(xc)+E(xc)   XCENC  =      -345.91400943
  PAW double counting   =     39639.21405880   -38156.35883500
  entropy T*S    EENTRO =         0.00000000
  eigenvalues    EBANDS =     -1335.67467397
  atomic energy  EATOM  =     37549.90144053
  Solvation  Ediel_sol  =         0.00000000
  ---------------------------------------------------
  free energy    TOTEN  =      -100.64556221 eV

  energy without entropy =     -100.64556221  energy(sigma->0) =     -100.64556221


--------------------------------------------------------------------------------------------------------




--------------------------------------- Iteration      1(   5)  ---------------------------------------


     EDDAV:  cpu time    8.8023: real time    8.8024
 BZINTS: Fermi energy:    0.765450;  400.000000 electrons
         Band energy:-0.133571E+04;  BLOECHL correction:   -0.037011
       DOS:  cpu time    0.0099: real time    0.0099
    --------------------------------------------
      LOOP:  cpu time    8.8122: real time    8.8123

 eigenvalue-minimisations  :  6496
 total energy-change (2. order) :-0.3319503E-01  (-0.3319927E-01)
 number of electron     399.9999931 magnetization 
 augmentation part      399.9999931 magnetization 

 Free energy of the ion-electron system (eV)
  ---------------------------------------------------
  alpha Z        PSCENC =       748.18049628
  Ewald energy   TEWEN  =     99390.13861751
  -Hartree energ DENC   =   -137590.13265694
  -exchange      EXHF   =         0.00000000
  -V(xc)+E(xc)   XCENC  =      -345.91400943
  PAW double counting   =     39639.21405880   -38156.35883500
  entropy T*S    EENTRO =         0.00000000
  eigenvalues    EBANDS =     -1335.70786899
  atomic energy  EATOM  =     37549.90144053
  Solvation  Ediel_sol  =         0.00000000
  ---------------------------------------------------
  free energy    TOTEN  =      -100.67875724 eV

  energy without entropy =     -100.67875724  energy(sigma->0) =     -100.67875724


--------------------------------------------------------------------------------------------------------




--------------------------------------- Iteration      1(   6)  ---------------------------------------


    EDDIAG:  cpu time    1.4015: real time    1.4018
  RMM-DIIS:  cpu time    4.0218: real time    4.0218
    ORTHCH:  cpu time    0.2607: real time    0.2607
 BZINTS: Fermi energy:    0.765445;  400.000000 electrons
         Band energy:-0.133571E+04;  BLOECHL correction:   -0.037011
       DOS:  cpu time    0.0098: real time    0.0098
    --------------------------------------------
      LOOP:  cpu time    5.6937: real time    5.6942

 eigenvalue-minimisations  :  5126
 total energy-change (2. order) :-0.5493801E-03  (-0.5497521E-03)
 number of electron     399.9999931 magnetization 
 augmentation part      399.9999931 magnetization 

 Free energy of the ion-electron system (eV)
  ---------------------------------------------------
  alpha Z        PSCENC =       748.18049628
  Ewald energy   TEWEN  =     99390.13861751
  -Hartree energ DENC   =   -137590.13265694
  -exchange      EXHF   =         0.00000000
  -V(xc)+E(xc)   XCENC  =      -345.91400943
  PAW double counting   =     39639.21405880   -38156.35883500
  entropy T*S    EENTRO =         0.00000000
  eigenvalues    EBANDS =     -1335.70841837
  atomic energy  EATOM  =     37549.90144053
  Solvation  Ediel_sol  =         0.00000000
  ---------------------------------------------------
  free energy    TOTEN  =      -100.67930662 eV

  energy without entropy =     -100.67930662  energy(sigma->0) =     -100.67930662


--------------------------------------------------------------------------------------------------------




--------------------------------------- Iteration      1(   7)  ---------------------------------------


    EDDIAG:  cpu time    1.4028: real time    1.4029
  RMM-DIIS:  cpu time    5.4513: real time    5.4513
    ORTHCH:  cpu time    0.2615: real time    0.2615
 BZINTS: Fermi energy:    0.765443;  400.000000 electrons
         Band energy:-0.133571E+04;  BLOECHL correction:   -0.037011
       DOS:  cpu time    0.0096: real time    0.0096
    --------------------------------------------
      LOOP:  cpu time    7.1252: real time    7.1253

 eigenvalue-minimisations  :  6991
 total energy-change (2. order) :-0.1979103E-03  (-0.1958013E-03)
 number of electron     399.9999931 magnetization 
 augmentation part      399.9999931 magnetization 

 Free energy of the ion-electron system (eV)
  ---------------------------------------------------
  alpha Z        PSCENC =       748.18049628
  Ewald energy   TEWEN  =     99390.13861751
  -Hartree energ DENC   =   -137590.13265694
  -exchange      EXHF   =         0.00000000
  -V(xc)+E(xc)   XCENC  =      -345.91400943
  PAW double counting   =     39639.21405880   -38156.35883500
  entropy T*S    EENTRO =         0.00000000
  eigenvalues    EBANDS =     -1335.70861628
  atomic energy  EATOM  =     37549.90144053
  Solvation  Ediel_sol  =         0.00000000
  ---------------------------------------------------
  free energy    TOTEN  =      -100.67950453 eV

  energy without entropy =     -100.67950453  energy(sigma->0) =     -100.67950453


--------------------------------------------------------------------------------------------------------




--------------------------------------- Iteration      1(   8)  ---------------------------------------


    EDDIAG:  cpu time    1.4030: real time    1.4032
  RMM-DIIS:  cpu time    4.1539: real time    4.1539
    ORTHCH:  cpu time    0.2610: real time    0.2610
 BZINTS: Fermi energy:    0.765443;  400.000000 electrons
         Band energy:-0.133571E+04;  BLOECHL correction:   -0.037011
       DOS:  cpu time    0.0092: real time    0.0092
    --------------------------------------------
      LOOP:  cpu time    5.8271: real time    5.8273

 eigenvalue-minimisations  :  4953
 total energy-change (2. order) :-0.1509587E-04  (-0.1518931E-04)
 number of electron     399.9999931 magnetization 
 augmentation part      399.9999931 magnetization 

 Free energy of the ion-electron system (eV)
  ---------------------------------------------------
  alpha Z        PSCENC =       748.18049628
  Ewald energy   TEWEN  =     99390.13861751
  -Hartree energ DENC   =   -137590.13265694
  -exchange      EXHF   =         0.00000000
  -V(xc)+E(xc)   XCENC  =      -345.91400943
  PAW double counting   =     39639.21405880   -38156.35883500
  entropy T*S    EENTRO =         0.00000000
  eigenvalues    EBANDS =     -1335.70863138
  atomic energy  EATOM  =     37549.90144053
  Solvation  Ediel_sol  =         0.00000000
  ---------------------------------------------------
  free energy    TOTEN  =      -100.67951962 eV

  energy without entropy =     -100.67951962  energy(sigma->0) =     -100.67951962


--------------------------------------------------------------------------------------------------------




--------------------------------------- Iteration      1(   9)  ---------------------------------------


    EDDIAG:  cpu time    1.4024: real time    1.4026
  RMM-DIIS:  cpu time    3.2202: real time    3.2202
    ORTHCH:  cpu time    0.2612: real time    0.2613
 BZINTS: Fermi energy:    0.765443;  400.000000 electrons
         Band energy:-0.133571E+04;  BLOECHL correction:   -0.037011
       DOS:  cpu time    0.0097: real time    0.0097
    --------------------------------------------
      LOOP:  cpu time    4.8935: real time    4.8938

 eigenvalue-minimisations  :  3423
 total energy-change (2. order) :-0.2888381E-05  (-0.2916182E-05)
 number of electron     399.9999931 magnetization 
 augmentation part      399.9999931 magnetization 

 Free energy of the ion-electron system (eV)
  ---------------------------------------------------
  alpha Z        PSCENC =       748.18049628
  Ewald energy   TEWEN  =     99390.13861751
  -Hartree energ DENC   =   -137590.13265694
  -exchange      EXHF   =         0.00000000
  -V(xc)+E(xc)   XCENC  =      -345.91400943
  PAW double counting   =     39639.21405880   -38156.35883500
  entropy T*S    EENTRO =         0.00000000
  eigenvalues    EBANDS =     -1335.70863427
  atomic energy  EATOM  =     37549.90144053
  Solvation  Ediel_sol  =         0.00000000
  ---------------------------------------------------
  free energy    TOTEN  =      -100.67952251 eV

  energy without entropy =     -100.67952251  energy(sigma->0) =     -100.67952251


--------------------------------------------------------------------------------------------------------




 average (electrostatic) potential at core
  the test charge radii are     1.1249  1.0452  0.7215
  (the norm of the test charge is              1.0000)
       1 -78.1314       2 -78.1099       3 -78.1098       4 -78.1099       5 -78.1041
       6 -78.1096       7 -78.1098       8 -78.1096       9 -78.1372      10 -78.3449
      11 -78.3351      12 -78.3446      13 -78.3351      14 -78.3348      15 -78.3532
      16 -78.3446      17 -78.3532      18 -78.3531      19 -78.3419      20 -78.3797
      21 -78.3793      22 -78.3611      23 -78.3793      24 -78.3611      25 -78.3415
      26 -78.3419      27 -78.3611      28 -78.0809      29 -78.0717      30 -78.0715
      31 -78.0717      32 -78.0715      33 -78.0715      34 -78.0714      35 -78.0890
      36 -87.7255      37 -75.1377
 
 
 
 E-fermi :   0.7654     XC(G=0):  -5.9052     alpha+bet : -5.5919

 Fermi energy:         0.7654433255

 k-point     1 :       0.0000    0.0000    0.0000
  band No.  band energies     occupation 
      1     -17.1408      2.00000
      2      -6.3611      2.00000
      3      -5.4886      2.00000
      4      -5.1905      2.00000
      5      -5.1158      2.00000
      6      -5.0797      2.00000
      7      -5.0753      2.00000
      8      -5.0753      2.00000
      9      -5.0709      2.00000
     10      -5.0709      2.00000
     11      -5.0582      2.00000
     12      -5.0390      2.00000
     13      -5.0335      2.00000
     14      -5.0335      2.00000
     15      -5.0181      2.00000
     16      -5.0181      2.00000
     17      -4.9924      2.00000
     18      -4.8864      2.00000
     19      -4.8652      2.00000
     20      -4.8622      2.00000
     21      -4.8622      2.00000
     22      -4.8557      2.00000
     23      -4.8557      2.00000
     24      -4.6911      2.00000
     25      -4.6746      2.00000
     26      -4.6746      2.00000
     27      -4.6685      2.00000
     28      -4.6414      2.00000
     29      -4.6365      2.00000
     30      -4.6290      2.00000
     31      -4.6290      2.00000
     32      -4.6227      2.00000
     33      -4.6227      2.00000
     34      -4.6062      2.00000
     35      -4.6062      2.00000
     36      -4.5336      2.00000
     37      -4.5088      2.00000
     38      -4.5088      2.00000
     39      -4.4873      2.00000
     40      -4.3513      2.00000
     41      -4.3513      2.00000
     42      -4.2955      2.00000
     43      -4.2954      2.00000
     44      -4.2920      2.00000
     45      -4.2747      2.00000
     46      -4.2747      2.00000
     47      -4.2560      2.00000
     48      -4.2559      2.00000
     49      -4.2552      2.00000
     50      -4.2105      2.00000
     51      -4.2105      2.00000
     52      -4.1631      2.00000
     53      -4.1276      2.00000
     54      -4.1142      2.00000
     55      -4.1004      2.00000
     56      -3.8934      2.00000
     57      -3.8919      2.00000
     58      -3.8919      2.00000
     59      -3.8862      2.00000
     60      -3.8762      2.00000
     61      -3.8762      2.00000
     62      -3.8467      2.00000
     63      -3.8467      2.00000
     64      -3.8457      2.00000
     65      -3.8231      2.00000
     66      -3.8231      2.00000
     67      -3.7582      2.00000
     68      -3.7582      2.00000
     69      -3.7159      2.00000
     70      -3.7159      2.00000
     71      -3.7108      2.00000
     72      -3.7046      2.00000
     73      -3.6975      2.00000
     74      -3.6975      2.00000
     75      -3.6894      2.00000
     76      -3.6893      2.00000
     77      -3.6654      2.00000
     78      -3.6499      2.00000
     79      -3.6498      2.00000
     80      -3.6375      2.00000
     81      -3.6350      2.00000
     82      -3.6284      2.00000
     83      -3.6284      2.00000
     84      -3.6033      2.00000
     85      -3.6030      2.00000
     86      -3.6029      2.00000
     87      -3.5653      2.00000
     88      -3.5653      2.00000
     89      -3.4986      2.00000
     90      -3.4971      2.00000
     91      -3.4971      2.00000
     92      -3.4717      2.00000
     93      -3.4716      2.00000
     94      -3.4285      2.00000
     95      -3.4285      2.00000
     96      -3.4182      2.00000
     97      -3.4182      2.00000
     98      -3.3908      2.00000
     99      -3.3908      2.00000
    100      -3.3387      2.00000
    101      -3.1768      2.00000
    102      -3.1756      2.00000
    103      -3.1756      2.00000
    104      -3.1587      2.00000
    105      -3.1520      2.00000
    106      -3.1520      2.00000
    107      -3.1430      2.00000
    108      -3.1430      2.00000
    109      -3.1049      2.00000
    110      -3.0921      2.00000
    111      -3.0921      2.00000
    112      -3.0487      2.00000
    113      -3.0431      2.00000
    114      -3.0419      2.00000
    115      -3.0419      2.00000
    116      -2.9105      2.00000
    117      -2.9104      2.00000
    118      -2.9095      2.00000
    119      -2.8985      2.00000
    120      -2.8985      2.00000
    121      -2.8775      2.00000
    122      -2.8775      2.00000
    123      -2.8327      2.00000
    124      -2.8326      2.00000
    125      -2.8138      2.00000
    126      -2.8008      2.00000
    127      -2.8008      2.00000
    128      -2.7824      2.00000
    129      -2.7824      2.00000
    130      -2.7732      2.00000
    131      -2.7726      2.00000
    132      -2.7704      2.00000
    133      -2.7704      2.00000
    134      -2.7694      2.00000
    135      -2.7106      2.00000
    136      -2.7106      2.00000
    137      -2.5879      2.00000
    138      -2.5844      2.00000
    139      -2.5844      2.00000
    140      -2.5705      2.00000
    141      -2.5705      2.00000
    142      -2.5663      2.00000
    143      -2.5663      2.00000
    144      -2.5638      2.00000
    145      -2.5570      2.00000
    146      -2.5541      2.00000
    147      -2.5349      2.00000
    148      -2.5349      2.00000
    149      -2.5110      2.00000
    150      -2.5110      2.00000
    151      -2.4857      2.00000
    152      -2.4725      2.00000
    153      -2.4687      2.00000
    154      -2.4687      2.00000
    155      -2.4651      2.00000
    156      -2.4535      2.00000
    157      -2.4534      2.00000
    158      -2.4293      2.00000
    159      -2.4157      2.00000
    160      -2.4157      2.00000
    161      -2.3905      2.00000
    162      -2.3810      2.00000
    163      -2.3810      2.00000
    164      -2.3738      2.00000
    165      -2.3686      2.00000
    166      -2.3686      2.00000
    167      -2.3680      2.00000
    168      -2.3422      2.00000
    169      -2.3222      2.00000
    170      -2.3221      2.00000
    171      -2.3214      2.00000
    172      -2.3029      2.00000
    173      -2.3029      2.00000
    174      -2.2957      2.00000
    175      -2.2547      2.00000
    176      -2.2546      2.00000
    177      -2.2125      2.00000
    178      -2.2124      2.00000
    179      -2.1803      2.00000
    180      -2.1802      2.00000
    181      -2.1584      2.00000
    182      -2.1528      2.00000
    183      -2.0976      2.00000
    184      -2.0731      2.00000
    185      -2.0730      2.00000
    186      -2.0530      2.00000
    187      -1.9885      2.00000
    188      -1.9884      2.00000
    189      -1.3215      2.00000
    190      -1.3215      2.00000
    191      -1.3049      2.00000
    192      -1.2509      2.00000
    193      -1.2509      2.00000
    194      -1.2146      2.00000
    195      -0.0607      2.00000
    196       0.0789      2.00000
    197       0.0789      2.00000
    198       0.0804      2.00000
    199       0.3490      2.00000
    200       0.3490      2.00000
    201       0.4316      2.00000
    202       0.4802      2.00000
    203       0.4803      2.29933
    204       1.0449      0.00000
    205       1.0450      0.00000
    206       1.2092      0.00000
    207       1.7300      0.00000
    208       2.6564      0.00000
    209       2.7122      0.00000
    210       2.7122      0.00000
    211       2.8321      0.00000
    212       2.8321      0.00000
    213       3.6398      0.00000
    214       4.0328      0.00000
    215       4.0350      0.00000
    216       4.1921      0.00000
    217       4.1921      0.00000
    218       4.2211      0.00000
    219       4.2211      0.00000
    220       4.9450      0.00000
    221       4.9450      0.00000
    222       4.9928      0.00000
    223       5.0029      0.00000
    224       5.0029      0.00000
    225       5.0146      0.00000
    226       5.0916      0.00000
    227       5.0916      0.00000
    228       5.1571      0.00000
    229       5.2412      0.00000
    230       5.2412      0.00000
    231       5.2938      0.00000
    232       5.3270      0.00000
    233       5.7126      0.00000
    234       6.5572      0.00000
    235       6.6015      0.00000
    236       6.6015      0.00000
    237       6.7131      0.00000
    238       6.7680      0.00000
    239       6.7680      0.00000
    240       6.8371      0.00000
    241       7.0028      0.00000
    242       7.0221      0.00000
    243       7.0223      0.00000
    244       7.0797      0.00000
    245       7.0894      0.00000
    246       7.0898      0.00000
    247       7.2041      0.00000
    248       7.2878      0.00000
    249       7.2895      0.00000
    250       7.3077      0.00000
    251       7.3589      0.00000
    252       7.3737      0.00000

 k-point     2 :       0.1250   -0.0000    0.0000
  band No.  band energies     occupation 
      1     -17.1407      2.00000
      2      -6.3154      2.00000
      3      -5.4488      2.00000
      4      -5.1609      2.00000
      5      -5.1368      2.00000
      6      -5.1142      2.00000
      7      -5.0930      2.00000
      8      -5.0735      2.00000
      9      -5.0716      2.00000
     10      -5.0565      2.00000
     11      -5.0487      2.00000
     12      -5.0443      2.00000
     13      -5.0295      2.00000
     14      -4.9858      2.00000
     15      -4.9716      2.00000
     16      -4.9564      2.00000
     17      -4.9552      2.00000
     18      -4.9400      2.00000
     19      -4.9128      2.00000
     20      -4.9070      2.00000
     21      -4.8098      2.00000
     22      -4.7957      2.00000
     23      -4.7573      2.00000
     24      -4.7492      2.00000
     25      -4.7303      2.00000
     26      -4.7255      2.00000
     27      -4.6782      2.00000
     28      -4.6705      2.00000
     29      -4.6379      2.00000
     30      -4.6318      2.00000
     31      -4.6010      2.00000
     32      -4.5894      2.00000
     33      -4.5863      2.00000
     34      -4.5588      2.00000
     35      -4.5244      2.00000
     36      -4.5224      2.00000
     37      -4.4947      2.00000
     38      -4.4844      2.00000
     39      -4.4409      2.00000
     40      -4.3631      2.00000
     41      -4.3577      2.00000
     42      -4.3463      2.00000
     43      -4.3437      2.00000
     44      -4.3277      2.00000
     45      -4.3052      2.00000
     46      -4.2955      2.00000
     47      -4.2841      2.00000
     48      -4.2732      2.00000
     49      -4.2301      2.00000
     50      -4.2032      2.00000
     51      -4.1805      2.00000
     52      -4.1485      2.00000
     53      -4.1157      2.00000
     54      -4.0835      2.00000
     55      -4.0760      2.00000
     56      -3.9201      2.00000
     57      -3.9122      2.00000
     58      -3.9091      2.00000
     59      -3.8940      2.00000
     60      -3.8821      2.00000
     61      -3.8764      2.00000
     62      -3.8689      2.00000
     63      -3.8553      2.00000
     64      -3.8419      2.00000
     65      -3.8415      2.00000
     66      -3.8071      2.00000
     67      -3.7938      2.00000
     68      -3.7719      2.00000
     69      -3.7599      2.00000
     70      -3.7348      2.00000
     71      -3.7320      2.00000
     72      -3.7062      2.00000
     73      -3.7052      2.00000
     74      -3.6959      2.00000
     75      -3.6933      2.00000
     76      -3.6823      2.00000
     77      -3.6807      2.00000
     78      -3.6532      2.00000
     79      -3.6486      2.00000
     80      -3.6472      2.00000
     81      -3.6433      2.00000
     82      -3.6289      2.00000
     83      -3.6131      2.00000
     84      -3.6126      2.00000
     85      -3.5861      2.00000
     86      -3.5802      2.00000
     87      -3.5780      2.00000
     88      -3.5699      2.00000
     89      -3.5618      2.00000
     90      -3.5434      2.00000
     91      -3.5244      2.00000
     92      -3.4851      2.00000
     93      -3.4832      2.00000
     94      -3.4458      2.00000
     95      -3.4242      2.00000
     96      -3.3984      2.00000
     97      -3.3796      2.00000
     98      -3.3118      2.00000
     99      -3.2862      2.00000
    100      -3.2859      2.00000
    101      -3.2431      2.00000
    102      -3.2339      2.00000
    103      -3.2085      2.00000
    104      -3.2062      2.00000
    105      -3.1773      2.00000
    106      -3.1694      2.00000
    107      -3.1580      2.00000
    108      -3.1518      2.00000
    109      -3.1311      2.00000
    110      -3.0950      2.00000
    111      -3.0881      2.00000
    112      -3.0749      2.00000
    113      -3.0639      2.00000
    114      -3.0258      2.00000
    115      -3.0192      2.00000
    116      -2.9787      2.00000
    117      -2.9678      2.00000
    118      -2.9631      2.00000
    119      -2.9380      2.00000
    120      -2.9371      2.00000
    121      -2.8999      2.00000
    122      -2.8943      2.00000
    123      -2.8648      2.00000
    124      -2.8632      2.00000
    125      -2.8537      2.00000
    126      -2.8510      2.00000
    127      -2.8440      2.00000
    128      -2.8187      2.00000
    129      -2.8075      2.00000
    130      -2.8052      2.00000
    131      -2.7870      2.00000
    132      -2.7665      2.00000
    133      -2.7517      2.00000
    134      -2.7474      2.00000
    135      -2.7381      2.00000
    136      -2.7090      2.00000
    137      -2.7042      2.00000
    138      -2.7022      2.00000
    139      -2.6718      2.00000
    140      -2.6686      2.00000
    141      -2.6365      2.00000
    142      -2.6355      2.00000
    143      -2.6010      2.00000
    144      -2.5704      2.00000
    145      -2.5673      2.00000
    146      -2.5649      2.00000
    147      -2.5450      2.00000
    148      -2.5182      2.00000
    149      -2.5148      2.00000
    150      -2.5124      2.00000
    151      -2.4968      2.00000
    152      -2.4947      2.00000
    153      -2.4833      2.00000
    154      -2.4744      2.00000
    155      -2.4594      2.00000
    156      -2.4559      2.00000
    157      -2.4465      2.00000
    158      -2.4389      2.00000
    159      -2.4318      2.00000
    160      -2.4267      2.00000
    161      -2.4131      2.00000
    162      -2.4096      2.00000
    163      -2.4009      2.00000
    164      -2.3887      2.00000
    165      -2.3750      2.00000
    166      -2.3649      2.00000
    167      -2.3461      2.00000
    168      -2.3338      2.00000
    169      -2.3306      2.00000
    170      -2.3097      2.00000
    171      -2.2963      2.00000
    172      -2.2882      2.00000
    173      -2.2649      2.00000
    174      -2.2483      2.00000
    175      -2.2360      2.00000
    176      -2.2275      2.00000
    177      -2.2213      2.00000
    178      -2.2046      2.00000
    179      -2.1884      2.00000
    180      -2.1845      2.00000
    181      -2.1724      2.00000
    182      -2.1518      2.00000
    183      -2.1347      2.00000
    184      -2.1185      2.00000
    185      -2.1081      2.00000
[...]
  0.000   0.000   0.000   0.000   0.000   0.000   0.000   0.000   0.000   0.000   0.000   0.000   0.000   0.000   0.000   0.000
  0.000   0.000   0.000   0.000   0.000   0.000   0.000   0.000   0.000   0.000   0.000   0.000   0.000   0.000   0.000   0.000
  0.000   0.000   0.000   0.000   0.000   0.000   0.000   0.000   0.000   0.000   0.000   0.000   0.000   0.000   0.000   0.000
  0.000   0.000   0.000   0.000   0.000   0.000   0.000   0.000   0.000   0.000   0.000   0.000   0.000   0.000   0.000   0.000
  0.000   0.000   0.000   0.000   0.000   0.000   0.000   0.000   0.000   0.000   0.000   0.000   0.000   0.000   0.000   0.000
  0.000   0.000   0.000   0.000   0.000   0.000   0.000   0.000   0.000   0.000   1.000   0.000   0.000   0.000   0.000   0.000
  0.000   0.000   0.000   0.000   0.000   0.000   0.000   0.000   0.000   0.000   0.000   0.000   0.000   0.000   0.000   0.000
  0.000   0.000   0.000   0.000   0.000   0.000   0.000   0.000   0.000   0.000   0.000   0.000   0.000   0.000   0.000   0.000
  0.000   0.000   0.000   0.000   0.000   0.000   0.000   0.000   0.000   0.000   0.000   0.000   0.000   0.000   0.000   0.000
  0.000   0.000   0.000   0.000   0.000   0.000   0.000   0.000   0.000   0.000   0.000   0.000   0.000   0.000   0.000   0.000
  0.000   0.000   0.000   0.000   0.000   0.000   0.000   0.000   0.000   0.000   0.000   0.000   0.000   0.000   0.000   0.000
  0.000   0.000   0.000   0.000   0.000   0.000   0.000   0.000   0.000   0.000   0.000   0.000   0.000   0.000   0.000   0.000
  0.000   0.000   0.000   0.000   0.000   0.000   0.000   0.000   0.000   0.000   0.000   0.000   0.000   0.000   0.000   0.000


------------------------ aborting loop because EDIFF is reached ----------------------------------------





 total charge

# of ion       s       p       d       tot
------------------------------------------
    1        0.418   0.202   9.178   9.798
    2        0.417   0.203   9.177   9.797
    3        0.417   0.203   9.177   9.797
    4        0.417   0.203   9.177   9.797
    5        0.415   0.205   9.176   9.796
    6        0.417   0.203   9.177   9.797
    7        0.417   0.203   9.177   9.797
    8        0.417   0.203   9.177   9.797
    9        0.414   0.202   9.178   9.794
   10        0.406   0.269   9.164   9.839
   11        0.406   0.270   9.167   9.843
   12        0.406   0.269   9.164   9.839
   13        0.406   0.270   9.167   9.843
   14        0.406   0.270   9.167   9.843
   15        0.403   0.269   9.166   9.837
   16        0.406   0.269   9.164   9.839
   17        0.403   0.269   9.166   9.837
   18        0.403   0.269   9.166   9.837
   19        0.401   0.268   9.164   9.834
   20        0.425   0.292   9.152   9.869
   21        0.425   0.292   9.152   9.869
   22        0.401   0.271   9.168   9.840
   23        0.425   0.292   9.152   9.869
   24        0.401   0.271   9.168   9.840
   25        0.401   0.268   9.164   9.834
   26        0.401   0.268   9.164   9.834
   27        0.401   0.271   9.168   9.840
   28        0.415   0.193   9.183   9.791
   29        0.396   0.203   9.186   9.785
   30        0.396   0.203   9.186   9.785
   31        0.396   0.203   9.186   9.785
   32        0.396   0.203   9.186   9.785
   33        0.396   0.203   9.186   9.785
   34        0.396   0.203   9.186   9.785
   35        0.410   0.195   9.180   9.786
   36        0.461   0.501   7.363   8.326
   37        1.606   3.234   0.000   4.840
--------------------------------------------------
tot         16.345  12.086 328.379 356.809
 
    CHARGE:  cpu time    0.3377: real time    0.3378
    FORLOC:  cpu time    0.0100: real time    0.0100
    FORNL :  cpu time    1.4746: real time    1.4747
    STRESS:  cpu time    4.4365: real time    4.4367
    FORCOR:  cpu time    0.0430: real time    0.0430
    FORHAR:  cpu time    0.0165: real time    0.0166
    OFIELD:  cpu time    0.0002: real time    0.0002

  FORCE on cell =-STRESS in cart. coord.  units (eV):
  Direction    XX          YY          ZZ          XY          YZ          ZX
  --------------------------------------------------------------------------------------
  Alpha Z   748.18050   748.18050   748.18050
  Ewald  122219.55647122219.55657************     0.00005     0.00000     0.00004
  Hartree132587.73447132587.73452************     0.00002    -0.00000     0.00002
  E(xc)   -2104.63456 -2104.63454 -2109.46467    -0.00002     0.00000     0.00000
  Local  ************************265982.67138     0.00051    -0.00006    -0.00017
  n-local  -361.01924  -342.89457  -352.26731    10.73212    -0.34419     0.47026
  augment  3386.31820  3386.31840  3380.71175    -0.00018     0.00002     0.00006
  Kinetic  4974.42591  4977.68073  4986.23418     3.53626     1.23211    -0.36069
  Fock        0.00000     0.00000     0.00000     0.00000     0.00000     0.00000
  -------------------------------------------------------------------------------------
  Total      -9.12895    -9.12895    -0.61586    -0.00000    -0.00000     0.00000
  in kB      -9.85288    -9.85288    -0.66470    -0.00000    -0.00000     0.00000
  external pressure =       -6.79 kB  Pullay stress =        0.00 kB


 VOLUME and BASIS-vectors are now :
 -----------------------------------------------------------------------------
  energy-cutoff  :      500.00
  volume of cell :     1484.46
      direct lattice vectors                 reciprocal lattice vectors
     8.791366577  0.000000000  0.000000000     0.113747958 -0.065672414  0.000000000
     4.395683289  7.613546790  0.000000000     0.000000000  0.131344829  0.000000000
     0.000000000  0.000000000 22.178121567     0.000000000  0.000000000  0.045089481

  length of vectors
     8.791366577  8.791366577 22.178121567     0.131344829  0.131344829  0.045089481


 FORCES acting on ions
    electron-ion (+dipol)            ewald-force                    non-local-force                 convergence-correction
 -----------------------------------------------------------------------------------------------
   0.459E-04 -.283E-04 0.252E+04   -.954E-04 0.593E-04 -.252E+04   -.231E-18 0.443E-17 -.205E+01   -.201E-03 -.223E-03 0.858E-01
   0.540E+00 0.763E+00 0.252E+04   -.662E+00 -.688E+00 -.252E+04   0.524E-01 0.368E-01 -.159E+01   0.673E-01 -.972E-01 0.938E-01
   -.540E+00 0.763E+00 0.252E+04   0.662E+00 -.688E+00 -.252E+04   -.524E-01 0.368E-01 -.159E+01   -.678E-01 -.953E-01 0.947E-01
   0.931E+00 0.863E-01 0.252E+04   -.927E+00 -.229E+00 -.252E+04   0.581E-01 0.270E-01 -.159E+01   -.503E-01 0.107E+00 0.938E-01
   -.528E-05 -.185E-04 0.252E+04   0.981E-04 -.199E-05 -.252E+04   0.381E-17 -.174E-17 -.152E+01   0.626E-02 0.382E-02 0.472E-01
   -.931E+00 0.864E-01 0.252E+04   0.927E+00 -.229E+00 -.252E+04   -.581E-01 0.270E-01 -.159E+01   0.489E-01 0.108E+00 0.946E-01
   0.391E+00 -.849E+00 0.252E+04   -.265E+00 0.917E+00 -.252E+04   0.565E-02 -.638E-01 -.159E+01   -.116E+00 -.105E-01 0.947E-01
   -.391E+00 -.849E+00 0.252E+04   0.265E+00 0.917E+00 -.252E+04   -.565E-02 -.638E-01 -.159E+01   0.118E+00 -.116E-01 0.947E-01
   0.361E-04 -.131E-04 0.252E+04   0.792E-04 -.643E-04 -.252E+04   0.110E-17 0.165E-18 -.186E+01   -.659E-02 -.339E-02 0.130E+00
   0.598E+01 0.346E+01 0.867E+03   -.568E+01 -.328E+01 -.866E+03   -.277E+00 -.160E+00 -.747E+00   -.211E-01 -.122E-01 0.154E+00
   -.293E-04 0.762E+01 0.878E+03   0.419E-04 -.753E+01 -.878E+03   0.552E-12 0.840E-01 -.316E+00   0.686E-02 -.192E+00 0.125E+00
   -.598E+01 0.346E+01 0.867E+03   0.568E+01 -.328E+01 -.866E+03   0.277E+00 -.160E+00 -.747E+00   0.191E-01 -.114E-01 0.155E+00
   0.660E+01 -.381E+01 0.878E+03   -.652E+01 0.377E+01 -.878E+03   0.727E-01 -.420E-01 -.316E+00   -.163E+00 0.102E+00 0.125E+00
   -.660E+01 -.381E+01 0.878E+03   0.652E+01 0.377E+01 -.878E+03   -.727E-01 -.420E-01 -.316E+00   0.174E+00 0.101E+00 0.123E+00
   0.165E-04 0.120E+01 0.868E+03   -.109E-03 -.138E+01 -.867E+03   0.379E-12 0.577E-01 -.643E+00   -.175E-02 0.102E+00 0.156E+00
   -.786E-05 -.691E+01 0.867E+03   0.208E-04 0.656E+01 -.866E+03   0.210E-11 0.320E+00 -.747E+00   -.348E-03 0.221E-01 0.155E+00
   0.104E+01 -.599E+00 0.868E+03   -.119E+01 0.689E+00 -.867E+03   0.500E-01 -.288E-01 -.643E+00   0.871E-01 -.523E-01 0.156E+00
   -.104E+01 -.599E+00 0.868E+03   0.119E+01 0.689E+00 -.867E+03   -.500E-01 -.288E-01 -.643E+00   -.865E-01 -.500E-01 0.158E+00
   0.419E-04 0.311E+01 -.825E+03   -.130E-03 -.334E+01 0.824E+03   0.856E-12 0.130E+00 0.603E+00   -.659E-02 0.985E-01 0.180E+00
   0.381E+02 0.220E+02 -.767E+03   -.369E+02 -.213E+02 0.767E+03   -.108E+01 -.626E+00 -.675E+00   -.974E-01 -.562E-01 0.277E+00
   -.381E+02 0.220E+02 -.767E+03   0.369E+02 -.213E+02 0.767E+03   0.108E+01 -.626E+00 -.675E+00   0.986E-01 -.580E-01 0.277E+00
   0.152E+02 -.878E+01 -.809E+03   -.153E+02 0.884E+01 0.809E+03   0.184E+00 -.106E+00 0.652E+00   -.459E-01 0.355E-01 0.155E+00
   -.617E-04 -.440E+02 -.767E+03   0.473E-04 0.426E+02 0.767E+03   0.822E-11 0.125E+01 -.675E+00   -.609E-03 0.115E+00 0.277E+00
   -.152E+02 -.878E+01 -.809E+03   0.153E+02 0.884E+01 0.809E+03   -.184E+00 -.106E+00 0.652E+00   0.569E-01 0.329E-01 0.155E+00
   -.270E+01 -.156E+01 -.825E+03   0.289E+01 0.167E+01 0.824E+03   -.113E+00 -.652E-01 0.603E+00   -.941E-01 -.545E-01 0.180E+00
   0.270E+01 -.156E+01 -.825E+03   -.289E+01 0.167E+01 0.824E+03   0.113E+00 -.652E-01 0.603E+00   0.817E-01 -.551E-01 0.180E+00
   0.214E-04 0.176E+02 -.809E+03   0.109E-03 -.177E+02 0.809E+03   0.139E-11 0.212E+00 0.652E+00   0.711E-02 -.575E-01 0.155E+00
   0.548E-04 -.372E-04 -.250E+04   -.115E-03 0.780E-04 0.249E+04   0.185E-17 -.195E-17 0.192E+01   -.469E-03 -.407E-03 -.939E-04
   0.408E+02 0.706E+02 -.248E+04   -.409E+02 -.710E+02 0.248E+04   0.404E-01 0.224E+00 0.242E+01   0.330E-01 0.406E-01 -.516E-01
   -.408E+02 0.706E+02 -.248E+04   0.409E+02 -.710E+02 0.248E+04   -.404E-01 0.224E+00 0.242E+01   -.330E-01 0.418E-01 -.532E-01
   0.815E+02 0.676E-03 -.248E+04   -.820E+02 0.747E-01 0.248E+04   0.214E+00 -.771E-01 0.242E+01   0.519E-01 0.840E-02 -.516E-01
   -.815E+02 0.701E-03 -.248E+04   0.820E+02 0.746E-01 0.248E+04   -.214E+00 -.771E-01 0.242E+01   -.529E-01 0.850E-02 -.521E-01
   0.408E+02 -.706E+02 -.248E+04   -.411E+02 0.710E+02 0.248E+04   0.174E+00 -.147E+00 0.242E+01   0.202E-01 -.489E-01 -.532E-01
   -.408E+02 -.706E+02 -.248E+04   0.411E+02 0.710E+02 0.248E+04   -.174E+00 -.147E+00 0.242E+01   -.195E-01 -.500E-01 -.521E-01
   0.215E-04 -.125E-04 -.250E+04   0.107E-03 -.663E-04 0.249E+04   0.667E-17 0.226E-18 0.191E+01   -.610E-02 -.309E-02 -.199E-01
   -.250E-04 -.178E-04 -.169E+04   0.866E-04 0.126E-04 0.169E+04   -.593E-17 -.349E-18 -.178E+01   0.649E-02 0.396E-02 0.308E+00
   0.178E-03 -.955E-04 -.174E+04   0.330E-04 0.588E-06 0.177E+04   0.999E-18 0.874E-18 -.262E+02   0.379E-02 0.232E-02 -.849E-01
 -----------------------------------------------------------------------------------------------
   0.549E-03 -.791E-03 0.242E+02   0.911E-13 0.182E-12 -.273E-11   -.276E-15 -.166E-15 -.280E+02   0.162E-01 0.128E-01 0.386E+01
 
 
 POSITION                                       TOTAL-FORCE (eV/Angst)
 -----------------------------------------------------------------------------------
      0.00000      0.00000      5.28219         0.000000     -0.000000     -0.002186
      2.93046      0.00000      5.28219        -0.001198      0.015191      0.031592
      5.86091      0.00000      5.28219         0.001198      0.015191      0.031592
      1.46523      2.53785      5.28219         0.012556     -0.008633      0.031592
      4.39568      2.53785      5.28219         0.000000     -0.000000      0.031541
      7.32614      2.53785      5.28219        -0.012556     -0.008633      0.031592
      2.93046      5.07570      5.28219         0.013754     -0.006558      0.031592
      5.86091      5.07570      5.28219        -0.013754     -0.006558      0.031592
      8.79137      5.07570      5.28219         0.000000     -0.000000      0.009431
      1.46523      0.84595      7.67490         0.006998      0.004040      0.013628
      4.39568      0.84595      7.67490        -0.000000     -0.026563     -0.049115
      7.32614      0.84595      7.67490        -0.006998      0.004040      0.013628
      2.93046      3.38380      7.67490        -0.023004      0.013281     -0.049115
      5.86091      3.38380      7.67490         0.023004      0.013281     -0.049115
      8.79137      3.38380      7.67490        -0.000000     -0.021264     -0.011246
      4.39568      5.92165      7.67490        -0.000000     -0.008081      0.013628
      7.32614      5.92165      7.67490        -0.018415      0.010632     -0.011246
     10.25659      5.92165      7.67490         0.018415      0.010632     -0.011246
      8.79137      1.69398     10.06180         0.000000      0.008769      0.009561
      2.94231      1.69874     10.03918         0.000432      0.000250     -0.137356
      5.84906      1.69874     10.03918        -0.000432      0.000250     -0.137356
     10.25255      4.23208     10.04993         0.014076     -0.008127     -0.023157
      4.39568      4.21606     10.03918        -0.000000     -0.000499     -0.137356
      7.33018      4.23208     10.04993        -0.014076     -0.008127     -0.023157
     11.72002      6.76656     10.06180        -0.007594     -0.004384      0.009561
      5.86271      6.76656     10.06180         0.007594     -0.004384      0.009561
      8.79137      6.76293     10.04993         0.000000      0.016253     -0.023157
      0.00000      0.00000     12.42562         0.000000      0.000000     -0.019830
      2.96563      0.06260     12.41952        -0.097282     -0.180893     -0.041301
      5.82574      0.06260     12.41952         0.097282     -0.180893     -0.041301
      1.53702      2.53701     12.41952        -0.205299      0.006198     -0.041301
      7.25434      2.53701     12.41952         0.205299      0.006198     -0.041301
      2.96708      5.01394     12.41952        -0.108017      0.174696     -0.041301
      5.82429      5.01394     12.41952         0.108017      0.174696     -0.041301
      8.79137      5.07570     12.42127         0.000000      0.000000      0.003399
      4.39568      2.53785     12.13550         0.000000     -0.000000      0.612485
      4.39568      2.53785     13.76330         0.000000     -0.000000      0.016474
 -----------------------------------------------------------------------------------
    total drift:                                0.016746      0.012053      0.088145


--------------------------------------------------------------------------------------------------------



  FREE ENERGIE OF THE ION-ELECTRON SYSTEM (eV)
  ---------------------------------------------------
  free  energy   TOTEN  =      -100.67952251 eV

  energy  without entropy=     -100.67952251  energy(sigma->0) =     -100.67952251
 


--------------------------------------------------------------------------------------------------------


    POTLOK:  cpu time    0.0429: real time    0.0429


--------------------------------------------------------------------------------------------------------


 stress matrix after NEB project (eV)
     -9.12895     -0.00000      0.00000
     -0.00000     -9.12895     -0.00000
      0.00000     -0.00000     -0.61586
  FORCES: max atom, RMS     0.016474    0.002708
  FORCE total and by dimension    0.016474    0.016474
  Stress total and by dimension   12.924961    9.128946
     LOOP+:  cpu time   69.4607: real time   69.4731
 -----------------------------------------------------------------------------
|                                                                             |
|           W    W    AA    RRRRR   N    N  II  N    N   GGGG   !!!           |
|           W    W   A  A   R    R  NN   N  II  NN   N  G    G  !!!           |
|           W    W  A    A  R    R  N N  N  II  N N  N  G       !!!           |
|           W WW W  AAAAAA  RRRRR   N  N N  II  N  N N  G  GGG   !            |
|           WW  WW  A    A  R   R   N   NN  II  N   NN  G    G                |
|           W    W  A    A  R    R  N    N  II  N    N   GGGG   !!!           |
|                                                                             |
|     Tetrahedron method does not include variations of the Fermi             |
|     occupations, so forces and stress will be inaccurate. We suggest        |
|     using a different smearing scheme ISMEAR = 1 or 2 for metals in         |
|     relaxations.                                                            |
|                                                                             |
 -----------------------------------------------------------------------------

    4ORBIT:  cpu time    0.0000: real time    0.0000



 total charge

# of ion       s       p       d       tot
------------------------------------------
    1        0.418   0.202   9.178   9.798
    2        0.417   0.203   9.177   9.797
    3        0.417   0.203   9.177   9.797
    4        0.417   0.203   9.177   9.797
    5        0.415   0.205   9.176   9.796
    6        0.417   0.203   9.177   9.797
    7        0.417   0.203   9.177   9.797
    8        0.417   0.203   9.177   9.797
    9        0.414   0.202   9.178   9.794
   10        0.406   0.269   9.164   9.839
   11        0.406   0.270   9.167   9.843
   12        0.406   0.269   9.164   9.839
   13        0.406   0.270   9.167   9.843
   14        0.406   0.270   9.167   9.843
   15        0.403   0.269   9.166   9.837
   16        0.406   0.269   9.164   9.839
   17        0.403   0.269   9.166   9.837
   18        0.403   0.269   9.166   9.837
   19        0.401   0.268   9.164   9.834
   20        0.425   0.292   9.152   9.869
   21        0.425   0.292   9.152   9.869
   22        0.401   0.271   9.168   9.840
   23        0.425   0.292   9.152   9.869
   24        0.401   0.271   9.168   9.840
   25        0.401   0.268   9.164   9.834
   26        0.401   0.268   9.164   9.834
   27        0.401   0.271   9.168   9.840
   28        0.415   0.193   9.183   9.791
   29        0.396   0.203   9.186   9.785
   30        0.396   0.203   9.186   9.785
   31        0.396   0.203   9.186   9.785
   32        0.396   0.203   9.186   9.785
   33        0.396   0.203   9.186   9.785
   34        0.396   0.203   9.186   9.785
   35        0.410   0.195   9.180   9.786
   36        0.461   0.501   7.363   8.326
   37        1.606   3.234   0.000   4.840
--------------------------------------------------
tot         16.345  12.086 328.379 356.809
 
 BZINTS: Fermi energy:    0.765443;  400.000000 electrons
         Band energy:-0.133571E+04;  BLOECHL correction:   -0.037011

 total amount of memory used by VASP MPI-rank0   122908. kBytes
=======================================================================

   base      :      30000. kBytes
   nonlr-proj:      14805. kBytes
   fftplans  :       4330. kBytes
   grid      :      17879. kBytes
   one-center:        575. kBytes
   wavefun   :      55319. kBytes
 
  
  
 General timing and accounting informations for this job:
 ========================================================
  
                  Total CPU time used (sec):       76.773
                            User time (sec):       73.882
                          System time (sec):        2.891
                         Elapsed time (sec):       77.207
  
                   Maximum memory used (kb):      380772.
                   Average memory used (kb):          N/A
  
                          Minor page faults:        72620
                          Major page faults:            0
                 Voluntary context switches:         4782
