PROCAR new format
# of k-points:   10         # of bands:  252         # of ions:   37

 k-point     1 :    0.00000000 0.00000000 0.00000000     weight = 0.01562500

band     1 # energy  -17.14075179 # occ.  2.00000000
 
ion      s      p      d    tot
    1  0.000  0.000  0.000  0.000
    2  0.000  0.000  0.000  0.000
    3  0.000  0.000  0.000  0.000
    4  0.000  0.000  0.000  0.000
    5  0.000  0.000  0.000  0.000
    6  0.000  0.000  0.000  0.000
    7  0.000  0.000  0.000  0.000
    8  0.000  0.000  0.000  0.000
    9  0.000  0.000  0.000  0.000
   10  0.000  0.000  0.000  0.000
   11  0.000  0.000  0.000  0.000
   12  0.000  0.000  0.000  0.000
   13  0.000  0.000  0.000  0.000
   14  0.000  0.000  0.000  0.000
   15  0.000  0.000  0.000  0.000
   16  0.000  0.000  0.000  0.000
   17  0.000  0.000  0.000  0.000
   18  0.000  0.000  0.000  0.000
   19  0.000  0.000  0.000  0.000
   20  0.000  0.000  0.000  0.000
   21  0.000  0.000  0.000  0.000
   22  0.000  0.000  0.000  0.000
   23  0.000  0.000  0.000  0.000
   24  0.000  0.000  0.000  0.000
   25  0.000  0.000  0.000  0.000
   26  0.000  0.000  0.000  0.000
   27  0.000  0.000  0.000  0.000
   28  0.000  0.000  0.000  0.000
   29  0.000  0.000  0.000  0.000
   30  0.000  0.000  0.000  0.000
   31  0.000  0.000  0.000  0.000
   32  0.000  0.000  0.000  0.000
   33  0.000  0.000  0.000  0.000
   34  0.000  0.000  0.000  0.000
   35  0.000  0.000  0.000  0.000
   36  0.038  0.049  0.055  0.142
   37  0.772  0.012  0.000  0.784
tot    0.810  0.061  0.055  0.927
 
band     2 # energy   -6.36113021 # occ.  2.00000000
 
ion      s      p      d    tot
    1  0.006  0.001  0.000  0.006
    2  0.006  0.001  0.000  0.006
    3  0.006  0.001  0.000  0.006
    4  0.006  0.001  0.000  0.006
    5  0.006  0.001  0.000  0.006
    6  0.006  0.001  0.000  0.006
    7  0.006  0.001  0.000  0.006
    8  0.006  0.001  0.000  0.006
    9  0.006  0.001  0.000  0.006
   10  0.023  0.000  0.000  0.023
   11  0.023  0.000  0.000  0.024
   12  0.023  0.000  0.000  0.023
   13  0.023  0.000  0.000  0.024
   14  0.023  0.000  0.000  0.024
   15  0.023  0.000  0.000  0.024
   16  0.023  0.000  0.000  0.023
   17  0.023  0.000  0.000  0.024
   18  0.023  0.000  0.000  0.024
   19  0.022  0.000  0.000  0.023
   20  0.025  0.000  0.000  0.026
   21  0.025  0.000  0.000  0.026
   22  0.024  0.000  0.000  0.024
   23  0.025  0.000  0.000  0.026
   24  0.024  0.000  0.000  0.024
   25  0.022  0.000  0.000  0.023
   26  0.022  0.000  0.000  0.023
   27  0.024  0.000  0.000  0.024
   28  0.005  0.001  0.000  0.006
   29  0.005  0.001  0.000  0.006
   30  0.005  0.001  0.000  0.006
   31  0.005  0.001  0.000  0.006
   32  0.005  0.001  0.000  0.006
   33  0.005  0.001  0.000  0.006
   34  0.005  0.001  0.000  0.006
   35  0.005  0.001  0.000  0.006
   36  0.006  0.001  0.000  0.007
   37  0.001  0.001  0.000  0.001
tot    0.524  0.014  0.007  0.545
 
band     3 # energy   -5.48859052 # occ.  2.00000000
 
ion      s      p      d    tot
    1  0.008  0.000  0.000  0.009
    2  0.008  0.000  0.000  0.009
    3  0.008  0.000  0.000  0.009
    4  0.008  0.000  0.000  0.009
    5  0.008  0.000  0.000  0.009
    6  0.008  0.000  0.000  0.009
    7  0.008  0.000  0.000  0.009
    8  0.008  0.000  0.000  0.009
    9  0.008  0.000  0.000  0.009
   10  0.011  0.001  0.015  0.027
   11  0.011  0.001  0.015  0.027
   12  0.011  0.001  0.015  0.027
   13  0.011  0.001  0.015  0.027
   14  0.011  0.001  0.015  0.027
   15  0.012  0.001  0.014  0.027
   16  0.011  0.001  0.015  0.027
   17  0.012  0.001  0.014  0.027
   18  0.012  0.001  0.014  0.027
   19  0.011  0.001  0.017  0.029
   20  0.014  0.001  0.018  0.033
   21  0.014  0.001  0.018  0.033
   22  0.011  0.001  0.017  0.029
   23  0.014  0.001  0.018  0.033
   24  0.011  0.001  0.017  0.029
   25  0.011  0.001  0.017  0.029
   26  0.011  0.001  0.017  0.029
   27  0.011  0.001  0.017  0.029
   28  0.006  0.000  0.000  0.006
   29  0.006  0.000  0.000  0.006
   30  0.006  0.000  0.000  0.006
   31  0.006  0.000  0.000  0.006
   32  0.006  0.000  0.000  0.006
   33  0.006  0.000  0.000  0.006
   34  0.006  0.000  0.000  0.006
   35  0.006  0.000  0.000  0.006
   36  0.007  0.001  0.000  0.008
   37  0.001  0.002  0.000  0.002
tot    0.336  0.027  0.296  0.659
 
band     4 # energy   -5.19045293 # occ.  2.00000000
 
ion      s      p      d    tot
    1  0.013  0.000  0.026  0.039
    2  0.015  0.000  0.024  0.039
    3  0.015  0.000  0.024  0.039
    4  0.015  0.000  0.024  0.039
    5  0.015  0.000  0.024  0.039
    6  0.015  0.000  0.024  0.039
    7  0.015  0.000  0.024  0.039
    8  0.015  0.000  0.024  0.039
    9  0.017  0.000  0.023  0.040
   10  0.001  0.000  0.017  0.018
   11  0.001  0.001  0.023  0.024
   12  0.001  0.000  0.017  0.018
   13  0.001  0.001  0.023  0.024
   14  0.001  0.001  0.023  0.024
   15  0.000  0.000  0.023  0.024
   16  0.001  0.000  0.017  0.018
   17  0.000  0.000  0.023  0.024
   18  0.000  0.000  0.023  0.024
   19  0.000  0.000  0.008  0.009
   20  0.000  0.000  0.012  0.013
   21  0.000  0.000  0.012  0.013
   22  0.000  0.000  0.013  0.013
   23  0.000  0.000  0.012  0.013
   24  0.000  0.000  0.013  0.013
   25  0.000  0.000  0.008  0.009
   26  0.000  0.000  0.008  0.009
   27  0.000  0.000  0.013  0.013
   28  0.005  0.000  0.008  0.014
   29  0.005  0.000  0.007  0.013
   30  0.005  0.000  0.007  0.013
   31  0.005  0.000  0.007  0.013
   32  0.005  0.000  0.007  0.013
   33  0.005  0.000  0.007  0.013
   34  0.005  0.000  0.007  0.013
   35  0.005  0.000  0.009  0.014
   36  0.006  0.000  0.000  0.006
   37  0.000  0.001  0.000  0.001
tot    0.191  0.007  0.568  0.766
 
band     5 # energy   -5.11584444 # occ.  2.00000000
 
ion      s      p      d    tot
    1  0.008  0.001  0.000  0.009
    2  0.001  0.000  0.005  0.006
    3  0.001  0.000  0.005  0.006
    4  0.001  0.000  0.005  0.006
    5  0.000  0.000  0.003  0.003
    6  0.001  0.000  0.005  0.006
    7  0.001  0.000  0.005  0.006
    8  0.001  0.000  0.005  0.006
    9  0.000  0.000  0.004  0.005
   10  0.003  0.000  0.040  0.043
   11  0.000  0.001  0.017  0.018
   12  0.003  0.000  0.040  0.043
   13  0.000  0.001  0.017  0.018
   14  0.000  0.001  0.017  0.018
   15  0.009  0.001  0.007  0.017
   16  0.003  0.000  0.040  0.043
   17  0.009  0.001  0.007  0.017
   18  0.009  0.001  0.007  0.017
   19  0.000  0.001  0.040  0.041
   20  0.009  0.000  0.076  0.085
   21  0.009  0.000  0.076  0.085
   22  0.016  0.001  0.004  0.020
   23  0.009  0.000  0.076  0.085
   24  0.016  0.001  0.004  0.020
   25  0.000  0.001  0.040  0.040
   26  0.000  0.001  0.040  0.041
   27  0.016  0.001  0.004  0.020
   28  0.000  0.000  0.003  0.003
   29  0.000  0.000  0.006  0.007
   30  0.000  0.000  0.006  0.007
   31  0.000  0.000  0.006  0.007
   32  0.000  0.000  0.006  0.007
   33  0.000  0.000  0.006  0.007
   34  0.000  0.000  0.006  0.007
   35  0.004  0.001  0.002  0.007
   36  0.011  0.001  0.006  0.019
   37  0.001  0.007  0.000  0.008
tot    0.142  0.023  0.637  0.802
 
band     6 # energy   -5.07971885 # occ.  2.00000000
 
ion      s      p      d    tot
    1  0.000  0.000  0.000  0.000
    2  0.000  0.000  0.005  0.006
    3  0.000  0.000  0.005  0.006
    4  0.000  0.000  0.005  0.006
    5  0.005  0.001  0.001  0.007
    6  0.000  0.000  0.005  0.006
    7  0.000  0.000  0.005  0.006
    8  0.000  0.000  0.005  0.006
    9  0.003  0.000  0.002  0.005
   10  0.004  0.001  0.007  0.012
   11  0.009  0.000  0.021  0.030
   12  0.004  0.001  0.007  0.012
   13  0.009  0.000  0.021  0.030
   14  0.009  0.000  0.021  0.030
   15  0.001  0.000  0.034  0.035
   16  0.004  0.001  0.007  0.012
   17  0.001  0.000  0.034  0.035
   18  0.001  0.000  0.034  0.035
   19  0.017  0.001  0.031  0.048
   20  0.006  0.001  0.014  0.022
   21  0.006  0.001  0.014  0.021
   22  0.002  0.000  0.084  0.086
   23  0.006  0.001  0.014  0.021
   24  0.002  0.000  0.084  0.086
   25  0.017  0.001  0.030  0.048
   26  0.017  0.001  0.031  0.048
   27  0.002  0.000  0.084  0.086
   28  0.006  0.002  0.006  0.014
   29  0.000  0.000  0.005  0.005
   30  0.000  0.000  0.005  0.005
   31  0.000  0.000  0.005  0.005
   32  0.000  0.000  0.005  0.005
   33  0.000  0.000  0.005  0.005
   34  0.000  0.000  0.005  0.005
   35  0.001  0.001  0.011  0.013
   36  0.001  0.000  0.000  0.001
   37  0.000  0.000  0.000  0.000
tot    0.132  0.016  0.653  0.802
 
band     7 # energy   -5.07533360 # occ.  2.00000000
 
ion      s      p      d    tot
    1  0.000  0.000  0.002  0.002
    2  0.000  0.000  0.003  0.003
    3  0.002  0.000  0.004  0.007
    4  0.000  0.000  0.003  0.003
    5  0.000  0.000  0.010  0.011
    6  0.001  0.000  0.003  0.005
    7  0.002  0.001  0.004  0.007
    8  0.001  0.000  0.003  0.005
    9  0.000  0.000  0.004  0.004
   10  0.003  0.000  0.013  0.016
   11  0.006  0.001  0.045  0.052
   12  0.001  0.000  0.034  0.035
   13  0.006  0.001  0.045  0.051
   14  0.024  0.001  0.008  0.033
   15  0.003  0.001  0.016  0.019
   16  0.001  0.000  0.034  0.035
   17  0.003  0.001  0.016  0.020
   18  0.011  0.000  0.031  0.042
   19  0.000  0.001  0.037  0.038
   20  0.018  0.000  0.032  0.051
   21  0.005  0.001  0.023  0.029
   22  0.007  0.000  0.075  0.082
   23  0.005  0.001  0.023  0.029
   24  0.026  0.001  0.003  0.030
   25  0.001  0.000  0.023  0.024
   26  0.000  0.001  0.037  0.038
   27  0.006  0.000  0.076  0.082
   28  0.000  0.000  0.001  0.001
   29  0.002  0.001  0.006  0.009
   30  0.000  0.000  0.004  0.004
   31  0.002  0.001  0.006  0.009
   32  0.001  0.000  0.003  0.005
   33  0.000  0.000  0.004  0.004
   34  0.001  0.000  0.003  0.004
   35  0.000  0.000  0.009  0.010
   36  0.000  0.000  0.000  0.001
   37  0.000  0.000  0.000  0.000
tot    0.136  0.018  0.645  0.799
 
band     8 # energy   -5.07531322 # occ.  2.00000000
 
ion      s      p      d    tot
    1  0.000  0.000  0.002  0.002
    2  0.002  0.001  0.004  0.007
    3  0.000  0.000  0.003  0.003
    4  0.002  0.001  0.004  0.007
    5  0.000  0.000  0.010  0.011
    6  0.001  0.000  0.004  0.005
    7  0.000  0.000  0.003  0.003
    8  0.001  0.000  0.004  0.005
    9  0.000  0.000  0.004  0.004
   10  0.000  0.000  0.042  0.042
   11  0.018  0.001  0.020  0.039
   12  0.002  0.000  0.020  0.022
   13  0.018  0.001  0.021  0.039
   14  0.000  0.000  0.058  0.058
   15  0.008  0.001  0.026  0.035
   16  0.002  0.000  0.020  0.022
   17  0.008  0.001  0.026  0.035
   18  0.000  0.001  0.010  0.012
   19  0.000  0.000  0.028  0.029
   20  0.000  0.002  0.019  0.021
   21  0.013  0.001  0.029  0.043
   22  0.019  0.001  0.028  0.047
   23  0.014  0.001  0.029  0.044
   24  0.000  0.000  0.099  0.099
   25  0.000  0.001  0.042  0.043
   26  0.000  0.000  0.028  0.029
   27  0.019  0.001  0.027  0.047
   28  0.000  0.000  0.001  0.001
   29  0.000  0.000  0.002  0.003
   30  0.002  0.001  0.005  0.007
   31  0.000  0.000  0.002  0.003
   32  0.001  0.000  0.006  0.007
   33  0.002  0.001  0.005  0.008
   34  0.001  0.000  0.006  0.007
   35  0.000  0.000  0.009  0.010
   36  0.000  0.000  0.000  0.001
   37  0.000  0.000  0.000  0.000
tot    0.136  0.018  0.645  0.799
 
band     9 # energy   -5.07088663 # occ.  2.00000000
 
ion      s      p      d    tot
    1  0.000  0.000  0.006  0.006
    2  0.000  0.000  0.002  0.002
    3  0.001  0.000  0.004  0.005
    4  0.000  0.000  0.002  0.002
    5  0.000  0.000  0.001  0.001
    6  0.001  0.000  0.004  0.005
    7  0.001  0.000  0.004  0.005
    8  0.001  0.000  0.004  0.005
    9  0.000  0.000  0.006  0.006
   10  0.000  0.001  0.017  0.019
   11  0.000  0.000  0.031  0.031
   12  0.012  0.001  0.024  0.037
   13  0.000  0.000  0.031  0.032
   14  0.000  0.001  0.039  0.040
   15  0.012  0.001  0.022  0.035
   16  0.012  0.001  0.024  0.037
   17  0.012  0.001  0.022  0.035
   18  0.000  0.000  0.070  0.070
   19  0.017  0.001  0.025  0.043
   20  0.000  0.000  0.096  0.096
   21  0.009  0.000  0.031  0.040
   22  0.002  0.000  0.034  0.036
   23  0.009  0.000  0.031  0.040
   24  0.000  0.001  0.026  0.027
   25  0.000  0.001  0.036  0.037
   26  0.017  0.001  0.025  0.043
   27  0.002  0.000  0.034  0.036
   28  0.000  0.000  0.006  0.006
   29  0.001  0.000  0.005  0.006
   30  0.000  0.000  0.002  0.002
   31  0.001  0.000  0.005  0.006
   32  0.000  0.000  0.004  0.004
   33  0.000  0.000  0.002  0.002
   34  0.000  0.000  0.004  0.004
   35  0.000  0.000  0.001  0.001
   36  0.000  0.000  0.002  0.002
   37  0.000  0.000  0.000  0.000
tot    0.112  0.015  0.683  0.810
 
band    10 # energy   -5.07086698 # occ.  2.00000000
 
ion      s      p      d    tot
    1  0.000  0.000  0.006  0.006
    2  0.001  0.000  0.004  0.006
    3  0.000  0.000  0.003  0.003
    4  0.001  0.000  0.004  0.006
    5  0.000  0.000  0.001  0.001
    6  0.001  0.000  0.003  0.003
    7  0.000  0.000  0.003  0.003
    8  0.001  0.000  0.003  0.003
    9  0.000  0.000  0.006  0.006
   10  0.016  0.001  0.027  0.043
   11  0.000  0.001  0.037  0.037
   12  0.004  0.001  0.020  0.025
   13  0.000  0.001  0.037  0.037
   14  0.000  0.000  0.028  0.029
   15  0.004  0.000  0.054  0.059
   16  0.004  0.001  0.020  0.025
   17  0.004  0.000  0.054  0.059
   18  0.016  0.001  0.006  0.023
   19  0.006  0.001  0.032  0.039
   20  0.012  0.001  0.009  0.022
   21  0.003  0.000  0.074  0.077
   22  0.000  0.001  0.029  0.030
   23  0.003  0.000  0.074  0.077
   24  0.002  0.000  0.036  0.038
   25  0.023  0.001  0.022  0.045
   26  0.006  0.001  0.032  0.039
   27  0.000  0.001  0.029  0.030
   28  0.000  0.000  0.006  0.006
   29  0.000  0.000  0.002  0.002
   30  0.001  0.000  0.005  0.006
   31  0.000  0.000  0.002  0.002
   32  0.001  0.000  0.003  0.004
   33  0.001  0.000  0.005  0.006
   34  0.001  0.000  0.004  0.004
   35  0.000  0.000  0.001  0.001
   36  0.000  0.000  0.002  0.002
   37  0.000  0.000  0.000  0.000
tot    0.112  0.015  0.683  0.810
 
band    11 # energy   -5.05819972 # occ.  2.00000000
 
ion      s      p      d    tot
    1  0.002  0.001  0.007  0.009
    2  0.000  0.000  0.008  0.008
    3  0.000  0.000  0.008  0.008
    4  0.000  0.000  0.008  0.008
    5  0.001  0.000  0.005  0.006
    6  0.000  0.000  0.008  0.008
    7  0.000  0.000  0.008  0.008
    8  0.000  0.000  0.008  0.008
    9  0.004  0.000  0.006  0.010
   10  0.009  0.000  0.010  0.019
   11  0.003  0.000  0.067  0.070
   12  0.009  0.000  0.010  0.019
   13  0.003  0.000  0.067  0.070
   14  0.003  0.000  0.067  0.070
   15  0.000  0.000  0.049  0.049
   16  0.009  0.000  0.010  0.019
   17  0.000  0.000  0.049  0.049
   18  0.000  0.000  0.049  0.049
   19  0.001  0.001  0.006  0.007
   20  0.000  0.000  0.038  0.039
   21  0.001  0.000  0.038  0.039
   22  0.000  0.000  0.040  0.041
   23  0.001  0.000  0.038  0.039
   24  0.000  0.000  0.041  0.041
   25  0.001  0.001  0.006  0.007
   26  0.001  0.001  0.006  0.007
   27  0.000  0.000  0.040  0.041
   28  0.003  0.000  0.000  0.003
   29  0.001  0.000  0.011  0.012
   30  0.001  0.000  0.011  0.012
   31  0.001  0.000  0.011  0.012
   32  0.001  0.000  0.011  0.012
   33  0.001  0.000  0.011  0.012
   34  0.001  0.000  0.011  0.012
   35  0.003  0.000  0.008  0.012
   36  0.004  0.000  0.000  0.004
   37  0.000  0.001  0.000  0.001
tot    0.061  0.009  0.767  0.838
 
band    12 # energy   -5.03903094 # occ.  2.00000000
 
ion      s      p      d    tot
    1  0.003  0.000  0.017  0.020
    2  0.001  0.000  0.009  0.010
    3  0.001  0.000  0.009  0.010
    4  0.001  0.000  0.009  0.010
    5  0.001  0.001  0.001  0.003
    6  0.001  0.000  0.009  0.010
    7  0.001  0.000  0.009  0.010
    8  0.001  0.000  0.009  0.010
    9  0.003  0.001  0.002  0.006
   10  0.001  0.000  0.079  0.080
   11  0.006  0.000  0.012  0.018
   12  0.001  0.000  0.079  0.080
   13  0.006  0.000  0.012  0.018
   14  0.006  0.000  0.012  0.018
   15  0.005  0.000  0.035  0.041
   16  0.001  0.000  0.079  0.080
   17  0.005  0.000  0.035  0.041
   18  0.005  0.000  0.035  0.041
   19  0.000  0.000  0.043  0.043
   20  0.000  0.001  0.018  0.019
   21  0.000  0.001  0.018  0.019
   22  0.001  0.000  0.023  0.024
   23  0.000  0.001  0.018  0.019
   24  0.001  0.000  0.023  0.024
   25  0.000  0.000  0.043  0.043
   26  0.000  0.000  0.043  0.043
   27  0.001  0.000  0.023  0.024
   28  0.005  0.000  0.011  0.015
   29  0.001  0.000  0.009  0.010
   30  0.001  0.000  0.009  0.010
   31  0.001  0.000  0.009  0.010
   32  0.001  0.000  0.009  0.010
   33  0.001  0.000  0.009  0.010
   34  0.001  0.000  0.009  0.010
   35  0.000  0.000  0.003  0.004
   36  0.001  0.000  0.001  0.003
   37  0.000  0.001  0.000  0.001
tot    0.061  0.009  0.772  0.841
 
band    13 # energy   -5.03345578 # occ.  2.00000000
 
ion      s      p      d    tot
    1  0.000  0.000  0.016  0.016
    2  0.000  0.000  0.008  0.009
    3  0.001  0.000  0.006  0.007
    4  0.000  0.000  0.009  0.009
    5  0.000  0.000  0.004  0.004
    6  0.001  0.000  0.008  0.009
    7  0.002  0.000  0.005  0.007
    8  0.002  0.000  0.006  0.008
    9  0.000  0.000  0.008  0.009
   10  0.006  0.000  0.037  0.043
   11  0.000  0.000  0.019  0.019
   12  0.003  0.000  0.040  0.043
   13  0.000  0.000  0.025  0.025
   14  0.000  0.000  0.035  0.035
   15  0.001  0.000  0.083  0.084
   16  0.001  0.000  0.042  0.043
   17  0.003  0.000  0.056  0.059
   18  0.008  0.000  0.010  0.018
   19  0.001  0.000  0.062  0.063
   20  0.003  0.000  0.013  0.017
   21  0.001  0.000  0.039  0.040
   22  0.000  0.000  0.023  0.024
   23  0.000  0.000  0.054  0.054
   24  0.000  0.000  0.041  0.042
   25  0.006  0.000  0.024  0.030
   26  0.002  0.000  0.048  0.051
   27  0.000  0.000  0.013  0.013
   28  0.000  0.000  0.013  0.014
   29  0.002  0.000  0.004  0.007
   30  0.001  0.000  0.006  0.007
   31  0.002  0.000  0.005  0.007
   32  0.001  0.000  0.007  0.008
   33  0.000  0.000  0.007  0.007
   34  0.000  0.000  0.008  0.008
   35  0.000  0.000  0.007  0.007
   36  0.000  0.000  0.000  0.001
   37  0.000  0.000  0.000  0.000
tot    0.049  0.007  0.792  0.847
 
band    14 # energy   -5.03345432 # occ.  2.00000000
 
ion      s      p      d    tot
    1  0.000  0.000  0.016  0.016
    2  0.002  0.000  0.005  0.008
    3  0.001  0.000  0.008  0.009
    4  0.002  0.000  0.005  0.007
    5  0.000  0.000  0.004  0.004
    6  0.001  0.000  0.006  0.008
    7  0.000  0.000  0.009  0.010
    8  0.000  0.000  0.008  0.009
    9  0.000  0.000  0.008  0.009
   10  0.000  0.000  0.043  0.043
   11  0.000  0.000  0.033  0.033
   12  0.003  0.000  0.040  0.043
   13  0.000  0.000  0.028  0.028
   14  0.000  0.000  0.018  0.018
   15  0.007  0.000  0.016  0.024
   16  0.005  0.000  0.038  0.043
   17  0.005  0.000  0.044  0.048
   18  0.000  0.000  0.090  0.090
   19  0.005  0.000  0.027  0.033
   20  0.000  0.000  0.057  0.057
   21  0.002  0.000  0.032  0.034
   22  0.000  0.000  0.028  0.028
   23  0.003  0.000  0.017  0.020
   24  0.000  0.000  0.010  0.011
   25  0.000  0.000  0.065  0.065
   26  0.003  0.000  0.041  0.045
   27  0.000  0.000  0.039  0.039
   28  0.000  0.000  0.013  0.014
   29  0.000  0.000  0.008  0.008
   30  0.002  0.000  0.006  0.008
   31  0.000  0.000  0.007  0.008
   32  0.001  0.000  0.005  0.007
   33  0.002  0.000  0.005  0.007
   34  0.002  0.000  0.004  0.006
   35  0.000  0.000  0.007  0.007
   36  0.000  0.000  0.000  0.001
   37  0.000  0.000  0.000  0.000
tot    0.049  0.007  0.792  0.847
 
band    15 # energy   -5.01805300 # occ.  2.00000000
 
ion      s      p      d    tot
    1  0.000  0.001  0.007  0.007
    2  0.000  0.000  0.011  0.012
    3  0.003  0.001  0.007  0.011
    4  0.000  0.000  0.012  0.012
    5  0.000  0.000  0.015  0.015
    6  0.002  0.000  0.008  0.010
    7  0.003  0.001  0.006  0.010
    8  0.002  0.000  0.007  0.010
    9  0.000  0.000  0.014  0.014
   10  0.000  0.000  0.084  0.084
   11  0.010  0.000  0.032  0.042
   12  0.008  0.000  0.031  0.039
   13  0.009  0.000  0.035  0.045
   14  0.000  0.000  0.070  0.070
   15  0.000  0.000  0.042  0.042
   16  0.008  0.000  0.025  0.034
   17  0.000  0.000  0.039  0.039
   18  0.000  0.000  0.013  0.013
   19  0.003  0.000  0.020  0.023
   20  0.000  0.000  0.022  0.022
   21  0.000  0.000  0.033  0.033
   22  0.005  0.000  0.024  0.029
   23  0.000  0.000  0.034  0.034
   24  0.000  0.000  0.056  0.056
   25  0.000  0.000  0.039  0.039
   26  0.003  0.000  0.022  0.024
   27  0.005  0.000  0.021  0.027
   28  0.000  0.000  0.003  0.003
   29  0.002  0.000  0.003  0.005
   30  0.000  0.000  0.007  0.008
   31  0.002  0.000  0.002  0.004
   32  0.001  0.000  0.003  0.003
   33  0.000  0.000  0.007  0.007
   34  0.000  0.000  0.003  0.004
   35  0.000  0.000  0.005  0.006
   36  0.000  0.000  0.001  0.001
   37  0.000  0.000  0.000  0.000
tot    0.068  0.009  0.763  0.839
 
band    16 # energy   -5.01805188 # occ.  2.00000000
 
ion      s      p      d    tot
    1  0.000  0.001  0.007  0.007
    2  0.004  0.001  0.006  0.010
    3  0.001  0.000  0.010  0.011
    4  0.004  0.001  0.006  0.010
    5  0.000  0.000  0.015  0.015
    6  0.002  0.001  0.009  0.011
    7  0.000  0.000  0.011  0.011
    8  0.001  0.001  0.010  0.012
    9  0.000  0.000  0.014  0.014
   10  0.011  0.000  0.009  0.020
   11  0.003  0.000  0.059  0.062
   12  0.003  0.000  0.063  0.066
   13  0.004  0.000  0.056  0.060
   14  0.013  0.000  0.022  0.035
   15  0.000  0.000  0.021  0.021
   16  0.002  0.000  0.069  0.071
   17  0.000  0.000  0.024  0.024
   18  0.000  0.000  0.050  0.050
   19  0.001  0.000  0.033  0.034
   20  0.000  0.000  0.037  0.038
   21  0.000  0.000  0.027  0.027
   22  0.002  0.000  0.043  0.045
   23  0.000  0.000  0.025  0.026
   24  0.007  0.000  0.012  0.019
   25  0.004  0.000  0.015  0.019
   26  0.001  0.000  0.032  0.033
   27  0.001  0.000  0.046  0.048
   28  0.000  0.000  0.003  0.003
   29  0.000  0.000  0.006  0.006
   30  0.001  0.000  0.001  0.003
   31  0.000  0.000  0.006  0.006
   32  0.001  0.000  0.005  0.007
   33  0.001  0.000  0.001  0.003
   34  0.001  0.000  0.005  0.007
   35  0.000  0.000  0.005  0.006
   36  0.000  0.000  0.001  0.001
   37  0.000  0.000  0.000  0.000
tot    0.068  0.009  0.763  0.839
 
band    17 # energy   -4.99238510 # occ.  2.00000000
 
ion      s      p      d    tot
    1  0.003  0.000  0.002  0.005
    2  0.002  0.000  0.011  0.013
    3  0.002  0.000  0.011  0.013
    4  0.002  0.000  0.011  0.013
    5  0.005  0.000  0.011  0.016
    6  0.003  0.000  0.011  0.013
    7  0.002  0.000  0.011  0.013
    8  0.003  0.000  0.011  0.013
    9  0.001  0.000  0.017  0.018
   10  0.000  0.000  0.009  0.010
   11  0.001  0.000  0.015  0.016
   12  0.000  0.000  0.009  0.010
   13  0.001  0.000  0.015  0.016
   14  0.001  0.000  0.015  0.016
   15  0.003  0.000  0.016  0.019
   16  0.000  0.000  0.009  0.010
   17  0.003  0.000  0.016  0.019
   18  0.003  0.000  0.016  0.019
   19  0.002  0.000  0.012  0.014
   20  0.002  0.001  0.033  0.036
   21  0.002  0.001  0.033  0.036
   22  0.000  0.001  0.017  0.018
   23  0.002  0.001  0.033  0.036
   24  0.000  0.001  0.017  0.018
   25  0.002  0.000  0.012  0.014
   26  0.002  0.000  0.012  0.014
   27  0.000  0.001  0.017  0.018
   28  0.008  0.000  0.021  0.029
   29  0.012  0.000  0.028  0.040
   30  0.012  0.000  0.028  0.040
   31  0.012  0.000  0.028  0.040
   32  0.012  0.000  0.028  0.040
   33  0.012  0.000  0.028  0.040
   34  0.012  0.000  0.028  0.040
   35  0.020  0.000  0.026  0.047
   36  0.008  0.000  0.005  0.012
   37  0.001  0.000  0.000  0.001
tot    0.155  0.009  0.623  0.787
 
band    18 # energy   -4.88641049 # occ.  2.00000000
 
ion      s      p      d    tot
    1  0.001  0.000  0.001  0.002
    2  0.000  0.000  0.008  0.008
    3  0.000  0.000  0.008  0.008
    4  0.000  0.000  0.008  0.008
    5  0.001  0.000  0.012  0.013
    6  0.000  0.000  0.008  0.008
    7  0.000  0.000  0.008  0.008
    8  0.000  0.000  0.008  0.008
    9  0.000  0.000  0.008  0.009
   10  0.000  0.000  0.014  0.014
   11  0.000  0.000  0.049  0.050
   12  0.000  0.000  0.014  0.014
   13  0.000  0.000  0.049  0.050
   14  0.000  0.000  0.049  0.050
   15  0.002  0.001  0.050  0.052
   16  0.000  0.000  0.014  0.014
   17  0.002  0.001  0.050  0.052
   18  0.002  0.001  0.050  0.052
   19  0.000  0.000  0.022  0.023
   20  0.000  0.000  0.053  0.054
   21  0.000  0.000  0.053  0.053
   22  0.002  0.001  0.034  0.037
   23  0.000  0.000  0.053  0.053
   24  0.002  0.001  0.034  0.037
   25  0.000  0.000  0.022  0.023
   26  0.000  0.000  0.022  0.023
   27  0.002  0.001  0.034  0.037
   28  0.008  0.001  0.003  0.012
   29  0.001  0.000  0.012  0.013
   30  0.001  0.000  0.012  0.013
   31  0.001  0.000  0.012  0.013
   32  0.001  0.000  0.012  0.013
   33  0.001  0.000  0.012  0.013
   34  0.001  0.000  0.012  0.013
   35  0.001  0.000  0.001  0.002
   36  0.003  0.001  0.006  0.009
   37  0.000  0.003  0.000  0.004
tot    0.033  0.017  0.814  0.864
 
band    19 # energy   -4.86516990 # occ.  2.00000000
 
ion      s      p      d    tot
    1  0.000  0.000  0.007  0.007
    2  0.000  0.000  0.010  0.010
    3  0.000  0.000  0.010  0.010
    4  0.000  0.000  0.010  0.010
    5  0.003  0.001  0.005  0.009
    6  0.000  0.000  0.010  0.010
    7  0.000  0.000  0.010  0.010
    8  0.000  0.000  0.010  0.010
    9  0.002  0.000  0.001  0.004
   10  0.002  0.001  0.049  0.052
   11  0.000  0.001  0.042  0.043
   12  0.002  0.001  0.048  0.051
   13  0.000  0.001  0.042  0.043
   14  0.000  0.001  0.042  0.042
   15  0.001  0.000  0.018  0.019
   16  0.002  0.001  0.048  0.051
   17  0.001  0.000  0.018  0.019
   18  0.001  0.000  0.017  0.018
   19  0.001  0.001  0.054  0.056
   20  0.001  0.000  0.030  0.031
   21  0.001  0.000  0.029  0.030
   22  0.000  0.000  0.034  0.034
   23  0.001  0.000  0.029  0.030
   24  0.000  0.000  0.033  0.034
   25  0.001  0.001  0.053  0.055
   26  0.001  0.001  0.054  0.056
   27  0.000  0.000  0.034  0.034
   28  0.000  0.000  0.009  0.009
   29  0.000  0.000  0.010  0.010
   30  0.000  0.000  0.009  0.010
   31  0.000  0.000  0.010  0.010
   32  0.000  0.000  0.009  0.010
   33  0.000  0.000  0.009  0.010
   34  0.000  0.000  0.009  0.010
   35  0.003  0.001  0.003  0.008
   36  0.001  0.000  0.002  0.003
   37  0.000  0.000  0.000  0.000
tot    0.028  0.016  0.816  0.860
 
band    20 # energy   -4.86218411 # occ.  2.00000000
 
ion      s      p      d    tot
    1  0.000  0.000  0.004  0.004
    2  0.001  0.001  0.009  0.010
    3  0.000  0.000  0.008  0.008
    4  0.001  0.001  0.009  0.010
    5  0.000  0.000  0.005  0.006
    6  0.001  0.001  0.005  0.007
    7  0.000  0.000  0.008  0.008
    8  0.001  0.001  0.005  0.007
    9  0.000  0.001  0.019  0.020
   10  0.001  0.001  0.030  0.033
   11  0.000  0.000  0.063  0.063
   12  0.000  0.000  0.010  0.011
   13  0.000  0.000  0.062  0.062
   14  0.000  0.000  0.022  0.023
   15  0.001  0.000  0.058  0.059
   16  0.000  0.000  0.009  0.010
   17  0.001  0.000  0.057  0.058
   18  0.003  0.000  0.049  0.052
   19  0.000  0.000  0.010  0.010
   20  0.004  0.001  0.040  0.045
   21  0.001  0.000  0.042  0.043
   22  0.000  0.000  0.065  0.066
   23  0.001  0.000  0.042  0.043
   24  0.001  0.000  0.029  0.031
   25  0.001  0.001  0.027  0.029
   26  0.000  0.000  0.010  0.011
   27  0.000  0.000  0.066  0.067
   28  0.000  0.000  0.002  0.002
   29  0.000  0.000  0.007  0.007
   30  0.001  0.001  0.008  0.010
   31  0.000  0.000  0.007  0.007
   32  0.002  0.001  0.005  0.007
   33  0.001  0.001  0.008  0.010
   34  0.002  0.001  0.005  0.007
   35  0.000  0.001  0.010  0.010
   36  0.000  0.001  0.003  0.004
   37  0.000  0.000  0.000  0.000
tot    0.027  0.016  0.819  0.862
 
band    21 # energy   -4.86216512 # occ.  2.00000000
 
ion      s      p      d    tot
    1  0.000  0.000  0.004  0.004
    2  0.001  0.000  0.005  0.006
    3  0.001  0.001  0.007  0.009
    4  0.001  0.000  0.005  0.007
    5  0.000  0.000  0.005  0.006
    6  0.000  0.000  0.009  0.010
    7  0.001  0.001  0.007  0.009
    8  0.000  0.000  0.009  0.010
    9  0.000  0.001  0.019  0.020
   10  0.000  0.000  0.002  0.002
   11  0.000  0.000  0.036  0.036
   12  0.001  0.001  0.023  0.025
   13  0.000  0.000  0.036  0.037
   14  0.000  0.000  0.076  0.076
   15  0.002  0.000  0.051  0.054
   16  0.001  0.001  0.024  0.026
   17  0.002  0.000  0.051  0.054
   18  0.000  0.000  0.060  0.060
   19  0.001  0.001  0.021  0.023
   20  0.000  0.000  0.043  0.043
   21  0.003  0.000  0.041  0.045
   22  0.001  0.000  0.042  0.043
   23  0.003  0.000  0.041  0.045
   24  0.000  0.000  0.077  0.078
   25  0.000  0.000  0.005  0.005
   26  0.001  0.001  0.021  0.023
   27  0.001  0.000  0.041  0.042
   28  0.000  0.000  0.002  0.003
   29  0.002  0.001  0.006  0.009
   30  0.001  0.000  0.005  0.007
   31  0.002  0.001  0.006  0.009
   32  0.000  0.000  0.008  0.009
   33  0.001  0.000  0.005  0.007
   34  0.000  0.000  0.008  0.009
   35  0.000  0.001  0.010  0.010
   36  0.000  0.001  0.003  0.004