PROCAR new format
# of k-points:   10         # of bands:  252         # of ions:   38

 k-point     1 :    0.00000000 0.00000000 0.00000000     weight = 0.01562500

band     1 # energy  -24.61634167 # occ.  2.00000000
 
ion      s      p      d    tot
    1  0.000  0.000  0.000  0.000
    2  0.000  0.000  0.000  0.000
    3  0.000  0.000  0.000  0.000
    4  0.000  0.000  0.000  0.000
    5  0.000  0.000  0.000  0.000
    6  0.000  0.000  0.000  0.000
    7  0.000  0.000  0.000  0.000
    8  0.000  0.000  0.000  0.000
    9  0.000  0.000  0.000  0.000
   10  0.000  0.000  0.000  0.000
   11  0.000  0.000  0.000  0.000
   12  0.000  0.000  0.000  0.000
   13  0.000  0.000  0.000  0.000
   14  0.000  0.000  0.000  0.000
   15  0.000  0.000  0.000  0.000
   16  0.000  0.000  0.000  0.000
   17  0.000  0.000  0.000  0.000
   18  0.000  0.000  0.000  0.000
   19  0.000  0.000  0.000  0.000
   20  0.000  0.000  0.000  0.000
   21  0.000  0.000  0.000  0.000
   22  0.000  0.000  0.000  0.000
   23  0.000  0.000  0.000  0.000
   24  0.000  0.000  0.000  0.000
   25  0.000  0.000  0.000  0.000
   26  0.000  0.000  0.000  0.000
   27  0.000  0.000  0.000  0.000
   28  0.000  0.000  0.000  0.000
   29  0.000  0.000  0.000  0.000
   30  0.000  0.000  0.000  0.000
   31  0.000  0.000  0.000  0.000
   32  0.000  0.000  0.000  0.000
   33  0.000  0.000  0.000  0.000
   34  0.000  0.000  0.000  0.000
   35  0.000  0.000  0.000  0.000
   36  0.000  0.000  0.000  0.000
   37  0.161  0.119  0.000  0.280
   38  0.639  0.097  0.000  0.736
tot    0.800  0.216  0.000  1.017
 
band     2 # energy  -10.24366297 # occ.  2.00000000
 
ion      s      p      d    tot
    1  0.000  0.000  0.000  0.000
    2  0.000  0.000  0.000  0.000
    3  0.000  0.000  0.000  0.000
    4  0.000  0.000  0.000  0.000
    5  0.000  0.000  0.000  0.000
    6  0.000  0.000  0.000  0.000
    7  0.000  0.000  0.000  0.000
    8  0.000  0.000  0.000  0.000
    9  0.000  0.000  0.000  0.000
   10  0.000  0.000  0.000  0.000
   11  0.000  0.000  0.000  0.000
   12  0.000  0.000  0.000  0.000
   13  0.000  0.000  0.000  0.000
   14  0.000  0.000  0.000  0.000
   15  0.000  0.000  0.000  0.000
   16  0.000  0.000  0.000  0.000
   17  0.000  0.000  0.000  0.000
   18  0.000  0.000  0.000  0.000
   19  0.000  0.000  0.000  0.000
   20  0.001  0.000  0.000  0.001
   21  0.001  0.000  0.000  0.001
   22  0.000  0.000  0.000  0.000
   23  0.001  0.000  0.000  0.001
   24  0.000  0.000  0.000  0.000
   25  0.000  0.000  0.000  0.000
   26  0.000  0.000  0.000  0.000
   27  0.000  0.000  0.000  0.000
   28  0.000  0.000  0.000  0.000
   29  0.001  0.000  0.000  0.001
   30  0.001  0.000  0.000  0.001
   31  0.001  0.000  0.000  0.001
   32  0.001  0.000  0.000  0.001
   33  0.001  0.000  0.000  0.001
   34  0.001  0.000  0.000  0.001
   35  0.000  0.000  0.000  0.000
   36  0.045  0.027  0.085  0.156
   37  0.278  0.009  0.000  0.287
   38  0.134  0.201  0.000  0.335
tot    0.468  0.237  0.086  0.791
 
band     3 # energy   -9.19640124 # occ.  2.00000000
 
ion      s      p      d    tot
    1  0.006  0.001  0.000  0.007
    2  0.006  0.001  0.000  0.007
    3  0.006  0.001  0.000  0.007
    4  0.006  0.001  0.000  0.007
    5  0.006  0.001  0.000  0.007
    6  0.006  0.001  0.000  0.007
    7  0.006  0.001  0.000  0.007
    8  0.006  0.001  0.000  0.007
    9  0.006  0.001  0.000  0.007
   10  0.024  0.000  0.000  0.025
   11  0.024  0.000  0.000  0.024
   12  0.024  0.000  0.000  0.025
   13  0.024  0.000  0.000  0.024
   14  0.024  0.000  0.000  0.024
   15  0.024  0.000  0.000  0.024
   16  0.024  0.000  0.000  0.025
   17  0.024  0.000  0.000  0.024
   18  0.024  0.000  0.000  0.024
   19  0.025  0.000  0.000  0.025
   20  0.023  0.000  0.000  0.024
   21  0.023  0.000  0.000  0.024
   22  0.025  0.000  0.000  0.025
   23  0.023  0.000  0.000  0.024
   24  0.025  0.000  0.000  0.025
   25  0.025  0.000  0.000  0.025
   26  0.025  0.000  0.000  0.025
   27  0.025  0.000  0.000  0.025
   28  0.007  0.001  0.000  0.008
   29  0.007  0.001  0.000  0.007
   30  0.007  0.001  0.000  0.007
   31  0.007  0.001  0.000  0.007
   32  0.007  0.001  0.000  0.007
   33  0.007  0.001  0.000  0.007
   34  0.007  0.001  0.000  0.007
   35  0.007  0.001  0.000  0.008
   36  0.006  0.002  0.000  0.008
   37  0.003  0.001  0.000  0.004
   38  0.004  0.011  0.000  0.015
tot    0.560  0.030  0.001  0.591
 
band     4 # energy   -7.99893397 # occ.  2.00000000
 
ion      s      p      d    tot
    1  0.012  0.001  0.000  0.013
    2  0.012  0.001  0.000  0.013
    3  0.012  0.001  0.000  0.013
    4  0.012  0.001  0.000  0.013
    5  0.012  0.001  0.000  0.012
    6  0.012  0.001  0.000  0.013
    7  0.012  0.001  0.000  0.013
    8  0.012  0.001  0.000  0.013
    9  0.012  0.001  0.000  0.013
   10  0.008  0.001  0.000  0.010
   11  0.008  0.001  0.000  0.010
   12  0.008  0.001  0.000  0.010
   13  0.008  0.001  0.000  0.010
   14  0.008  0.001  0.000  0.010
   15  0.009  0.001  0.000  0.010
   16  0.008  0.001  0.000  0.010
   17  0.009  0.001  0.000  0.010
   18  0.009  0.001  0.000  0.010
   19  0.004  0.002  0.000  0.006
   20  0.006  0.002  0.000  0.009
   21  0.006  0.002  0.000  0.009
   22  0.004  0.002  0.000  0.006
   23  0.006  0.002  0.000  0.009
   24  0.004  0.002  0.000  0.006
   25  0.004  0.002  0.000  0.006
   26  0.004  0.002  0.000  0.006
   27  0.004  0.002  0.000  0.006
   28  0.010  0.000  0.000  0.011
   29  0.012  0.000  0.000  0.012
   30  0.012  0.000  0.000  0.012
   31  0.012  0.000  0.000  0.012
   32  0.012  0.000  0.000  0.012
   33  0.012  0.000  0.000  0.012
   34  0.012  0.000  0.000  0.012
   35  0.010  0.000  0.000  0.011
   36  0.052  0.003  0.037  0.092
   37  0.001  0.078  0.000  0.079
   38  0.016  0.135  0.000  0.151
tot    0.387  0.252  0.048  0.687
 
band     5 # energy   -7.67742028 # occ.  2.00000000
 
ion      s      p      d    tot
    1  0.006  0.000  0.000  0.006
    2  0.006  0.000  0.000  0.007
    3  0.006  0.000  0.000  0.007
    4  0.006  0.000  0.000  0.007
    5  0.007  0.000  0.000  0.007
    6  0.006  0.000  0.000  0.007
    7  0.006  0.000  0.000  0.007
    8  0.006  0.000  0.000  0.007
    9  0.006  0.000  0.000  0.006
   10  0.002  0.001  0.000  0.003
   11  0.003  0.001  0.000  0.004
   12  0.002  0.001  0.000  0.003
   13  0.003  0.001  0.000  0.004
   14  0.003  0.001  0.000  0.004
   15  0.001  0.001  0.000  0.003
   16  0.002  0.001  0.000  0.003
   17  0.001  0.001  0.000  0.003
   18  0.001  0.001  0.000  0.003
   19  0.008  0.001  0.000  0.009
   20  0.001  0.001  0.002  0.004
   21  0.001  0.001  0.002  0.004
   22  0.007  0.001  0.000  0.008
   23  0.001  0.001  0.002  0.004
   24  0.007  0.001  0.000  0.008
   25  0.008  0.001  0.000  0.009
   26  0.008  0.001  0.000  0.009
   27  0.007  0.001  0.000  0.008
   28  0.010  0.001  0.000  0.011
   29  0.007  0.001  0.000  0.008
   30  0.007  0.001  0.000  0.008
   31  0.007  0.001  0.000  0.008
   32  0.007  0.001  0.000  0.008
   33  0.007  0.001  0.000  0.008
   34  0.007  0.001  0.000  0.008
   35  0.010  0.001  0.000  0.011
   36  0.013  0.025  0.179  0.216
   37  0.013  0.147  0.000  0.160
   38  0.016  0.185  0.000  0.201
tot    0.225  0.380  0.193  0.798
 
band     6 # energy   -7.41664729 # occ.  2.00000000
 
ion      s      p      d    tot
    1  0.000  0.000  0.000  0.000
    2  0.000  0.000  0.000  0.000
    3  0.000  0.000  0.000  0.000
    4  0.000  0.000  0.000  0.000
    5  0.000  0.000  0.000  0.000
    6  0.000  0.000  0.000  0.000
    7  0.000  0.000  0.000  0.000
    8  0.000  0.000  0.000  0.000
    9  0.000  0.000  0.000  0.000
   10  0.000  0.000  0.000  0.000
   11  0.000  0.000  0.000  0.000
   12  0.000  0.000  0.000  0.000
   13  0.000  0.000  0.000  0.000
   14  0.000  0.000  0.000  0.000
   15  0.000  0.000  0.000  0.000
   16  0.000  0.000  0.000  0.000
   17  0.000  0.000  0.000  0.000
   18  0.000  0.000  0.000  0.000
   19  0.000  0.000  0.000  0.000
   20  0.000  0.000  0.000  0.000
   21  0.000  0.000  0.000  0.000
   22  0.000  0.000  0.000  0.000
   23  0.000  0.000  0.000  0.000
   24  0.000  0.000  0.000  0.000
   25  0.000  0.000  0.000  0.000
   26  0.000  0.000  0.000  0.000
   27  0.000  0.000  0.000  0.000
   28  0.000  0.000  0.000  0.000
   29  0.000  0.000  0.000  0.001
   30  0.000  0.000  0.000  0.000
   31  0.000  0.000  0.000  0.001
   32  0.000  0.000  0.000  0.001
   33  0.000  0.000  0.000  0.000
   34  0.000  0.000  0.000  0.001
   35  0.000  0.000  0.000  0.000
   36  0.000  0.003  0.037  0.039
   37  0.000  0.180  0.000  0.180
   38  0.000  0.463  0.000  0.463
tot    0.001  0.646  0.039  0.687
 
band     7 # energy   -7.41655887 # occ.  2.00000000
 
ion      s      p      d    tot
    1  0.000  0.000  0.000  0.000
    2  0.000  0.000  0.000  0.000
    3  0.000  0.000  0.000  0.000
    4  0.000  0.000  0.000  0.000
    5  0.000  0.000  0.000  0.000
    6  0.000  0.000  0.000  0.000
    7  0.000  0.000  0.000  0.000
    8  0.000  0.000  0.000  0.000
    9  0.000  0.000  0.000  0.000
   10  0.000  0.000  0.000  0.000
   11  0.000  0.000  0.000  0.000
   12  0.000  0.000  0.000  0.000
   13  0.000  0.000  0.000  0.000
   14  0.000  0.000  0.000  0.000
   15  0.000  0.000  0.000  0.000
   16  0.000  0.000  0.000  0.000
   17  0.000  0.000  0.000  0.000
   18  0.000  0.000  0.000  0.000
   19  0.000  0.000  0.000  0.000
   20  0.000  0.000  0.000  0.000
   21  0.000  0.000  0.000  0.000
   22  0.000  0.000  0.000  0.000
   23  0.000  0.000  0.000  0.000
   24  0.000  0.000  0.000  0.000
   25  0.000  0.000  0.000  0.000
   26  0.000  0.000  0.000  0.000
   27  0.000  0.000  0.000  0.000
   28  0.000  0.000  0.000  0.000
   29  0.000  0.000  0.000  0.000
   30  0.000  0.000  0.001  0.001
   31  0.000  0.000  0.000  0.000
   32  0.000  0.000  0.000  0.000
   33  0.000  0.000  0.001  0.001
   34  0.000  0.000  0.000  0.000
   35  0.000  0.000  0.000  0.000
   36  0.000  0.003  0.037  0.039
   37  0.000  0.180  0.000  0.180
   38  0.000  0.463  0.000  0.463
tot    0.001  0.646  0.039  0.687
 
band     8 # energy   -6.32819124 # occ.  2.00000000
 
ion      s      p      d    tot
    1  0.016  0.000  0.005  0.022
    2  0.015  0.000  0.005  0.021
    3  0.015  0.000  0.005  0.021
    4  0.015  0.000  0.005  0.021
    5  0.010  0.000  0.006  0.016
    6  0.015  0.000  0.005  0.021
    7  0.015  0.000  0.005  0.021
    8  0.015  0.000  0.005  0.021
    9  0.022  0.000  0.004  0.026
   10  0.003  0.004  0.002  0.008
   11  0.007  0.004  0.001  0.013
   12  0.003  0.004  0.002  0.008
   13  0.007  0.004  0.001  0.013
   14  0.007  0.004  0.001  0.013
   15  0.000  0.003  0.003  0.006
   16  0.003  0.004  0.002  0.008
   17  0.000  0.003  0.003  0.006
   18  0.000  0.003  0.003  0.006
   19  0.003  0.003  0.004  0.010
   20  0.014  0.004  0.003  0.021
   21  0.014  0.004  0.003  0.021
   22  0.002  0.003  0.004  0.009
   23  0.014  0.004  0.003  0.021
   24  0.002  0.003  0.004  0.009
   25  0.003  0.003  0.004  0.010
   26  0.003  0.003  0.004  0.010
   27  0.002  0.003  0.004  0.009
   28  0.019  0.000  0.006  0.025
   29  0.017  0.000  0.007  0.024
   30  0.017  0.000  0.007  0.024
   31  0.017  0.000  0.007  0.024
   32  0.017  0.000  0.007  0.024
   33  0.017  0.000  0.007  0.024
   34  0.017  0.000  0.007  0.024
   35  0.022  0.000  0.006  0.028
   36  0.012  0.002  0.036  0.050
   37  0.000  0.000  0.000  0.000
   38  0.000  0.001  0.000  0.001
tot    0.382  0.066  0.191  0.639
 
band     9 # energy   -6.24707332 # occ.  2.00000000
 
ion      s      p      d    tot
    1  0.000  0.003  0.005  0.007
    2  0.008  0.002  0.002  0.012
    3  0.004  0.001  0.002  0.007
    4  0.008  0.002  0.002  0.012
    5  0.000  0.001  0.002  0.003
    6  0.001  0.001  0.002  0.003
    7  0.004  0.001  0.002  0.007
    8  0.000  0.001  0.002  0.003
    9  0.000  0.000  0.003  0.003
   10  0.054  0.003  0.005  0.062
   11  0.002  0.009  0.003  0.014
   12  0.014  0.005  0.009  0.028
   13  0.002  0.009  0.003  0.014
   14  0.007  0.000  0.005  0.013
   15  0.005  0.002  0.010  0.017
   16  0.013  0.005  0.009  0.027
   17  0.005  0.002  0.010  0.017
   18  0.022  0.004  0.002  0.028
   19  0.012  0.008  0.006  0.027
   20  0.050  0.005  0.004  0.058
   21  0.013  0.001  0.014  0.028
   22  0.000  0.008  0.004  0.012
   23  0.012  0.001  0.014  0.027
   24  0.000  0.001  0.005  0.006
   25  0.051  0.001  0.007  0.059
   26  0.013  0.008  0.006  0.027
   27  0.000  0.008  0.004  0.012
   28  0.000  0.004  0.005  0.010
   29  0.011  0.003  0.003  0.017
   30  0.011  0.002  0.003  0.016
   31  0.011  0.003  0.003  0.017
   32  0.000  0.001  0.003  0.004
   33  0.010  0.002  0.003  0.016
   34  0.000  0.001  0.003  0.004
   35  0.000  0.001  0.003  0.003
   36  0.000  0.003  0.029  0.032
   37  0.000  0.000  0.000  0.000
   38  0.000  0.001  0.000  0.001
tot    0.342  0.113  0.196  0.652
 
band    10 # energy   -6.24692341 # occ.  2.00000000
 
ion      s      p      d    tot
    1  0.000  0.003  0.005  0.007
    2  0.001  0.001  0.002  0.003
    3  0.004  0.001  0.002  0.007
    4  0.001  0.001  0.002  0.003
    5  0.000  0.001  0.002  0.003
    6  0.008  0.002  0.002  0.011
    7  0.004  0.001  0.002  0.007
    8  0.008  0.002  0.002  0.011
    9  0.000  0.000  0.003  0.003
   10  0.000  0.005  0.011  0.016
   11  0.005  0.003  0.005  0.013
   12  0.040  0.004  0.006  0.050
   13  0.005  0.003  0.005  0.013
   14  0.000  0.012  0.002  0.014
   15  0.016  0.003  0.005  0.024
   16  0.041  0.004  0.006  0.051
   17  0.016  0.003  0.005  0.024
   18  0.000  0.001  0.012  0.013
   19  0.038  0.004  0.006  0.048
   20  0.000  0.000  0.017  0.017
   21  0.037  0.003  0.007  0.048
   22  0.000  0.004  0.005  0.008
   23  0.038  0.003  0.007  0.048
   24  0.000  0.011  0.004  0.014
   25  0.000  0.010  0.006  0.017
   26  0.038  0.004  0.006  0.048
   27  0.000  0.003  0.005  0.008
   28  0.000  0.004  0.005  0.010
   29  0.003  0.001  0.003  0.008
   30  0.004  0.002  0.003  0.009
   31  0.003  0.001  0.003  0.008
   32  0.014  0.003  0.003  0.020
   33  0.004  0.002  0.003  0.009
   34  0.014  0.003  0.003  0.020
   35  0.000  0.001  0.003  0.003
   36  0.000  0.003  0.030  0.032
   37  0.000  0.000  0.000  0.000
   38  0.000  0.001  0.000  0.001
tot    0.342  0.113  0.197  0.652
 
band    11 # energy   -6.22338703 # occ.  2.00000000
 
ion      s      p      d    tot
    1  0.000  0.000  0.002  0.002
    2  0.008  0.002  0.002  0.012
    3  0.004  0.001  0.002  0.008
    4  0.008  0.002  0.002  0.012
    5  0.000  0.002  0.005  0.006
    6  0.001  0.001  0.002  0.003
    7  0.004  0.001  0.002  0.007
    8  0.000  0.001  0.002  0.003
    9  0.000  0.002  0.004  0.006
   10  0.000  0.007  0.006  0.013
   11  0.038  0.004  0.006  0.047
   12  0.001  0.003  0.004  0.009
   13  0.037  0.004  0.006  0.046
   14  0.000  0.001  0.015  0.015
   15  0.026  0.003  0.006  0.035
   16  0.001  0.003  0.004  0.009
   17  0.025  0.004  0.006  0.034
   18  0.000  0.011  0.004  0.016
   19  0.011  0.004  0.005  0.020
   20  0.000  0.015  0.001  0.016
   21  0.014  0.004  0.005  0.023
   22  0.049  0.004  0.007  0.059
   23  0.014  0.004  0.005  0.023
   24  0.000  0.004  0.015  0.018
   25  0.000  0.004  0.012  0.016
   26  0.011  0.004  0.005  0.020
   27  0.050  0.004  0.006  0.061
   28  0.000  0.000  0.004  0.004
   29  0.011  0.003  0.003  0.017
   30  0.008  0.003  0.003  0.014
   31  0.011  0.003  0.003  0.016
   32  0.000  0.001  0.003  0.004
   33  0.007  0.003  0.003  0.013
   34  0.000  0.001  0.003  0.004
   35  0.000  0.004  0.006  0.010
   36  0.000  0.003  0.020  0.023
   37  0.000  0.000  0.000  0.000
   38  0.000  0.000  0.000  0.000
tot    0.342  0.117  0.188  0.646
 
band    12 # energy   -6.22324521 # occ.  2.00000000
 
ion      s      p      d    tot
    1  0.000  0.000  0.002  0.002
    2  0.001  0.001  0.002  0.003
    3  0.004  0.001  0.002  0.008
    4  0.001  0.001  0.002  0.003
    5  0.000  0.002  0.005  0.006
    6  0.008  0.002  0.002  0.012
    7  0.004  0.001  0.002  0.008
    8  0.008  0.002  0.002  0.012
    9  0.000  0.002  0.004  0.006
   10  0.001  0.002  0.004  0.007
   11  0.012  0.002  0.012  0.025
   12  0.000  0.006  0.006  0.012
   13  0.013  0.002  0.012  0.026
   14  0.049  0.005  0.003  0.057
   15  0.008  0.009  0.005  0.022
   16  0.000  0.006  0.006  0.012
   17  0.009  0.009  0.005  0.022
   18  0.034  0.001  0.006  0.041
   19  0.004  0.004  0.010  0.017
   20  0.019  0.000  0.007  0.026
   21  0.005  0.011  0.002  0.018
   22  0.017  0.004  0.012  0.033
   23  0.005  0.011  0.002  0.018
   24  0.065  0.004  0.004  0.073
   25  0.015  0.004  0.003  0.021
   26  0.004  0.004  0.010  0.017
   27  0.016  0.004  0.012  0.032
   28  0.000  0.000  0.004  0.004
   29  0.001  0.001  0.003  0.006
   30  0.005  0.001  0.003  0.009
   31  0.002  0.001  0.003  0.006
   32  0.012  0.003  0.003  0.019
   33  0.005  0.002  0.003  0.009
   34  0.012  0.003  0.003  0.019
   35  0.000  0.004  0.006  0.010
   36  0.000  0.003  0.020  0.023
   37  0.000  0.000  0.000  0.000
   38  0.000  0.000  0.000  0.000
tot    0.342  0.117  0.188  0.646
 
band    13 # energy   -6.21066730 # occ.  2.00000000
 
ion      s      p      d    tot
    1  0.019  0.003  0.001  0.023
    2  0.000  0.002  0.004  0.005
    3  0.000  0.002  0.004  0.005
    4  0.000  0.002  0.004  0.005
    5  0.001  0.000  0.000  0.001
    6  0.000  0.002  0.004  0.005
    7  0.000  0.002  0.004  0.005
    8  0.000  0.002  0.004  0.005
    9  0.009  0.002  0.000  0.011
   10  0.029  0.005  0.006  0.040
   11  0.004  0.000  0.011  0.015
   12  0.029  0.005  0.006  0.040
   13  0.004  0.000  0.011  0.015
   14  0.004  0.000  0.011  0.016
   15  0.013  0.008  0.003  0.024
   16  0.029  0.005  0.006  0.040
   17  0.013  0.008  0.003  0.024
   18  0.013  0.008  0.003  0.024
   19  0.022  0.010  0.002  0.034
   20  0.000  0.002  0.010  0.012
   21  0.000  0.002  0.010  0.012
   22  0.026  0.003  0.009  0.038
   23  0.000  0.002  0.010  0.012
   24  0.027  0.003  0.009  0.039
   25  0.023  0.009  0.002  0.034
   26  0.022  0.010  0.002  0.034
   27  0.026  0.003  0.009  0.038
   28  0.020  0.003  0.000  0.024
   29  0.000  0.002  0.004  0.006
   30  0.000  0.002  0.004  0.006
   31  0.000  0.002  0.004  0.006
   32  0.000  0.002  0.004  0.006
   33  0.000  0.002  0.004  0.006
   34  0.000  0.002  0.004  0.006
   35  0.015  0.003  0.001  0.019
   36  0.000  0.000  0.000  0.000
   37  0.000  0.000  0.000  0.000
   38  0.000  0.000  0.000  0.000
tot    0.348  0.117  0.175  0.640
 
band    14 # energy   -6.10298675 # occ.  2.00000000
 
ion      s      p      d    tot
    1  0.000  0.000  0.000  0.001
    2  0.001  0.002  0.005  0.008
    3  0.001  0.002  0.005  0.008
    4  0.001  0.002  0.005  0.008
    5  0.032  0.003  0.000  0.036
    6  0.001  0.002  0.005  0.008
    7  0.001  0.002  0.005  0.008
    8  0.001  0.002  0.005  0.008
    9  0.006  0.002  0.002  0.011
   10  0.002  0.005  0.009  0.016
   11  0.026  0.009  0.003  0.038
   12  0.002  0.005  0.009  0.015
   13  0.026  0.009  0.003  0.038
   14  0.026  0.009  0.003  0.038
   15  0.024  0.001  0.012  0.038
   16  0.002  0.005  0.009  0.015
   17  0.024  0.001  0.012  0.038
   18  0.024  0.001  0.012  0.038
   19  0.008  0.001  0.010  0.019
   20  0.022  0.005  0.006  0.033
   21  0.022  0.005  0.006  0.033
   22  0.007  0.006  0.005  0.018
   23  0.022  0.005  0.006  0.033
   24  0.007  0.006  0.005  0.018
   25  0.008  0.001  0.010  0.019
   26  0.008  0.001  0.010  0.019
   27  0.007  0.006  0.005  0.018
   28  0.000  0.000  0.002  0.003
   29  0.001  0.001  0.003  0.006
   30  0.001  0.001  0.003  0.006
   31  0.001  0.001  0.003  0.006
   32  0.001  0.001  0.003  0.006
   33  0.001  0.001  0.003  0.006
   34  0.001  0.001  0.003  0.006
   35  0.001  0.001  0.001  0.002
   36  0.012  0.008  0.011  0.031
   37  0.002  0.003  0.000  0.005
   38  0.000  0.002  0.000  0.002
tot    0.333  0.120  0.205  0.659
 
band    15 # energy   -5.53529054 # occ.  2.00000000
 
ion      s      p      d    tot
    1  0.000  0.003  0.009  0.012
    2  0.002  0.002  0.004  0.008
    3  0.017  0.003  0.004  0.025
    4  0.002  0.002  0.004  0.008
    5  0.000  0.000  0.008  0.008
    6  0.007  0.002  0.004  0.014
    7  0.017  0.003  0.004  0.025
    8  0.007  0.002  0.004  0.014
    9  0.000  0.005  0.008  0.013
   10  0.009  0.000  0.006  0.016
   11  0.001  0.002  0.012  0.016
   12  0.002  0.004  0.010  0.017
   13  0.001  0.002  0.012  0.016
   14  0.006  0.002  0.006  0.013
   15  0.007  0.001  0.015  0.024
   16  0.002  0.004  0.010  0.017
   17  0.007  0.001  0.015  0.024
   18  0.029  0.004  0.004  0.037
   19  0.002  0.002  0.009  0.012
   20  0.000  0.001  0.010  0.010
   21  0.000  0.002  0.016  0.017
   22  0.002  0.002  0.022  0.026
   23  0.000  0.002  0.016  0.017
   24  0.007  0.004  0.002  0.013
   25  0.007  0.006  0.009  0.022
   26  0.002  0.002  0.009  0.012
   27  0.002  0.002  0.022  0.026
   28  0.000  0.004  0.006  0.010
   29  0.004  0.002  0.009  0.015
   30  0.026  0.002  0.009  0.038
   31  0.004  0.002  0.009  0.015
   32  0.009  0.003  0.009  0.021
   33  0.027  0.002  0.009  0.038
   34  0.009  0.003  0.009  0.021
   35  0.000  0.005  0.007  0.012
   36  0.000  0.000  0.094  0.094
   37  0.000  0.000  0.000  0.000
   38  0.000  0.000  0.000  0.000
tot    0.220  0.085  0.417  0.722
 
band    16 # energy   -5.53525462 # occ.  2.00000000
 
ion      s      p      d    tot
    1  0.000  0.003  0.009  0.012
    2  0.016  0.003  0.004  0.023
    3  0.001  0.001  0.004  0.006
    4  0.016  0.003  0.004  0.023
    5  0.000  0.000  0.008  0.008
    6  0.011  0.003  0.004  0.018
    7  0.001  0.001  0.004  0.006
    8  0.010  0.003  0.004  0.018
    9  0.000  0.005  0.008  0.013
   10  0.000  0.005  0.012  0.017
   11  0.004  0.002  0.008  0.014
   12  0.006  0.002  0.008  0.016
   13  0.004  0.002  0.008  0.014
   14  0.000  0.002  0.014  0.017
   15  0.022  0.003  0.008  0.032
   16  0.007  0.002  0.008  0.016
   17  0.022  0.003  0.008  0.032
   18  0.000  0.001  0.019  0.020
   19  0.005  0.004  0.009  0.019
   20  0.000  0.002  0.018  0.020
   21  0.000  0.001  0.012  0.013
   22  0.005  0.003  0.009  0.017
   23  0.000  0.001  0.012  0.013
   24  0.000  0.001  0.029  0.030
   25  0.000  0.000  0.009  0.009
   26  0.005  0.004  0.009  0.018
   27  0.005  0.003  0.009  0.017
   28  0.000  0.004  0.006  0.010
   29  0.022  0.003  0.009  0.034
   30  0.000  0.002  0.009  0.011
   31  0.023  0.003  0.009  0.034
   32  0.018  0.002  0.009  0.028
   33  0.000  0.002  0.009  0.011
   34  0.017  0.002  0.009  0.028
   35  0.000  0.005  0.007  0.012
   36  0.000  0.000  0.094  0.094
   37  0.000  0.000  0.000  0.000
   38  0.000  0.000  0.000  0.000
tot    0.220  0.085  0.417  0.722
 
band    17 # energy   -5.48136018 # occ.  2.00000000
 
ion      s      p      d    tot
    1  0.005  0.001  0.010  0.016
    2  0.006  0.000  0.010  0.016
    3  0.006  0.000  0.010  0.016
    4  0.006  0.000  0.010  0.016
    5  0.005  0.001  0.010  0.015
    6  0.006  0.000  0.010  0.016
    7  0.006  0.000  0.010  0.016
    8  0.006  0.000  0.010  0.016
    9  0.008  0.000  0.009  0.018
   10  0.008  0.000  0.025  0.033
   11  0.008  0.000  0.023  0.030
   12  0.008  0.000  0.025  0.033
   13  0.008  0.000  0.023  0.030
   14  0.008  0.000  0.023  0.030
   15  0.006  0.000  0.024  0.030
   16  0.008  0.000  0.025  0.033
   17  0.006  0.000  0.024  0.030
   18  0.006  0.000  0.024  0.030
   19  0.006  0.000  0.020  0.026
   20  0.006  0.000  0.023  0.029
   21  0.006  0.000  0.023  0.029
   22  0.005  0.000  0.019  0.024
   23  0.006  0.000  0.023  0.029
   24  0.005  0.000  0.019  0.024
   25  0.006  0.000  0.020  0.026
   26  0.006  0.000  0.020  0.026
   27  0.005  0.000  0.019  0.024
   28  0.001  0.001  0.006  0.008
   29  0.003  0.001  0.007  0.011
   30  0.003  0.001  0.007  0.011
   31  0.003  0.001  0.007  0.011
   32  0.003  0.001  0.007  0.011
   33  0.003  0.001  0.007  0.011
   34  0.003  0.001  0.007  0.011
   35  0.002  0.000  0.006  0.009
   36  0.007  0.002  0.024  0.034
   37  0.000  0.001  0.000  0.001
   38  0.000  0.001  0.000  0.001
tot    0.202  0.015  0.564  0.781
 
band    18 # energy   -5.46750476 # occ.  2.00000000
 
ion      s      p      d    tot
    1  0.000  0.003  0.010  0.013
    2  0.002  0.002  0.005  0.009
    3  0.020  0.004  0.006  0.030
    4  0.001  0.002  0.005  0.009
    5  0.000  0.006  0.010  0.016
    6  0.010  0.003  0.005  0.017
    7  0.021  0.004  0.006  0.031
    8  0.011  0.003  0.005  0.019
    9  0.000  0.001  0.012  0.012
   10  0.000  0.000  0.021  0.021
   11  0.017  0.003  0.009  0.029
   12  0.015  0.003  0.011  0.030
   13  0.016  0.003  0.010  0.029
   14  0.000  0.003  0.023  0.026
   15  0.000  0.001  0.010  0.011
   16  0.016  0.004  0.010  0.030
   17  0.000  0.001  0.010  0.012
   18  0.000  0.005  0.015  0.020
   19  0.002  0.001  0.009  0.011
   20  0.000  0.000  0.028  0.029
   21  0.012  0.005  0.010  0.027
   22  0.003  0.002  0.011  0.016
   23  0.013  0.005  0.009  0.027
   24  0.000  0.001  0.009  0.010
   25  0.000  0.002  0.023  0.025
   26  0.002  0.001  0.010  0.013
   27  0.004  0.002  0.011  0.017
   28  0.000  0.002  0.009  0.012
   29  0.002  0.001  0.005  0.009
   30  0.016  0.004  0.006  0.026
   31  0.002  0.001  0.005  0.008
   32  0.006  0.002  0.005  0.013
   33  0.016  0.004  0.006  0.026
   34  0.008  0.002  0.005  0.015
   35  0.000  0.000  0.008  0.009
   36  0.000  0.008  0.055  0.063
   37  0.000  0.000  0.000  0.000
   38  0.000  0.001  0.000  0.001
tot    0.215  0.096  0.408  0.719
 
band    19 # energy   -5.46748710 # occ.  2.00000000
 
ion      s      p      d    tot
    1  0.000  0.003  0.010  0.013
    2  0.020  0.004  0.005  0.029
    3  0.001  0.002  0.005  0.008
    4  0.020  0.004  0.005  0.030
    5  0.000  0.006  0.010  0.016
    6  0.012  0.003  0.006  0.021
    7  0.001  0.002  0.005  0.008
    8  0.011  0.003  0.005  0.019
    9  0.000  0.001  0.012  0.012
   10  0.021  0.004  0.007  0.033
   11  0.005  0.003  0.019  0.027
   12  0.006  0.001  0.017  0.025
   13  0.006  0.003  0.018  0.027
   14  0.022  0.003  0.005  0.030
   15  0.000  0.004  0.014  0.017
   16  0.005  0.001  0.018  0.024
   17  0.000  0.003  0.013  0.017
   18  0.000  0.000  0.008  0.009
   19  0.000  0.002  0.019  0.021
   20  0.016  0.006  0.003  0.026
   21  0.005  0.002  0.021  0.028
   22  0.001  0.001  0.010  0.013
   23  0.004  0.002  0.023  0.028
   24  0.005  0.003  0.011  0.018
   25  0.002  0.001  0.005  0.008
   26  0.001  0.002  0.018  0.020
   27  0.001  0.001  0.010  0.012
   28  0.000  0.002  0.009  0.012
   29  0.014  0.003  0.005  0.023
   30  0.001  0.001  0.004  0.006
   31  0.015  0.003  0.006  0.024
   32  0.010  0.003  0.006  0.019
   33  0.000  0.001  0.004  0.006
   34  0.009  0.003  0.006  0.017
   35  0.000  0.000  0.008  0.009
   36  0.000  0.008  0.055  0.063
   37  0.000  0.000  0.000  0.000
   38  0.000  0.001  0.000  0.001
tot    0.215  0.096  0.408  0.719
 
band    20 # energy   -5.43635664 # occ.  2.00000000
 
ion      s      p      d    tot
    1  0.033  0.003  0.001  0.037
    2  0.000  0.003  0.010  0.013
    3  0.000  0.003  0.010  0.013
    4  0.000  0.003  0.010  0.013
    5  0.000  0.000  0.000  0.000
    6  0.000  0.003  0.010  0.013
    7  0.000  0.003  0.010  0.013
    8  0.000  0.003  0.010  0.013
    9  0.032  0.004  0.001  0.036
   10  0.010  0.004  0.010  0.024
   11  0.001  0.000  0.015  0.016
   12  0.010  0.004  0.010  0.024
   13  0.001  0.000  0.015  0.016
   14  0.001  0.000  0.015  0.016
   15  0.007  0.004  0.016  0.027
   16  0.010  0.004  0.010  0.024
   17  0.007  0.004  0.016  0.027
   18  0.007  0.004  0.016  0.027
   19  0.005  0.003  0.020  0.028
   20  0.000  0.000  0.013  0.014
   21  0.000  0.000  0.013  0.014
   22  0.010  0.004  0.010  0.023
   23  0.000  0.000  0.013  0.014
   24  0.010  0.004  0.010  0.023
   25  0.005  0.003  0.020  0.028
   26  0.005  0.003  0.020  0.028
   27  0.010  0.004  0.010  0.023
   28  0.036  0.003  0.000  0.039
   29  0.000  0.003  0.010  0.014
   30  0.000  0.003  0.010  0.014
   31  0.000  0.003  0.010  0.014
   32  0.000  0.003  0.010  0.014
   33  0.000  0.003  0.010  0.014
   34  0.000  0.003  0.010  0.014
   35  0.031  0.004  0.001  0.035
   36  0.000  0.000  0.000  0.000
   37  0.000  0.000  0.000  0.000
   38  0.000  0.000  0.000  0.000
tot    0.230  0.095  0.378  0.704
 
band    21 # energy   -5.28320237 # occ.  2.00000000
 
ion      s      p      d    tot
    1  0.016  0.001  0.000  0.017
    2  0.000  0.003  0.011  0.014
    3  0.000  0.003  0.011  0.014
    4  0.000  0.003  0.011  0.014
    5  0.041  0.004  0.000  0.045
    6  0.000  0.003  0.011  0.014
    7  0.000  0.003  0.011  0.014
    8  0.000  0.003  0.011  0.014
    9  0.006  0.001  0.000  0.007
   10  0.001  0.001  0.026  0.028
   11  0.006  0.004  0.019  0.030
   12  0.001  0.001  0.026  0.028
   13  0.006  0.004  0.019  0.030
   14  0.006  0.004  0.019  0.030
   15  0.002  0.001  0.008  0.012
   16  0.001  0.001  0.026  0.028