PROCAR new format
# of k-points:   10         # of bands:  252         # of ions:   37

 k-point     1 :    0.00000000 0.00000000 0.00000000     weight = 0.01562500

band     1 # energy   -9.52160545 # occ.  2.00000000
 
ion      s      p      d    tot
    1  0.005  0.001  0.000  0.005
    2  0.005  0.001  0.000  0.005
    3  0.005  0.001  0.000  0.005
    4  0.005  0.001  0.000  0.005
    5  0.005  0.001  0.000  0.005
    6  0.005  0.001  0.000  0.005
    7  0.005  0.001  0.000  0.005
    8  0.005  0.001  0.000  0.005
    9  0.005  0.001  0.000  0.005
   10  0.019  0.000  0.000  0.019
   11  0.019  0.000  0.000  0.019
   12  0.019  0.000  0.000  0.019
   13  0.019  0.000  0.000  0.019
   14  0.019  0.000  0.000  0.019
   15  0.018  0.000  0.000  0.018
   16  0.019  0.000  0.000  0.019
   17  0.018  0.000  0.000  0.018
   18  0.018  0.000  0.000  0.018
   19  0.022  0.000  0.000  0.022
   20  0.027  0.000  0.000  0.027
   21  0.027  0.000  0.000  0.027
   22  0.022  0.000  0.000  0.022
   23  0.027  0.000  0.000  0.027
   24  0.022  0.000  0.000  0.022
   25  0.022  0.000  0.000  0.022
   26  0.022  0.000  0.000  0.022
   27  0.022  0.000  0.000  0.022
   28  0.007  0.001  0.000  0.008
   29  0.009  0.001  0.000  0.009
   30  0.009  0.001  0.000  0.009
   31  0.009  0.001  0.000  0.009
   32  0.009  0.001  0.000  0.009
   33  0.009  0.001  0.000  0.009
   34  0.009  0.001  0.000  0.009
   35  0.007  0.001  0.000  0.008
   36  0.053  0.001  0.014  0.068
   37  0.048  0.002  0.000  0.050
tot    0.586  0.015  0.015  0.617
 
band     2 # energy   -8.85968891 # occ.  2.00000000
 
ion      s      p      d    tot
    1  0.005  0.000  0.000  0.005
    2  0.005  0.000  0.000  0.005
    3  0.005  0.000  0.000  0.005
    4  0.005  0.000  0.000  0.005
    5  0.005  0.000  0.000  0.005
    6  0.005  0.000  0.000  0.005
    7  0.005  0.000  0.000  0.005
    8  0.005  0.000  0.000  0.005
    9  0.005  0.000  0.000  0.006
   10  0.010  0.000  0.000  0.010
   11  0.008  0.000  0.000  0.009
   12  0.010  0.000  0.000  0.010
   13  0.008  0.000  0.000  0.009
   14  0.008  0.000  0.000  0.009
   15  0.010  0.000  0.000  0.010
   16  0.010  0.000  0.000  0.010
   17  0.010  0.000  0.000  0.010
   18  0.010  0.000  0.000  0.010
   19  0.002  0.000  0.000  0.002
   20  0.000  0.002  0.001  0.003
   21  0.000  0.002  0.001  0.003
   22  0.001  0.001  0.000  0.002
   23  0.000  0.002  0.001  0.003
   24  0.001  0.001  0.000  0.002
   25  0.002  0.000  0.000  0.002
   26  0.002  0.000  0.000  0.002
   27  0.001  0.001  0.000  0.002
   28  0.000  0.000  0.000  0.000
   29  0.001  0.000  0.000  0.002
   30  0.001  0.000  0.000  0.002
   31  0.001  0.000  0.000  0.002
   32  0.001  0.000  0.000  0.002
   33  0.001  0.000  0.000  0.002
   34  0.001  0.000  0.000  0.002
   35  0.000  0.000  0.000  0.000
   36  0.108  0.041  0.098  0.247
   37  0.318  0.010  0.000  0.328
tot    0.573  0.067  0.105  0.746
 
band     3 # energy   -8.03577568 # occ.  2.00000000
 
ion      s      p      d    tot
    1  0.015  0.001  0.001  0.016
    2  0.015  0.001  0.001  0.016
    3  0.015  0.001  0.001  0.016
    4  0.015  0.001  0.001  0.016
    5  0.015  0.001  0.000  0.017
    6  0.015  0.001  0.001  0.016
    7  0.015  0.001  0.001  0.016
    8  0.015  0.001  0.001  0.016
    9  0.015  0.001  0.001  0.016
   10  0.006  0.002  0.000  0.009
   11  0.007  0.002  0.000  0.010
   12  0.006  0.002  0.000  0.009
   13  0.007  0.002  0.000  0.010
   14  0.007  0.002  0.000  0.010
   15  0.006  0.002  0.000  0.009
   16  0.006  0.002  0.000  0.009
   17  0.006  0.002  0.000  0.009
   18  0.006  0.002  0.000  0.009
   19  0.013  0.002  0.001  0.016
   20  0.007  0.001  0.001  0.009
   21  0.007  0.001  0.001  0.009
   22  0.013  0.002  0.001  0.015
   23  0.007  0.001  0.001  0.009
   24  0.013  0.002  0.001  0.015
   25  0.013  0.002  0.001  0.016
   26  0.013  0.002  0.001  0.016
   27  0.013  0.002  0.001  0.015
   28  0.020  0.001  0.000  0.021
   29  0.015  0.001  0.001  0.017
   30  0.015  0.001  0.001  0.017
   31  0.015  0.001  0.001  0.017
   32  0.015  0.001  0.001  0.017
   33  0.015  0.001  0.001  0.017
   34  0.015  0.001  0.001  0.017
   35  0.019  0.001  0.000  0.021
   36  0.000  0.018  0.042  0.060
   37  0.072  0.001  0.000  0.073
tot    0.494  0.068  0.062  0.625
 
band     4 # energy   -6.58068628 # occ.  2.00000000
 
ion      s      p      d    tot
    1  0.015  0.000  0.005  0.020
    2  0.015  0.000  0.005  0.020
    3  0.015  0.000  0.005  0.020
    4  0.015  0.000  0.005  0.020
    5  0.008  0.000  0.006  0.014
    6  0.015  0.000  0.005  0.020
    7  0.015  0.000  0.005  0.020
    8  0.015  0.000  0.005  0.020
    9  0.023  0.000  0.004  0.027
   10  0.003  0.003  0.002  0.008
   11  0.009  0.005  0.001  0.015
   12  0.003  0.003  0.002  0.008
   13  0.009  0.005  0.001  0.015
   14  0.009  0.005  0.001  0.015
   15  0.000  0.003  0.003  0.006
   16  0.003  0.003  0.002  0.008
   17  0.000  0.003  0.003  0.006
   18  0.000  0.003  0.003  0.006
   19  0.002  0.003  0.005  0.010
   20  0.018  0.004  0.004  0.026
   21  0.018  0.004  0.004  0.026
   22  0.001  0.003  0.004  0.008
   23  0.018  0.004  0.004  0.026
   24  0.001  0.003  0.004  0.008
   25  0.002  0.003  0.005  0.010
   26  0.002  0.003  0.005  0.010
   27  0.001  0.003  0.004  0.008
   28  0.020  0.000  0.006  0.026
   29  0.017  0.000  0.008  0.026
   30  0.017  0.000  0.008  0.026
   31  0.017  0.000  0.008  0.026
   32  0.017  0.000  0.008  0.026
   33  0.017  0.000  0.008  0.026
   34  0.017  0.000  0.008  0.026
   35  0.026  0.000  0.006  0.032
   36  0.005  0.001  0.028  0.034
   37  0.001  0.000  0.000  0.001
tot    0.386  0.067  0.191  0.644
 
band     5 # energy   -6.46604878 # occ.  2.00000000
 
ion      s      p      d    tot
    1  0.000  0.003  0.005  0.008
    2  0.009  0.002  0.002  0.013
    3  0.005  0.002  0.002  0.008
    4  0.008  0.002  0.002  0.013
    5  0.000  0.002  0.003  0.005
    6  0.004  0.002  0.002  0.008
    7  0.001  0.001  0.002  0.003
    8  0.000  0.001  0.002  0.003
    9  0.000  0.000  0.003  0.003
   10  0.055  0.004  0.005  0.064
   11  0.001  0.012  0.003  0.016
   12  0.029  0.003  0.009  0.041
   13  0.009  0.007  0.004  0.020
   14  0.018  0.001  0.006  0.025
   15  0.001  0.004  0.010  0.014
   16  0.004  0.003  0.013  0.020
   17  0.005  0.003  0.006  0.015
   18  0.010  0.003  0.003  0.016
   19  0.002  0.012  0.004  0.018
   20  0.057  0.004  0.006  0.067
   21  0.030  0.003  0.012  0.045
   22  0.001  0.005  0.005  0.011
   23  0.004  0.001  0.018  0.023
   24  0.002  0.002  0.004  0.009
   25  0.034  0.001  0.007  0.042
   26  0.018  0.007  0.005  0.030
   27  0.000  0.007  0.007  0.014
   28  0.000  0.003  0.004  0.007
   29  0.011  0.003  0.003  0.018
   30  0.009  0.002  0.003  0.014
   31  0.008  0.002  0.004  0.014
   32  0.002  0.001  0.003  0.007
   33  0.003  0.001  0.003  0.007
   34  0.000  0.001  0.003  0.004
   35  0.000  0.000  0.003  0.003
   36  0.000  0.005  0.013  0.019
   37  0.000  0.000  0.000  0.000
tot    0.344  0.114  0.190  0.648
 
band     6 # energy   -6.46597056 # occ.  2.00000000
 
ion      s      p      d    tot
    1  0.000  0.003  0.005  0.008
    2  0.000  0.001  0.002  0.003
    3  0.004  0.002  0.002  0.008
    4  0.001  0.001  0.002  0.003
    5  0.000  0.002  0.003  0.005
    6  0.005  0.002  0.002  0.008
    7  0.008  0.002  0.002  0.013
    8  0.009  0.002  0.002  0.013
    9  0.000  0.000  0.003  0.003
   10  0.004  0.003  0.013  0.020
   11  0.018  0.001  0.006  0.025
   12  0.030  0.003  0.009  0.042
   13  0.009  0.007  0.004  0.020
   14  0.001  0.012  0.003  0.016
   15  0.010  0.003  0.003  0.016
   16  0.055  0.004  0.005  0.063
   17  0.005  0.003  0.006  0.015
   18  0.001  0.004  0.010  0.014
   19  0.034  0.001  0.007  0.042
   20  0.004  0.001  0.018  0.023
   21  0.031  0.003  0.012  0.045
   22  0.001  0.005  0.005  0.011
   23  0.057  0.004  0.006  0.067
   24  0.000  0.007  0.007  0.014
   25  0.002  0.012  0.004  0.018
   26  0.018  0.007  0.005  0.030
   27  0.002  0.003  0.004  0.009
   28  0.000  0.003  0.004  0.007
   29  0.000  0.001  0.003  0.004
   30  0.002  0.001  0.003  0.007
   31  0.003  0.001  0.003  0.007
   32  0.009  0.002  0.003  0.014
   33  0.008  0.002  0.004  0.014
   34  0.011  0.003  0.003  0.018
   35  0.000  0.000  0.003  0.003
   36  0.000  0.005  0.013  0.018
   37  0.000  0.000  0.000  0.000
tot    0.344  0.114  0.190  0.648
 
band     7 # energy   -6.42996776 # occ.  2.00000000
 
ion      s      p      d    tot
    1  0.000  0.000  0.002  0.003
    2  0.010  0.002  0.002  0.014
    3  0.003  0.001  0.002  0.006
    4  0.010  0.002  0.002  0.014
    5  0.000  0.001  0.005  0.006
    6  0.002  0.001  0.002  0.005
    7  0.003  0.001  0.002  0.006
    8  0.002  0.001  0.002  0.005
    9  0.000  0.003  0.005  0.008
   10  0.000  0.010  0.004  0.014
   11  0.032  0.004  0.005  0.041
   12  0.000  0.003  0.005  0.008
   13  0.030  0.003  0.006  0.040
   14  0.000  0.000  0.016  0.016
   15  0.036  0.003  0.006  0.045
   16  0.000  0.003  0.005  0.008
   17  0.034  0.004  0.006  0.044
   18  0.000  0.009  0.007  0.016
   19  0.021  0.004  0.005  0.030
   20  0.000  0.014  0.001  0.015
   21  0.005  0.004  0.005  0.014
   22  0.045  0.004  0.006  0.055
   23  0.005  0.004  0.005  0.014
   24  0.000  0.006  0.011  0.017
   25  0.000  0.001  0.015  0.016
   26  0.020  0.003  0.006  0.029
   27  0.047  0.004  0.006  0.057
   28  0.000  0.001  0.005  0.006
   29  0.012  0.003  0.003  0.018
   30  0.005  0.002  0.004  0.010
   31  0.012  0.003  0.003  0.018
   32  0.002  0.001  0.003  0.006
   33  0.004  0.002  0.004  0.010
   34  0.002  0.001  0.003  0.006
   35  0.000  0.004  0.006  0.010
   36  0.000  0.003  0.007  0.010
   37  0.000  0.000  0.000  0.000
tot    0.342  0.117  0.180  0.639
 
band     8 # energy   -6.42990687 # occ.  2.00000000
 
ion      s      p      d    tot
    1  0.000  0.000  0.002  0.003
    2  0.000  0.001  0.002  0.003
    3  0.006  0.002  0.002  0.011
    4  0.000  0.001  0.002  0.003
    5  0.000  0.001  0.005  0.006
    6  0.008  0.002  0.002  0.012
    7  0.007  0.002  0.002  0.011
    8  0.008  0.002  0.002  0.012
    9  0.000  0.003  0.005  0.008
   10  0.000  0.001  0.005  0.006
   11  0.010  0.001  0.013  0.023
   12  0.000  0.008  0.004  0.012
   13  0.011  0.001  0.012  0.024
   14  0.041  0.005  0.002  0.048
   15  0.011  0.008  0.006  0.025
   16  0.000  0.008  0.004  0.012
   17  0.012  0.007  0.006  0.026
   18  0.047  0.002  0.006  0.054
   19  0.007  0.002  0.012  0.021
   20  0.007  0.000  0.007  0.014
   21  0.002  0.010  0.002  0.015
   22  0.016  0.005  0.009  0.031
   23  0.002  0.011  0.002  0.015
   24  0.061  0.003  0.005  0.068
   25  0.028  0.004  0.002  0.034
   26  0.007  0.002  0.012  0.021
   27  0.014  0.006  0.009  0.029
   28  0.000  0.001  0.005  0.006
   29  0.000  0.001  0.003  0.005
   30  0.008  0.002  0.003  0.012
   31  0.000  0.001  0.003  0.005
   32  0.010  0.003  0.003  0.016
   33  0.008  0.002  0.003  0.013
   34  0.011  0.003  0.003  0.017
   35  0.000  0.004  0.006  0.010
   36  0.000  0.003  0.007  0.010
   37  0.000  0.000  0.000  0.000
tot    0.342  0.117  0.180  0.639
 
band     9 # energy   -6.42263246 # occ.  2.00000000
 
ion      s      p      d    tot
    1  0.021  0.003  0.001  0.025
    2  0.000  0.002  0.004  0.006
    3  0.000  0.002  0.004  0.006
    4  0.000  0.002  0.004  0.006
    5  0.003  0.001  0.000  0.004
    6  0.000  0.002  0.004  0.006
    7  0.000  0.002  0.004  0.006
    8  0.000  0.002  0.004  0.006
    9  0.007  0.001  0.000  0.009
   10  0.031  0.007  0.005  0.042
   11  0.008  0.000  0.012  0.019
   12  0.031  0.007  0.005  0.042
   13  0.008  0.000  0.012  0.019
   14  0.008  0.000  0.012  0.020
   15  0.008  0.007  0.004  0.020
   16  0.031  0.007  0.005  0.042
   17  0.008  0.007  0.004  0.020
   18  0.008  0.007  0.004  0.020
   19  0.025  0.009  0.002  0.036
   20  0.000  0.003  0.010  0.014
   21  0.000  0.003  0.010  0.014
   22  0.021  0.001  0.010  0.032
   23  0.000  0.003  0.010  0.014
   24  0.022  0.001  0.010  0.033
   25  0.025  0.009  0.002  0.036
   26  0.025  0.009  0.002  0.036
   27  0.021  0.001  0.010  0.032
   28  0.019  0.003  0.001  0.023
   29  0.000  0.002  0.004  0.006
   30  0.000  0.002  0.005  0.006
   31  0.000  0.002  0.004  0.006
   32  0.000  0.002  0.004  0.006
   33  0.000  0.002  0.005  0.006
   34  0.000  0.002  0.005  0.006
   35  0.012  0.002  0.001  0.015
   36  0.001  0.000  0.000  0.001
   37  0.000  0.000  0.000  0.000
tot    0.343  0.114  0.182  0.640
 
band    10 # energy   -6.35374985 # occ.  2.00000000
 
ion      s      p      d    tot
    1  0.000  0.000  0.000  0.001
    2  0.001  0.002  0.005  0.009
    3  0.001  0.002  0.005  0.009
    4  0.001  0.002  0.005  0.009
    5  0.033  0.003  0.000  0.036
    6  0.001  0.002  0.005  0.009
    7  0.001  0.002  0.005  0.009
    8  0.001  0.002  0.005  0.009
    9  0.006  0.003  0.003  0.012
   10  0.001  0.003  0.010  0.014
   11  0.019  0.009  0.003  0.031
   12  0.001  0.003  0.010  0.014
   13  0.019  0.009  0.003  0.031
   14  0.019  0.009  0.003  0.031
   15  0.030  0.002  0.010  0.042
   16  0.001  0.003  0.010  0.014
   17  0.030  0.002  0.010  0.042
   18  0.030  0.002  0.010  0.042
   19  0.006  0.001  0.009  0.016
   20  0.019  0.004  0.007  0.030
   21  0.019  0.004  0.007  0.030
   22  0.011  0.007  0.003  0.022
   23  0.019  0.004  0.007  0.030
   24  0.011  0.007  0.003  0.022
   25  0.006  0.001  0.009  0.016
   26  0.006  0.001  0.009  0.016
   27  0.011  0.007  0.003  0.022
   28  0.000  0.000  0.002  0.003
   29  0.002  0.001  0.004  0.007
   30  0.002  0.001  0.004  0.007
   31  0.002  0.001  0.004  0.007
   32  0.002  0.001  0.004  0.007
   33  0.002  0.001  0.004  0.007
   34  0.002  0.001  0.004  0.007
   35  0.001  0.001  0.002  0.004
   36  0.017  0.011  0.004  0.032
   37  0.011  0.000  0.000  0.011
tot    0.347  0.116  0.199  0.661
 
band    11 # energy   -5.73348105 # occ.  2.00000000
 
ion      s      p      d    tot
    1  0.000  0.003  0.010  0.013
    2  0.019  0.004  0.005  0.028
    3  0.000  0.001  0.005  0.006
    4  0.015  0.003  0.005  0.023
    5  0.000  0.000  0.010  0.010
    6  0.007  0.002  0.005  0.014
    7  0.003  0.002  0.005  0.009
    8  0.014  0.003  0.005  0.022
    9  0.000  0.005  0.008  0.013
   10  0.000  0.005  0.015  0.020
   11  0.004  0.002  0.010  0.016
   12  0.006  0.001  0.007  0.015
   13  0.006  0.002  0.008  0.015
   14  0.000  0.002  0.014  0.016
   15  0.015  0.003  0.011  0.029
   16  0.004  0.002  0.010  0.017
   17  0.024  0.004  0.006  0.034
   18  0.001  0.001  0.020  0.022
   19  0.006  0.003  0.010  0.019
   20  0.000  0.003  0.020  0.023
   21  0.000  0.001  0.012  0.012
   22  0.010  0.004  0.005  0.018
   23  0.000  0.001  0.015  0.016
   24  0.000  0.001  0.027  0.029
   25  0.000  0.000  0.011  0.012
   26  0.009  0.005  0.009  0.024
   27  0.006  0.003  0.013  0.022
   28  0.000  0.004  0.009  0.013
   29  0.026  0.003  0.009  0.039
   30  0.000  0.002  0.010  0.012
   31  0.020  0.003  0.009  0.032
   32  0.011  0.002  0.010  0.023
   33  0.003  0.002  0.010  0.015
   34  0.021  0.003  0.010  0.033
   35  0.000  0.006  0.009  0.015
   36  0.000  0.001  0.028  0.028
   37  0.000  0.000  0.000  0.000
tot    0.231  0.092  0.385  0.708
 
band    12 # energy   -5.73343868 # occ.  2.00000000
 
ion      s      p      d    tot
    1  0.000  0.003  0.010  0.013
    2  0.000  0.001  0.005  0.006
    3  0.020  0.004  0.005  0.028
    4  0.004  0.002  0.005  0.011
    5  0.000  0.000  0.010  0.010
    6  0.012  0.003  0.005  0.020
    7  0.016  0.003  0.005  0.025
    8  0.005  0.002  0.005  0.012
    9  0.000  0.005  0.008  0.013
   10  0.007  0.001  0.007  0.014
   11  0.003  0.002  0.011  0.016
   12  0.001  0.004  0.014  0.020
   13  0.001  0.002  0.014  0.016
   14  0.006  0.002  0.007  0.015
   15  0.011  0.002  0.014  0.027
   16  0.003  0.003  0.012  0.018
   17  0.003  0.001  0.019  0.023
   18  0.025  0.004  0.005  0.035
   19  0.004  0.003  0.010  0.017
   20  0.000  0.000  0.011  0.011
   21  0.000  0.002  0.019  0.022
   22  0.001  0.002  0.025  0.028
   23  0.000  0.002  0.016  0.018
   24  0.010  0.004  0.004  0.018
   25  0.010  0.006  0.009  0.024
   26  0.001  0.001  0.011  0.013
   27  0.005  0.002  0.017  0.024
   28  0.000  0.004  0.009  0.013
   29  0.001  0.002  0.010  0.012
   30  0.027  0.003  0.009  0.040
   31  0.008  0.002  0.010  0.019
   32  0.016  0.003  0.009  0.028
   33  0.024  0.003  0.010  0.036
   34  0.006  0.003  0.009  0.018
   35  0.000  0.006  0.009  0.015
   36  0.000  0.001  0.028  0.028
   37  0.000  0.000  0.000  0.000
tot    0.231  0.092  0.385  0.708
 
band    13 # energy   -5.72498310 # occ.  2.00000000
 
ion      s      p      d    tot
    1  0.005  0.001  0.010  0.016
    2  0.006  0.001  0.010  0.017
    3  0.006  0.001  0.010  0.016
    4  0.006  0.001  0.010  0.017
    5  0.002  0.001  0.010  0.013
    6  0.006  0.001  0.010  0.017
    7  0.006  0.001  0.010  0.016
    8  0.006  0.001  0.010  0.017
    9  0.013  0.000  0.008  0.022
   10  0.009  0.000  0.025  0.034
   11  0.010  0.000  0.022  0.033
   12  0.009  0.000  0.025  0.034
   13  0.010  0.000  0.022  0.033
   14  0.010  0.000  0.022  0.033
   15  0.004  0.000  0.022  0.026
   16  0.009  0.000  0.025  0.034
   17  0.004  0.000  0.022  0.026
   18  0.004  0.000  0.022  0.026
   19  0.005  0.000  0.019  0.024
   20  0.008  0.001  0.028  0.037
   21  0.008  0.001  0.028  0.037
   22  0.003  0.000  0.018  0.022
   23  0.008  0.001  0.028  0.037
   24  0.003  0.000  0.018  0.022
   25  0.005  0.000  0.019  0.024
   26  0.005  0.000  0.019  0.024
   27  0.003  0.000  0.018  0.022
   28  0.002  0.001  0.006  0.008
   29  0.003  0.000  0.008  0.012
   30  0.003  0.000  0.008  0.011
   31  0.003  0.000  0.008  0.012
   32  0.003  0.000  0.008  0.012
   33  0.003  0.000  0.008  0.011
   34  0.003  0.000  0.008  0.012
   35  0.007  0.000  0.006  0.013
   36  0.001  0.002  0.013  0.016
   37  0.000  0.000  0.000  0.000
tot    0.204  0.014  0.565  0.783
 
band    14 # energy   -5.68016044 # occ.  2.00000000
 
ion      s      p      d    tot
    1  0.000  0.003  0.009  0.012
    2  0.020  0.004  0.005  0.030
    3  0.001  0.002  0.005  0.008
    4  0.020  0.004  0.005  0.029
    5  0.000  0.006  0.010  0.016
    6  0.010  0.003  0.006  0.019
    7  0.002  0.002  0.005  0.009
    8  0.011  0.003  0.006  0.019
    9  0.000  0.000  0.012  0.013
   10  0.019  0.005  0.008  0.031
   11  0.005  0.003  0.021  0.028
   12  0.005  0.001  0.017  0.023
   13  0.004  0.003  0.021  0.028
   14  0.018  0.003  0.005  0.026
   15  0.000  0.003  0.014  0.017
   16  0.005  0.001  0.017  0.023
   17  0.000  0.003  0.014  0.017
   18  0.000  0.000  0.009  0.009
   19  0.001  0.002  0.019  0.022
   20  0.020  0.006  0.005  0.031
   21  0.005  0.002  0.025  0.032
   22  0.001  0.002  0.012  0.015
   23  0.005  0.002  0.025  0.032
   24  0.006  0.003  0.010  0.019
   25  0.004  0.001  0.006  0.010
   26  0.001  0.002  0.019  0.023
   27  0.002  0.002  0.012  0.015
   28  0.000  0.003  0.012  0.014
   29  0.017  0.003  0.007  0.027
   30  0.001  0.001  0.006  0.008
   31  0.017  0.003  0.007  0.027
   32  0.010  0.003  0.007  0.020
   33  0.001  0.001  0.006  0.008
   34  0.010  0.003  0.007  0.020
   35  0.000  0.000  0.011  0.012
   36  0.000  0.011  0.012  0.024
   37  0.000  0.000  0.000  0.000
tot    0.220  0.098  0.397  0.715
 
band    15 # energy   -5.68008799 # occ.  2.00000000
 
ion      s      p      d    tot
    1  0.000  0.003  0.009  0.012
    2  0.001  0.002  0.005  0.008
    3  0.020  0.004  0.006  0.030
    4  0.001  0.002  0.005  0.009
    5  0.000  0.006  0.010  0.016
    6  0.011  0.003  0.005  0.019
    7  0.020  0.004  0.006  0.029
    8  0.011  0.003  0.005  0.019
    9  0.000  0.000  0.012  0.013
   10  0.000  0.000  0.020  0.020
   11  0.013  0.003  0.011  0.027
   12  0.014  0.004  0.011  0.029
   13  0.014  0.003  0.010  0.027
   14  0.000  0.002  0.026  0.029
   15  0.000  0.001  0.011  0.012
   16  0.014  0.004  0.011  0.028
   17  0.000  0.001  0.010  0.012
   18  0.000  0.004  0.016  0.020
   19  0.003  0.001  0.011  0.014
   20  0.000  0.001  0.032  0.032
   21  0.015  0.004  0.012  0.031
   22  0.005  0.002  0.011  0.017
   23  0.015  0.004  0.012  0.031
   24  0.000  0.001  0.012  0.013
   25  0.000  0.003  0.024  0.026
   26  0.003  0.001  0.010  0.014
   27  0.004  0.002  0.011  0.017
   28  0.000  0.003  0.012  0.014
   29  0.002  0.002  0.006  0.010
   30  0.018  0.004  0.008  0.029
   31  0.002  0.002  0.006  0.010
   32  0.008  0.002  0.006  0.017
   33  0.018  0.004  0.008  0.029
   34  0.008  0.002  0.006  0.016
   35  0.000  0.000  0.011  0.012
   36  0.000  0.011  0.012  0.024
   37  0.000  0.000  0.000  0.000
tot    0.220  0.098  0.397  0.715
 
band    16 # energy   -5.67505405 # occ.  2.00000000
 
ion      s      p      d    tot
    1  0.034  0.003  0.000  0.037
    2  0.000  0.003  0.010  0.013
    3  0.000  0.003  0.010  0.013
    4  0.000  0.003  0.010  0.013
    5  0.000  0.000  0.000  0.001
    6  0.000  0.003  0.010  0.013
    7  0.000  0.003  0.010  0.013
    8  0.000  0.003  0.010  0.013
    9  0.028  0.004  0.001  0.032
   10  0.008  0.003  0.010  0.022
   11  0.001  0.000  0.015  0.016
   12  0.008  0.003  0.010  0.022
   13  0.001  0.000  0.015  0.016
   14  0.001  0.000  0.015  0.016
   15  0.007  0.003  0.016  0.026
   16  0.008  0.003  0.010  0.022
   17  0.007  0.003  0.016  0.026
   18  0.007  0.003  0.016  0.026
   19  0.004  0.003  0.018  0.026
   20  0.000  0.000  0.015  0.015
   21  0.000  0.000  0.015  0.015
   22  0.011  0.003  0.009  0.023
   23  0.000  0.000  0.015  0.015
   24  0.011  0.003  0.009  0.023
   25  0.004  0.003  0.018  0.026
   26  0.004  0.003  0.018  0.026
   27  0.011  0.003  0.009  0.023
   28  0.039  0.003  0.000  0.042
   29  0.000  0.003  0.013  0.016
   30  0.000  0.003  0.013  0.016
   31  0.000  0.003  0.013  0.016
   32  0.000  0.003  0.013  0.016
   33  0.000  0.003  0.013  0.016
   34  0.000  0.003  0.013  0.016
   35  0.028  0.003  0.001  0.032
   36  0.000  0.000  0.000  0.000
   37  0.000  0.000  0.000  0.000
tot    0.226  0.090  0.389  0.705
 
band    17 # energy   -5.55500844 # occ.  2.00000000
 
ion      s      p      d    tot
    1  0.012  0.001  0.000  0.014
    2  0.000  0.003  0.011  0.014
    3  0.000  0.003  0.011  0.014
    4  0.000  0.003  0.011  0.014
    5  0.043  0.004  0.000  0.047
    6  0.000  0.003  0.011  0.014
    7  0.000  0.003  0.011  0.014
    8  0.000  0.003  0.011  0.014
    9  0.007  0.001  0.001  0.008
   10  0.001  0.001  0.023  0.025
   11  0.005  0.004  0.018  0.027
   12  0.001  0.001  0.023  0.025
   13  0.005  0.004  0.018  0.027
   14  0.005  0.004  0.018  0.027
   15  0.004  0.001  0.009  0.014
   16  0.001  0.001  0.023  0.025
   17  0.004  0.001  0.009  0.014
   18  0.004  0.001  0.009  0.014
   19  0.008  0.001  0.017  0.026
   20  0.011  0.004  0.008  0.023
   21  0.011  0.004  0.008  0.023
   22  0.002  0.002  0.018  0.021
   23  0.011  0.004  0.008  0.023
   24  0.002  0.002  0.018  0.021
   25  0.008  0.001  0.017  0.026
   26  0.008  0.001  0.017  0.026
   27  0.002  0.002  0.018  0.021
   28  0.004  0.001  0.003  0.008
   29  0.001  0.002  0.015  0.017
   30  0.001  0.002  0.015  0.017
   31  0.001  0.002  0.015  0.017
   32  0.001  0.002  0.015  0.017
   33  0.001  0.002  0.015  0.017
   34  0.001  0.002  0.015  0.017
   35  0.007  0.001  0.001  0.009
   36  0.043  0.018  0.004  0.065
   37  0.011  0.000  0.000  0.011
tot    0.223  0.097  0.438  0.758
 
band    18 # energy   -5.08757342 # occ.  2.00000000
 
ion      s      p      d    tot
    1  0.000  0.001  0.028  0.029
    2  0.015  0.002  0.008  0.025
    3  0.007  0.001  0.008  0.016
    4  0.015  0.001  0.008  0.024
    5  0.000  0.001  0.013  0.014
    6  0.002  0.001  0.008  0.011
    7  0.006  0.001  0.008  0.015
    8  0.002  0.001  0.008  0.010
    9  0.000  0.003  0.004  0.007
   10  0.000  0.000  0.060  0.060
   11  0.000  0.003  0.016  0.020
   12  0.000  0.000  0.020  0.020
   13  0.000  0.003  0.016  0.019
   14  0.000  0.000  0.006  0.006
   15  0.000  0.005  0.015  0.020
   16  0.000  0.000  0.017  0.018
   17  0.000  0.005  0.016  0.021
   18  0.000  0.000  0.028  0.028
   19  0.004  0.003  0.014  0.021
   20  0.000  0.000  0.064  0.065
   21  0.000  0.000  0.027  0.028
   22  0.003  0.002  0.015  0.020
   23  0.000  0.000  0.025  0.025
   24  0.000  0.000  0.017  0.017
   25  0.000  0.000  0.019  0.019
   26  0.004  0.003  0.014  0.021
   27  0.003  0.002  0.015  0.020
   28  0.000  0.001  0.006  0.008
   29  0.009  0.000  0.022  0.031
   30  0.000  0.001  0.016  0.017
   31  0.009  0.000  0.022  0.032
   32  0.012  0.000  0.020  0.032
   33  0.000  0.001  0.016  0.017
   34  0.011  0.000  0.019  0.031
   35  0.000  0.001  0.010  0.012
   36  0.000  0.000  0.041  0.041
   37  0.000  0.000  0.000  0.000
tot    0.102  0.045  0.667  0.815
 
band    19 # energy   -5.08751891 # occ.  2.00000000
 
ion      s      p      d    tot
    1  0.000  0.001  0.028  0.029
    2  0.000  0.001  0.008  0.009
    3  0.009  0.001  0.008  0.018
    4  0.001  0.001  0.008  0.009
    5  0.000  0.001  0.013  0.014
    6  0.014  0.001  0.008  0.023
    7  0.009  0.001  0.008  0.019
    8  0.014  0.001  0.008  0.023
    9  0.000  0.003  0.004  0.007
   10  0.000  0.000  0.005  0.005
   11  0.000  0.001  0.009  0.010
   12  0.000  0.000  0.045  0.045
   13  0.000  0.001  0.009  0.011
   14  0.000  0.005  0.019  0.024
   15  0.000  0.002  0.024  0.026
   16  0.000  0.000  0.047  0.047
   17  0.000  0.002  0.023  0.025
   18  0.000  0.006  0.011  0.018
   19  0.001  0.001  0.017  0.019
   20  0.000  0.000  0.014  0.014
   21  0.000  0.000  0.050  0.051
   22  0.001  0.001  0.016  0.018
   23  0.000  0.000  0.053  0.053
   24  0.004  0.002  0.014  0.021
   25  0.005  0.004  0.012  0.022
   26  0.001  0.001  0.017  0.019
   27  0.001  0.001  0.016  0.018
   28  0.000  0.001  0.006  0.008
   29  0.005  0.001  0.016  0.022
   30  0.014  0.000  0.022  0.036
   31  0.004  0.001  0.016  0.021
   32  0.002  0.001  0.019  0.022
   33  0.014  0.000  0.022  0.036
   34  0.003  0.001  0.019  0.023
   35  0.000  0.001  0.010  0.012
   36  0.000  0.000  0.041  0.041
   37  0.000  0.000  0.000  0.000
tot    0.102  0.045  0.667  0.815
 
band    20 # energy   -5.00824645 # occ.  2.00000000
 
ion      s      p      d    tot
    1  0.000  0.000  0.000  0.001
    2  0.000  0.001  0.015  0.016
    3  0.000  0.001  0.015  0.016
    4  0.000  0.001  0.015  0.016
    5  0.017  0.001  0.000  0.018
    6  0.000  0.001  0.015  0.016
    7  0.000  0.001  0.015  0.016
    8  0.000  0.001  0.015  0.016
    9  0.022  0.001  0.001  0.024
   10  0.000  0.001  0.004  0.005
   11  0.000  0.001  0.025  0.026
   12  0.000  0.001  0.004  0.005
   13  0.000  0.001  0.025  0.026
   14  0.000  0.001  0.025  0.026
   15  0.000  0.003  0.030  0.033
   16  0.000  0.001  0.004  0.005
   17  0.000  0.003  0.030  0.033
   18  0.000  0.003  0.030  0.033
   19  0.000  0.001  0.017  0.018
   20  0.000  0.001  0.018  0.019
   21  0.000  0.001  0.018  0.019
   22  0.001  0.003  0.035  0.039
   23  0.000  0.001  0.018  0.019
   24  0.001  0.003  0.035  0.039
   25  0.000  0.001  0.017  0.018
   26  0.000  0.001  0.017  0.018
   27  0.001  0.003  0.035  0.039
   28  0.015  0.000  0.001  0.017
   29  0.000  0.001  0.031  0.032
   30  0.000  0.001  0.030  0.032
   31  0.000  0.001  0.030  0.032
   32  0.000  0.001  0.030  0.032
   33  0.000  0.001  0.030  0.032
   34  0.000  0.001  0.030  0.032
   35  0.031  0.000  0.006  0.038
   36  0.002  0.000  0.002  0.004
   37  0.000  0.000  0.000  0.000
tot    0.095  0.046  0.668  0.808
 
band    21 # energy   -4.98810920 # occ.  2.00000000
 
ion      s      p      d    tot
    1  0.000  0.002  0.002  0.004
    2  0.014  0.001  0.009  0.025
    3  0.007  0.001  0.009  0.016
    4  0.014  0.001  0.009  0.025
    5  0.000  0.002  0.019  0.021
    6  0.001  0.001  0.009  0.011
    7  0.007  0.001  0.009  0.016
    8  0.001  0.001  0.009  0.011
    9  0.000  0.000  0.030  0.030
   10  0.001  0.007  0.021  0.029
   11  0.000  0.001  0.039  0.040
   12  0.000  0.002  0.009  0.011
   13  0.000  0.001  0.039  0.040
   14  0.001  0.003  0.004  0.008
   15  0.000  0.000  0.030  0.030
   16  0.000  0.002  0.009  0.011
   17  0.000  0.000  0.030  0.030
   18  0.000  0.001  0.011  0.012
   19  0.000  0.000  0.043  0.044
   20  0.002  0.006  0.022  0.030
   21  0.001  0.002  0.017  0.020
   22  0.000  0.001  0.023  0.024
   23  0.001  0.002  0.017  0.019
   24  0.000  0.003  0.015  0.017
   25  0.001  0.001  0.003  0.005
   26  0.000  0.000  0.043  0.043
   27  0.000  0.001  0.023  0.024
   28  0.000  0.001  0.035  0.036
   29  0.012  0.001  0.014  0.027
   30  0.000  0.001  0.013  0.014
   31  0.012  0.001  0.014  0.027
   32  0.011  0.001  0.013  0.025
   33  0.000  0.001  0.013  0.014
   34  0.011  0.001  0.013  0.025
   35  0.000  0.000  0.033  0.033
   36  0.000  0.005  0.000  0.005