PROCAR new format
# of k-points:   10         # of bands:  252         # of ions:   38

 k-point     1 :    0.00000000 0.00000000 0.00000000     weight = 0.01562500

band     1 # energy  -20.01831055 # occ.  2.00000000
 
ion      s      p      d    tot
    1  0.000  0.000  0.000  0.000
    2  0.000  0.000  0.000  0.000
    3  0.000  0.000  0.000  0.000
    4  0.000  0.000  0.000  0.000
    5  0.000  0.000  0.000  0.000
    6  0.000  0.000  0.000  0.000
    7  0.000  0.000  0.000  0.000
    8  0.000  0.000  0.000  0.000
    9  0.000  0.000  0.000  0.000
   10  0.000  0.000  0.000  0.000
   11  0.000  0.000  0.000  0.000
   12  0.000  0.000  0.000  0.000
   13  0.000  0.000  0.000  0.000
   14  0.000  0.000  0.000  0.000
   15  0.000  0.000  0.000  0.000
   16  0.000  0.000  0.000  0.000
   17  0.000  0.000  0.000  0.000
   18  0.000  0.000  0.000  0.000
   19  0.000  0.000  0.000  0.000
   20  0.000  0.000  0.000  0.000
   21  0.000  0.000  0.000  0.000
   22  0.000  0.000  0.000  0.000
   23  0.000  0.000  0.000  0.000
   24  0.000  0.000  0.000  0.000
   25  0.000  0.000  0.000  0.000
   26  0.000  0.000  0.000  0.000
   27  0.000  0.000  0.000  0.000
   28  0.000  0.000  0.000  0.000
   29  0.000  0.000  0.000  0.000
   30  0.000  0.000  0.000  0.000
   31  0.000  0.000  0.000  0.000
   32  0.000  0.000  0.000  0.000
   33  0.000  0.000  0.000  0.000
   34  0.000  0.000  0.000  0.000
   35  0.000  0.000  0.000  0.000
   36  0.008  0.011  0.012  0.031
   37  0.743  0.016  0.000  0.759
   38  0.116  0.024  0.000  0.140
tot    0.868  0.051  0.012  0.930
 
band     2 # energy   -8.60504425 # occ.  2.00000000
 
ion      s      p      d    tot
    1  0.002  0.000  0.000  0.002
    2  0.002  0.000  0.000  0.002
    3  0.002  0.000  0.000  0.002
    4  0.002  0.000  0.000  0.002
    5  0.002  0.000  0.000  0.002
    6  0.002  0.000  0.000  0.002
    7  0.002  0.000  0.000  0.002
    8  0.002  0.000  0.000  0.002
    9  0.002  0.000  0.000  0.002
   10  0.008  0.000  0.000  0.008
   11  0.008  0.000  0.000  0.008
   12  0.008  0.000  0.000  0.008
   13  0.008  0.000  0.000  0.008
   14  0.008  0.000  0.000  0.008
   15  0.008  0.000  0.000  0.008
   16  0.008  0.000  0.000  0.008
   17  0.008  0.000  0.000  0.008
   18  0.008  0.000  0.000  0.008
   19  0.010  0.000  0.000  0.010
   20  0.014  0.000  0.000  0.014
   21  0.014  0.000  0.000  0.014
   22  0.010  0.000  0.000  0.010
   23  0.014  0.000  0.000  0.014
   24  0.010  0.000  0.000  0.010
   25  0.010  0.000  0.000  0.010
   26  0.010  0.000  0.000  0.010
   27  0.010  0.000  0.000  0.010
   28  0.003  0.000  0.000  0.004
   29  0.005  0.000  0.000  0.006
   30  0.005  0.000  0.000  0.006
   31  0.005  0.000  0.000  0.006
   32  0.005  0.000  0.000  0.006
   33  0.005  0.000  0.000  0.006
   34  0.005  0.000  0.000  0.006
   35  0.003  0.000  0.000  0.004
   36  0.047  0.014  0.050  0.111
   37  0.014  0.312  0.000  0.326
   38  0.105  0.011  0.000  0.116
tot    0.395  0.343  0.051  0.790
 
band     3 # energy   -8.33368653 # occ.  2.00000000
 
ion      s      p      d    tot
    1  0.006  0.001  0.000  0.006
    2  0.006  0.001  0.000  0.006
    3  0.006  0.001  0.000  0.006
    4  0.006  0.001  0.000  0.006
    5  0.005  0.001  0.000  0.006
    6  0.006  0.001  0.000  0.006
    7  0.006  0.001  0.000  0.006
    8  0.006  0.001  0.000  0.006
    9  0.006  0.001  0.000  0.006
   10  0.018  0.000  0.000  0.018
   11  0.018  0.000  0.000  0.018
   12  0.018  0.000  0.000  0.018
   13  0.018  0.000  0.000  0.018
   14  0.018  0.000  0.000  0.018
   15  0.018  0.000  0.000  0.018
   16  0.018  0.000  0.000  0.018
   17  0.018  0.000  0.000  0.018
   18  0.018  0.000  0.000  0.018
   19  0.014  0.000  0.000  0.014
   20  0.010  0.001  0.000  0.011
   21  0.010  0.001  0.000  0.011
   22  0.014  0.000  0.000  0.014
   23  0.010  0.001  0.000  0.011
   24  0.014  0.000  0.000  0.014
   25  0.014  0.000  0.000  0.014
   26  0.014  0.000  0.000  0.014
   27  0.014  0.000  0.000  0.014
   28  0.003  0.000  0.000  0.003
   29  0.001  0.001  0.000  0.002
   30  0.001  0.001  0.000  0.002
   31  0.001  0.001  0.000  0.002
   32  0.001  0.001  0.000  0.002
   33  0.001  0.001  0.000  0.002
   34  0.001  0.001  0.000  0.002
   35  0.003  0.000  0.000  0.003
   36  0.009  0.019  0.038  0.066
   37  0.012  0.211  0.000  0.223
   38  0.070  0.007  0.000  0.077
tot    0.432  0.251  0.040  0.724
 
band     4 # energy   -7.08958009 # occ.  2.00000000
 
ion      s      p      d    tot
    1  0.018  0.001  0.001  0.019
    2  0.018  0.001  0.001  0.019
    3  0.018  0.001  0.001  0.019
    4  0.018  0.001  0.001  0.019
    5  0.018  0.001  0.001  0.019
    6  0.018  0.001  0.001  0.019
    7  0.018  0.001  0.001  0.019
    8  0.018  0.001  0.001  0.019
    9  0.018  0.001  0.001  0.019
   10  0.008  0.002  0.001  0.011
   11  0.009  0.002  0.000  0.012
   12  0.008  0.002  0.001  0.011
   13  0.009  0.002  0.000  0.012
   14  0.009  0.002  0.000  0.012
   15  0.008  0.003  0.001  0.011
   16  0.008  0.002  0.001  0.011
   17  0.008  0.003  0.001  0.011
   18  0.008  0.003  0.001  0.011
   19  0.013  0.002  0.001  0.016
   20  0.010  0.002  0.001  0.013
   21  0.010  0.002  0.001  0.013
   22  0.013  0.002  0.001  0.016
   23  0.010  0.002  0.001  0.013
   24  0.013  0.002  0.001  0.016
   25  0.013  0.002  0.001  0.016
   26  0.013  0.002  0.001  0.016
   27  0.013  0.002  0.001  0.016
   28  0.019  0.001  0.000  0.020
   29  0.017  0.001  0.000  0.018
   30  0.017  0.001  0.000  0.018
   31  0.017  0.001  0.000  0.018
   32  0.017  0.001  0.000  0.018
   33  0.017  0.001  0.000  0.018
   34  0.017  0.001  0.000  0.018
   35  0.019  0.001  0.000  0.020
   36  0.005  0.004  0.007  0.016
   37  0.002  0.011  0.000  0.013
   38  0.003  0.000  0.000  0.004
tot    0.493  0.069  0.026  0.588
 
band     5 # energy   -5.49824125 # occ.  2.00000000
 
ion      s      p      d    tot
    1  0.015  0.000  0.005  0.021
    2  0.013  0.000  0.006  0.019
    3  0.013  0.000  0.006  0.019
    4  0.013  0.000  0.006  0.019
    5  0.002  0.001  0.007  0.010
    6  0.013  0.000  0.006  0.019
    7  0.013  0.000  0.006  0.019
    8  0.013  0.000  0.006  0.019
    9  0.028  0.000  0.003  0.031
   10  0.003  0.003  0.004  0.010
   11  0.019  0.006  0.001  0.026
   12  0.003  0.003  0.004  0.010
   13  0.019  0.006  0.001  0.026
   14  0.019  0.006  0.001  0.026
   15  0.000  0.002  0.006  0.009
   16  0.003  0.003  0.004  0.010
   17  0.000  0.002  0.006  0.009
   18  0.000  0.002  0.006  0.009
   19  0.000  0.002  0.006  0.008
   20  0.021  0.005  0.002  0.029
   21  0.021  0.005  0.002  0.029
   22  0.000  0.004  0.003  0.008
   23  0.021  0.005  0.002  0.029
   24  0.000  0.004  0.003  0.008
   25  0.000  0.002  0.006  0.008
   26  0.000  0.002  0.006  0.008
   27  0.000  0.004  0.003  0.008
   28  0.020  0.000  0.003  0.024
   29  0.013  0.000  0.006  0.020
   30  0.013  0.000  0.006  0.020
   31  0.013  0.000  0.006  0.020
   32  0.013  0.000  0.006  0.020
   33  0.013  0.000  0.006  0.020
   34  0.013  0.000  0.006  0.020
   35  0.027  0.000  0.004  0.031
   36  0.000  0.001  0.009  0.011
   37  0.000  0.000  0.000  0.000
   38  0.000  0.000  0.000  0.000
tot    0.376  0.078  0.171  0.625
 
band     6 # energy   -5.46080602 # occ.  2.00000000
 
ion      s      p      d    tot
    1  0.000  0.002  0.005  0.007
    2  0.009  0.002  0.002  0.014
    3  0.000  0.001  0.002  0.003
    4  0.009  0.002  0.002  0.013
    5  0.000  0.003  0.004  0.008
    6  0.005  0.002  0.002  0.009
    7  0.001  0.001  0.002  0.004
    8  0.006  0.002  0.002  0.011
    9  0.000  0.000  0.002  0.002
   10  0.050  0.005  0.003  0.058
   11  0.013  0.008  0.006  0.027
   12  0.010  0.001  0.014  0.025
   13  0.008  0.009  0.006  0.024
   14  0.043  0.001  0.007  0.050
   15  0.000  0.007  0.005  0.012
   16  0.016  0.002  0.013  0.030
   17  0.000  0.007  0.005  0.013
   18  0.000  0.002  0.004  0.006
   19  0.004  0.009  0.003  0.016
   20  0.064  0.003  0.005  0.073
   21  0.013  0.004  0.012  0.029
   22  0.004  0.003  0.011  0.017
   23  0.020  0.004  0.011  0.036
   24  0.019  0.004  0.002  0.025
   25  0.013  0.000  0.006  0.019
   26  0.002  0.011  0.002  0.016
   27  0.006  0.003  0.010  0.018
   28  0.000  0.002  0.003  0.004
   29  0.010  0.003  0.003  0.016
   30  0.001  0.001  0.002  0.004
   31  0.010  0.003  0.003  0.015
   32  0.004  0.001  0.002  0.007
   33  0.002  0.001  0.002  0.005
   34  0.005  0.002  0.002  0.009
   35  0.000  0.000  0.003  0.004
   36  0.000  0.004  0.004  0.008
   37  0.000  0.000  0.000  0.000
   38  0.000  0.000  0.000  0.000
tot    0.347  0.116  0.177  0.640
 
band     7 # energy   -5.46078955 # occ.  2.00000000
 
ion      s      p      d    tot
    1  0.000  0.002  0.005  0.007
    2  0.001  0.001  0.002  0.004
    3  0.010  0.002  0.002  0.015
    4  0.002  0.001  0.002  0.005
    5  0.000  0.003  0.004  0.007
    6  0.005  0.002  0.002  0.009
    7  0.009  0.002  0.003  0.014
    8  0.004  0.001  0.002  0.007
    9  0.000  0.000  0.002  0.002
   10  0.000  0.000  0.017  0.017
   11  0.030  0.004  0.006  0.040
   12  0.041  0.004  0.005  0.050
   13  0.034  0.003  0.006  0.044
   14  0.000  0.011  0.006  0.017
   15  0.000  0.004  0.005  0.009
   16  0.035  0.003  0.007  0.046
   17  0.000  0.003  0.005  0.008
   18  0.000  0.009  0.006  0.014
   19  0.009  0.004  0.005  0.018
   20  0.000  0.005  0.014  0.019
   21  0.052  0.004  0.007  0.063
   22  0.015  0.004  0.004  0.023
   23  0.045  0.004  0.008  0.056
   24  0.000  0.002  0.013  0.016
   25  0.000  0.013  0.002  0.015
   26  0.010  0.003  0.005  0.018
   27  0.013  0.003  0.006  0.022
   28  0.000  0.002  0.003  0.004
   29  0.000  0.001  0.002  0.003
   30  0.010  0.002  0.003  0.015
   31  0.001  0.001  0.002  0.004
   32  0.007  0.002  0.003  0.012
   33  0.009  0.002  0.002  0.014
   34  0.005  0.002  0.003  0.010
   35  0.000  0.000  0.003  0.004
   36  0.000  0.004  0.004  0.008
   37  0.000  0.000  0.000  0.000
   38  0.000  0.000  0.000  0.000
tot    0.347  0.116  0.177  0.640
 
band     8 # energy   -5.44533174 # occ.  2.00000000
 
ion      s      p      d    tot
    1  0.022  0.003  0.001  0.026
    2  0.000  0.002  0.004  0.006
    3  0.000  0.002  0.004  0.006
    4  0.000  0.002  0.004  0.006
    5  0.001  0.000  0.001  0.001
    6  0.000  0.002  0.004  0.006
    7  0.000  0.002  0.004  0.006
    8  0.000  0.002  0.004  0.006
    9  0.010  0.002  0.000  0.012
   10  0.030  0.005  0.006  0.041
   11  0.005  0.000  0.012  0.017
   12  0.029  0.005  0.006  0.041
   13  0.005  0.000  0.012  0.017
   14  0.005  0.000  0.012  0.017
   15  0.014  0.008  0.003  0.025
   16  0.029  0.005  0.006  0.041
   17  0.014  0.008  0.003  0.025
   18  0.014  0.008  0.003  0.026
   19  0.021  0.009  0.002  0.032
   20  0.000  0.002  0.010  0.013
   21  0.000  0.002  0.010  0.013
   22  0.026  0.003  0.009  0.037
   23  0.000  0.002  0.010  0.013
   24  0.025  0.003  0.009  0.037
   25  0.020  0.009  0.002  0.032
   26  0.021  0.009  0.002  0.032
   27  0.025  0.003  0.009  0.037
   28  0.018  0.002  0.000  0.021
   29  0.000  0.002  0.004  0.006
   30  0.000  0.002  0.004  0.005
   31  0.000  0.002  0.004  0.006
   32  0.000  0.002  0.004  0.006
   33  0.000  0.002  0.004  0.005
   34  0.000  0.002  0.004  0.006
   35  0.011  0.002  0.001  0.015
   36  0.000  0.000  0.000  0.000
   37  0.000  0.000  0.000  0.000
   38  0.000  0.000  0.000  0.000
tot    0.345  0.115  0.179  0.639
 
band     9 # energy   -5.43832718 # occ.  2.00000000
 
ion      s      p      d    tot
    1  0.000  0.002  0.003  0.005
    2  0.010  0.002  0.002  0.015
    3  0.000  0.001  0.002  0.003
    4  0.009  0.002  0.002  0.014
    5  0.000  0.000  0.004  0.004
    6  0.006  0.002  0.003  0.010
    7  0.001  0.001  0.002  0.004
    8  0.007  0.002  0.003  0.011
    9  0.000  0.003  0.006  0.009
   10  0.000  0.014  0.001  0.015
   11  0.014  0.004  0.006  0.023
   12  0.010  0.003  0.006  0.018
   13  0.016  0.004  0.005  0.024
   14  0.000  0.002  0.014  0.016
   15  0.046  0.004  0.007  0.057
   16  0.009  0.004  0.005  0.018
   17  0.050  0.004  0.007  0.060
   18  0.000  0.005  0.014  0.018
   19  0.035  0.004  0.006  0.045
   20  0.000  0.009  0.006  0.015
   21  0.000  0.003  0.005  0.008
   22  0.034  0.003  0.006  0.044
   23  0.000  0.004  0.005  0.009
   24  0.000  0.011  0.006  0.017
   25  0.000  0.000  0.017  0.017
   26  0.038  0.004  0.006  0.048
   27  0.031  0.004  0.006  0.042
   28  0.000  0.002  0.005  0.007
   29  0.010  0.002  0.003  0.015
   30  0.001  0.001  0.002  0.004
   31  0.009  0.002  0.003  0.014
   32  0.003  0.001  0.002  0.007
   33  0.002  0.001  0.002  0.005
   34  0.004  0.001  0.002  0.007
   35  0.000  0.003  0.004  0.007
   36  0.000  0.000  0.002  0.002
   37  0.000  0.000  0.000  0.000
   38  0.000  0.000  0.000  0.000
tot    0.345  0.116  0.178  0.638
 
band    10 # energy   -5.43831280 # occ.  2.00000000
 
ion      s      p      d    tot
    1  0.000  0.002  0.003  0.005
    2  0.001  0.001  0.002  0.004
    3  0.010  0.003  0.003  0.016
    4  0.001  0.001  0.002  0.005
    5  0.000  0.000  0.004  0.004
    6  0.005  0.002  0.002  0.009
    7  0.010  0.003  0.003  0.015
    8  0.004  0.002  0.002  0.008
    9  0.000  0.003  0.006  0.009
   10  0.012  0.000  0.007  0.019
   11  0.006  0.003  0.010  0.019
   12  0.003  0.011  0.003  0.016
   13  0.004  0.003  0.011  0.018
   14  0.020  0.004  0.002  0.026
   15  0.018  0.004  0.011  0.034
   16  0.004  0.010  0.003  0.016
   17  0.014  0.004  0.012  0.030
   18  0.063  0.004  0.005  0.072
   19  0.014  0.001  0.013  0.028
   20  0.000  0.002  0.005  0.006
   21  0.000  0.007  0.005  0.013
   22  0.009  0.009  0.006  0.024
   23  0.000  0.007  0.005  0.012
   24  0.044  0.001  0.006  0.051
   25  0.049  0.005  0.002  0.056
   26  0.011  0.001  0.014  0.025
   27  0.012  0.008  0.006  0.026
   28  0.000  0.002  0.005  0.007
   29  0.000  0.001  0.002  0.003
   30  0.009  0.002  0.002  0.013
   31  0.000  0.001  0.002  0.003
   32  0.006  0.002  0.003  0.011
   33  0.008  0.002  0.002  0.012
   34  0.006  0.002  0.003  0.010
   35  0.000  0.003  0.004  0.007
   36  0.000  0.000  0.002  0.002
   37  0.000  0.000  0.000  0.000
   38  0.000  0.000  0.000  0.000
tot    0.345  0.116  0.178  0.638
 
band    11 # energy   -5.37862619 # occ.  2.00000000
 
ion      s      p      d    tot
    1  0.000  0.000  0.002  0.003
    2  0.004  0.002  0.006  0.012
    3  0.004  0.002  0.006  0.012
    4  0.004  0.002  0.006  0.012
    5  0.042  0.003  0.000  0.045
    6  0.004  0.002  0.006  0.012
    7  0.004  0.002  0.006  0.012
    8  0.004  0.002  0.006  0.012
    9  0.001  0.002  0.005  0.008
   10  0.005  0.005  0.007  0.017
   11  0.015  0.008  0.005  0.027
   12  0.005  0.005  0.007  0.017
   13  0.015  0.008  0.005  0.027
   14  0.015  0.008  0.005  0.027
   15  0.026  0.002  0.010  0.038
   16  0.005  0.005  0.007  0.017
   17  0.026  0.002  0.010  0.038
   18  0.026  0.002  0.010  0.038
   19  0.010  0.002  0.007  0.020
   20  0.014  0.004  0.006  0.024
   21  0.014  0.004  0.006  0.024
   22  0.007  0.006  0.004  0.017
   23  0.014  0.004  0.006  0.024
   24  0.007  0.006  0.004  0.017
   25  0.010  0.002  0.007  0.020
   26  0.010  0.002  0.007  0.020
   27  0.007  0.006  0.004  0.017
   28  0.001  0.000  0.004  0.005
   29  0.005  0.001  0.004  0.009
   30  0.005  0.001  0.004  0.009
   31  0.005  0.001  0.004  0.009
   32  0.005  0.001  0.004  0.009
   33  0.005  0.001  0.004  0.009
   34  0.005  0.001  0.004  0.009
   35  0.001  0.000  0.002  0.003
   36  0.012  0.004  0.004  0.020
   37  0.001  0.003  0.000  0.004
   38  0.001  0.000  0.000  0.001
tot    0.344  0.106  0.195  0.646
 
band    12 # energy   -4.69412166 # occ.  2.00000000
 
ion      s      p      d    tot
    1  0.000  0.002  0.009  0.011
    2  0.017  0.003  0.005  0.026
    3  0.000  0.001  0.005  0.006
    4  0.015  0.003  0.005  0.023
    5  0.000  0.006  0.008  0.014
    6  0.012  0.003  0.005  0.020
    7  0.000  0.001  0.005  0.007
    8  0.015  0.003  0.005  0.023
    9  0.000  0.001  0.012  0.013
   10  0.012  0.004  0.008  0.024
   11  0.006  0.002  0.018  0.027
   12  0.002  0.001  0.014  0.018
   13  0.004  0.002  0.021  0.027
   14  0.020  0.004  0.005  0.028
   15  0.000  0.003  0.014  0.017
   16  0.004  0.002  0.013  0.019
   17  0.000  0.003  0.016  0.019
   18  0.001  0.000  0.007  0.008
   19  0.000  0.002  0.016  0.019
   20  0.018  0.005  0.006  0.028
   21  0.003  0.002  0.023  0.029
   22  0.002  0.001  0.012  0.015
   23  0.006  0.002  0.021  0.029
   24  0.010  0.004  0.009  0.023
   25  0.002  0.000  0.007  0.008
   26  0.000  0.003  0.018  0.021
   27  0.003  0.002  0.012  0.016
   28  0.000  0.002  0.012  0.014
   29  0.021  0.003  0.004  0.028
   30  0.000  0.002  0.006  0.007
   31  0.018  0.003  0.004  0.025
   32  0.017  0.003  0.004  0.024
   33  0.000  0.002  0.006  0.008
   34  0.020  0.003  0.004  0.028
   35  0.000  0.001  0.010  0.012
   36  0.000  0.009  0.000  0.010
   37  0.000  0.020  0.000  0.020
   38  0.000  0.000  0.000  0.000
tot    0.228  0.115  0.351  0.695
 
band    13 # energy   -4.69411061 # occ.  2.00000000
 
ion      s      p      d    tot
    1  0.000  0.002  0.009  0.011
    2  0.003  0.002  0.005  0.010
    3  0.020  0.004  0.005  0.029
    4  0.005  0.002  0.005  0.012
    5  0.000  0.006  0.008  0.014
    6  0.008  0.002  0.005  0.015
    7  0.020  0.004  0.005  0.028
    8  0.005  0.002  0.005  0.012
    9  0.000  0.001  0.012  0.013
   10  0.000  0.001  0.016  0.016
   11  0.013  0.003  0.011  0.027
   12  0.010  0.003  0.009  0.023
   13  0.016  0.003  0.008  0.028
   14  0.000  0.001  0.025  0.026
   15  0.001  0.001  0.011  0.012
   16  0.008  0.003  0.010  0.022
   17  0.001  0.001  0.009  0.011
   18  0.000  0.004  0.018  0.021
   19  0.001  0.001  0.011  0.013
   20  0.000  0.001  0.028  0.029
   21  0.015  0.004  0.010  0.028
   22  0.008  0.003  0.010  0.021
   23  0.012  0.004  0.012  0.028
   24  0.000  0.001  0.013  0.014
   25  0.000  0.003  0.021  0.024
   26  0.001  0.001  0.009  0.011
   27  0.007  0.003  0.010  0.020
   28  0.000  0.002  0.012  0.014
   29  0.005  0.002  0.005  0.012
   30  0.025  0.004  0.004  0.033
   31  0.008  0.002  0.005  0.015
   32  0.008  0.002  0.005  0.016
   33  0.025  0.004  0.004  0.033
   34  0.005  0.002  0.005  0.012
   35  0.000  0.001  0.010  0.012
   36  0.000  0.009  0.000  0.010
   37  0.000  0.020  0.000  0.020
   38  0.000  0.000  0.000  0.000
tot    0.228  0.115  0.351  0.695
 
band    14 # energy   -4.68873802 # occ.  2.00000000
 
ion      s      p      d    tot
    1  0.003  0.000  0.008  0.012
    2  0.004  0.001  0.009  0.013
    3  0.004  0.001  0.009  0.013
    4  0.004  0.001  0.009  0.013
    5  0.000  0.001  0.008  0.010
    6  0.004  0.001  0.009  0.013
    7  0.004  0.001  0.009  0.013
    8  0.004  0.001  0.009  0.013
    9  0.016  0.000  0.006  0.022
   10  0.007  0.000  0.024  0.032
   11  0.010  0.001  0.021  0.031
   12  0.007  0.000  0.024  0.031
   13  0.010  0.001  0.021  0.031
   14  0.009  0.000  0.021  0.031
   15  0.002  0.000  0.021  0.023
   16  0.007  0.000  0.024  0.031
   17  0.002  0.000  0.021  0.023
   18  0.002  0.000  0.021  0.023
   19  0.005  0.000  0.020  0.025
   20  0.012  0.001  0.026  0.038
   21  0.011  0.001  0.026  0.038
   22  0.002  0.000  0.023  0.025
   23  0.011  0.001  0.026  0.038
   24  0.002  0.000  0.023  0.025
   25  0.005  0.000  0.020  0.025
   26  0.005  0.000  0.020  0.025
   27  0.002  0.000  0.023  0.025
   28  0.003  0.000  0.007  0.011
   29  0.004  0.001  0.009  0.014
   30  0.005  0.001  0.009  0.014
   31  0.004  0.001  0.009  0.014
   32  0.005  0.001  0.009  0.014
   33  0.005  0.001  0.009  0.014
   34  0.005  0.001  0.009  0.014
   35  0.015  0.000  0.006  0.022
   36  0.000  0.002  0.008  0.010
   37  0.000  0.000  0.000  0.000
   38  0.000  0.000  0.000  0.000
tot    0.200  0.018  0.555  0.773
 
band    15 # energy   -4.67407333 # occ.  2.00000000
 
ion      s      p      d    tot
    1  0.037  0.003  0.000  0.040
    2  0.000  0.003  0.010  0.013
    3  0.000  0.003  0.010  0.013
    4  0.000  0.003  0.010  0.013
    5  0.000  0.000  0.001  0.001
    6  0.000  0.003  0.010  0.013
    7  0.000  0.003  0.010  0.013
    8  0.000  0.003  0.010  0.013
    9  0.026  0.004  0.001  0.031
   10  0.007  0.004  0.011  0.021
   11  0.002  0.000  0.015  0.017
   12  0.007  0.004  0.011  0.021
   13  0.002  0.000  0.015  0.017
   14  0.002  0.000  0.015  0.017
   15  0.007  0.003  0.019  0.029
   16  0.007  0.004  0.011  0.021
   17  0.007  0.003  0.019  0.029
   18  0.007  0.003  0.019  0.029
   19  0.005  0.004  0.017  0.025
   20  0.000  0.000  0.016  0.016
   21  0.000  0.000  0.016  0.016
   22  0.013  0.003  0.011  0.027
   23  0.000  0.000  0.016  0.016
   24  0.013  0.003  0.011  0.027
   25  0.005  0.004  0.017  0.025
   26  0.005  0.004  0.017  0.025
   27  0.013  0.003  0.011  0.027
   28  0.038  0.003  0.000  0.041
   29  0.000  0.003  0.010  0.013
   30  0.000  0.003  0.010  0.013
   31  0.000  0.003  0.010  0.013
   32  0.000  0.003  0.010  0.013
   33  0.000  0.003  0.010  0.013
   34  0.000  0.003  0.010  0.013
   35  0.023  0.004  0.002  0.028
   36  0.000  0.000  0.000  0.000
   37  0.000  0.000  0.000  0.000
   38  0.000  0.000  0.000  0.000
tot    0.226  0.089  0.392  0.707
 
band    16 # energy   -4.66414493 # occ.  2.00000000
 
ion      s      p      d    tot
    1  0.000  0.004  0.011  0.016
    2  0.004  0.002  0.005  0.011
    3  0.021  0.004  0.006  0.030
    4  0.004  0.002  0.005  0.011
    5  0.000  0.000  0.012  0.012
    6  0.007  0.002  0.005  0.014
    7  0.021  0.004  0.006  0.031
    8  0.007  0.002  0.005  0.015
    9  0.000  0.005  0.008  0.013
   10  0.009  0.002  0.005  0.016
   11  0.001  0.002  0.013  0.016
   12  0.002  0.003  0.022  0.027
   13  0.001  0.002  0.013  0.016
   14  0.002  0.001  0.010  0.014
   15  0.005  0.001  0.019  0.025
   16  0.002  0.003  0.023  0.028
   17  0.005  0.002  0.018  0.025
   18  0.020  0.006  0.007  0.033
   19  0.005  0.001  0.018  0.025
   20  0.001  0.001  0.011  0.013
   21  0.000  0.002  0.015  0.018
   22  0.003  0.003  0.020  0.026
   23  0.000  0.002  0.015  0.018
   24  0.013  0.002  0.005  0.020
   25  0.021  0.005  0.006  0.033
   26  0.006  0.001  0.018  0.025
   27  0.003  0.003  0.021  0.027
   28  0.000  0.004  0.008  0.012
   29  0.005  0.002  0.006  0.013
   30  0.021  0.004  0.005  0.030
   31  0.005  0.002  0.006  0.012
   32  0.005  0.002  0.006  0.013
   33  0.021  0.004  0.005  0.030
   34  0.006  0.002  0.006  0.014
   35  0.000  0.005  0.010  0.015
   36  0.000  0.000  0.008  0.008
   37  0.000  0.000  0.000  0.000
   38  0.000  0.000  0.000  0.000
tot    0.226  0.093  0.382  0.702
 
band    17 # energy   -4.66413450 # occ.  2.00000000
 
ion      s      p      d    tot
    1  0.000  0.004  0.011  0.016
    2  0.017  0.003  0.005  0.026
    3  0.000  0.002  0.005  0.007
    4  0.018  0.003  0.005  0.026
    5  0.000  0.000  0.012  0.012
    6  0.015  0.003  0.006  0.023
    7  0.000  0.002  0.005  0.007
    8  0.014  0.003  0.006  0.023
    9  0.000  0.005  0.008  0.013
   10  0.000  0.003  0.028  0.031
   11  0.002  0.002  0.011  0.014
   12  0.006  0.002  0.011  0.020
   13  0.002  0.002  0.011  0.015
   14  0.000  0.002  0.014  0.016
   15  0.015  0.005  0.011  0.030
   16  0.007  0.002  0.011  0.019
   17  0.015  0.004  0.011  0.030
   18  0.000  0.000  0.023  0.023
   19  0.016  0.004  0.010  0.030
   20  0.000  0.003  0.016  0.019
   21  0.001  0.001  0.012  0.015
   22  0.009  0.002  0.011  0.022
   23  0.001  0.001  0.012  0.014
   24  0.000  0.003  0.026  0.029
   25  0.000  0.000  0.022  0.022
   26  0.016  0.004  0.011  0.030
   27  0.010  0.002  0.010  0.022
   28  0.000  0.004  0.008  0.012
   29  0.016  0.003  0.005  0.024
   30  0.000  0.002  0.006  0.007
   31  0.016  0.003  0.005  0.025
   32  0.016  0.003  0.005  0.024
   33  0.000  0.002  0.006  0.007
   34  0.015  0.003  0.005  0.023
   35  0.000  0.005  0.010  0.015
   36  0.000  0.000  0.008  0.008
   37  0.000  0.000  0.000  0.000
   38  0.000  0.000  0.000  0.000
tot    0.226  0.093  0.382  0.702
 
band    18 # energy   -4.55278120 # occ.  2.00000000
 
ion      s      p      d    tot
    1  0.011  0.001  0.000  0.013
    2  0.000  0.003  0.011  0.014
    3  0.000  0.003  0.011  0.014
    4  0.000  0.003  0.011  0.014
    5  0.045  0.003  0.000  0.048
    6  0.000  0.003  0.011  0.014
    7  0.000  0.003  0.011  0.014
    8  0.000  0.003  0.011  0.014
    9  0.006  0.001  0.001  0.008
   10  0.001  0.001  0.024  0.027
   11  0.004  0.004  0.020  0.028
   12  0.001  0.001  0.024  0.027
   13  0.004  0.004  0.020  0.028
   14  0.004  0.004  0.020  0.028
   15  0.004  0.002  0.010  0.016
   16  0.001  0.001  0.024  0.027
   17  0.004  0.002  0.010  0.016
   18  0.004  0.002  0.010  0.016
   19  0.011  0.001  0.020  0.032
   20  0.010  0.004  0.009  0.023
   21  0.010  0.004  0.009  0.023
   22  0.003  0.002  0.018  0.023
   23  0.010  0.004  0.009  0.023
   24  0.003  0.002  0.018  0.023
   25  0.011  0.001  0.020  0.032
   26  0.011  0.001  0.020  0.032
   27  0.003  0.002  0.018  0.023
   28  0.002  0.002  0.005  0.009
   29  0.001  0.002  0.010  0.014
   30  0.001  0.002  0.010  0.014
   31  0.001  0.002  0.010  0.014
   32  0.001  0.002  0.010  0.014
   33  0.001  0.002  0.010  0.014
   34  0.001  0.002  0.010  0.014
   35  0.004  0.002  0.002  0.007
   36  0.024  0.007  0.004  0.035
   37  0.001  0.003  0.000  0.003
   38  0.001  0.000  0.000  0.001
tot    0.200  0.086  0.448  0.734
 
band    19 # energy   -4.30837973 # occ.  2.00000000
 
ion      s      p      d    tot
    1  0.000  0.001  0.001  0.002
    2  0.004  0.001  0.001  0.006
    3  0.001  0.000  0.001  0.003
    4  0.004  0.001  0.001  0.006
    5  0.000  0.001  0.003  0.004
    6  0.001  0.000  0.001  0.003
    7  0.001  0.000  0.001  0.003
    8  0.001  0.000  0.001  0.003
    9  0.000  0.000  0.005  0.005
   10  0.000  0.002  0.005  0.007
   11  0.000  0.000  0.010  0.010
   12  0.000  0.000  0.002  0.003
   13  0.000  0.000  0.010  0.010
   14  0.000  0.001  0.000  0.001
   15  0.000  0.000  0.005  0.005
   16  0.000  0.000  0.002  0.003
   17  0.000  0.000  0.005  0.005
   18  0.000  0.000  0.003  0.003
   19  0.000  0.000  0.003  0.003
   20  0.005  0.000  0.006  0.011
   21  0.001  0.000  0.008  0.010
   22  0.000  0.000  0.007  0.007
   23  0.001  0.000  0.008  0.010
   24  0.001  0.000  0.001  0.002
   25  0.000  0.000  0.002  0.003
   26  0.000  0.000  0.003  0.003
   27  0.000  0.000  0.007  0.007
   28  0.000  0.000  0.004  0.004
   29  0.006  0.002  0.011  0.019
   30  0.000  0.000  0.006  0.007
   31  0.006  0.002  0.011  0.019
   32  0.005  0.002  0.010  0.016
   33  0.000  0.000  0.006  0.007
   34  0.005  0.002  0.010  0.016
   35  0.000  0.000  0.006  0.006
   36  0.000  0.009  0.100  0.109
   37  0.000  0.363  0.000  0.363
   38  0.000  0.006  0.000  0.006
tot    0.043  0.396  0.269  0.708
 
band    20 # energy   -4.30830340 # occ.  2.00000000
 
ion      s      p      d    tot
    1  0.000  0.001  0.001  0.002
    2  0.000  0.000  0.001  0.002
    3  0.003  0.000  0.001  0.005
    4  0.000  0.000  0.001  0.002
    5  0.000  0.001  0.003  0.004
    6  0.003  0.000  0.001  0.005
    7  0.003  0.000  0.001  0.005
    8  0.003  0.000  0.001  0.005
    9  0.000  0.000  0.005  0.005
   10  0.000  0.000  0.002  0.002
   11  0.000  0.001  0.004  0.004
   12  0.000  0.001  0.004  0.006
   13  0.000  0.001  0.004  0.004
   14  0.000  0.000  0.013  0.013
   15  0.000  0.000  0.003  0.004
   16  0.000  0.001  0.004  0.006
   17  0.000  0.000  0.003  0.004
   18  0.000  0.000  0.006  0.006
   19  0.000  0.000  0.003  0.003
   20  0.000  0.000  0.009  0.009
   21  0.003  0.000  0.007  0.010
   22  0.001  0.000  0.003  0.004
   23  0.003  0.000  0.007  0.010
   24  0.000  0.000  0.008  0.008
   25  0.000  0.000  0.003  0.004
   26  0.000  0.000  0.003  0.003
   27  0.001  0.000  0.003  0.004
   28  0.000  0.000  0.004  0.004
   29  0.001  0.001  0.007  0.009
   30  0.007  0.002  0.012  0.021
   31  0.001  0.001  0.007  0.009
   32  0.002  0.001  0.008  0.011
   33  0.007  0.002  0.012  0.021
   34  0.002  0.001  0.008  0.011
   35  0.000  0.000  0.006  0.006
   36  0.000  0.009  0.100  0.109
   37  0.000  0.363  0.000  0.363
   38  0.000  0.006  0.000  0.006
tot    0.043  0.396  0.269  0.708
 
band    21 # energy   -3.98368470 # occ.  2.00000000
 
ion      s      p      d    tot
    1  0.000  0.000  0.038  0.038
    2  0.005  0.001  0.010  0.016
    3  0.004  0.001  0.010  0.015
    4  0.004  0.001  0.010  0.014
    5  0.000  0.002  0.007  0.008
    6  0.016  0.001  0.010  0.027
    7  0.003  0.001  0.010  0.014
    8  0.016  0.001  0.010  0.027
    9  0.000  0.003  0.013  0.016
   10  0.000  0.000  0.009  0.009
   11  0.000  0.002  0.012  0.015
   12  0.000  0.000  0.044  0.044
   13  0.000  0.001  0.011  0.013
   14  0.001  0.006  0.021  0.028
   15  0.000  0.001  0.032  0.034
   16  0.000  0.000  0.041  0.041