PROCAR new format
# of k-points:   10         # of bands:  252         # of ions:   38

 k-point     1 :    0.00000000 0.00000000 0.00000000     weight = 0.01562500

band     1 # energy  -49.52860146 # occ.  2.00000000
 
ion      s      p      d    tot
    1  0.000  0.000  0.000  0.000
    2  0.000  0.000  0.000  0.000
    3  0.000  0.000  0.000  0.000
    4  0.000  0.000  0.000  0.000
    5  0.000  0.000  0.000  0.000
    6  0.000  0.000  0.000  0.000
    7  0.000  0.000  0.000  0.000
    8  0.000  0.000  0.000  0.000
    9  0.000  0.000  0.000  0.000
   10  0.000  0.000  0.000  0.000
   11  0.000  0.000  0.000  0.000
   12  0.000  0.000  0.000  0.000
   13  0.000  0.000  0.000  0.000
   14  0.000  0.000  0.000  0.000
   15  0.000  0.000  0.000  0.000
   16  0.000  0.000  0.000  0.000
   17  0.000  0.000  0.000  0.000
   18  0.000  0.000  0.000  0.000
   19  0.000  0.000  0.000  0.000
   20  0.000  0.000  0.000  0.000
   21  0.000  0.000  0.000  0.000
   22  0.000  0.000  0.000  0.000
   23  0.000  0.000  0.000  0.000
   24  0.000  0.000  0.000  0.000
   25  0.000  0.000  0.000  0.000
   26  0.000  0.000  0.000  0.000
   27  0.000  0.000  0.000  0.000
   28  0.000  0.000  0.000  0.000
   29  0.000  0.000  0.000  0.000
   30  0.000  0.000  0.000  0.000
   31  0.000  0.000  0.000  0.000
   32  0.000  0.000  0.000  0.000
   33  0.000  0.000  0.000  0.000
   34  0.000  0.000  0.000  0.000
   35  0.000  0.000  0.000  0.000
   36  0.992  0.000  0.000  0.992
   37  0.001  0.000  0.000  0.001
   38  0.000  0.000  0.000  0.000
tot    0.993  0.001  0.000  0.993
 
band     2 # energy  -27.86208206 # occ.  2.00000000
 
ion      s      p      d    tot
    1  0.000  0.000  0.000  0.000
    2  0.000  0.000  0.000  0.000
    3  0.000  0.000  0.000  0.000
    4  0.000  0.000  0.000  0.000
    5  0.000  0.000  0.000  0.000
    6  0.000  0.000  0.000  0.000
    7  0.000  0.000  0.000  0.000
    8  0.000  0.000  0.000  0.000
    9  0.000  0.000  0.000  0.000
   10  0.000  0.000  0.000  0.000
   11  0.000  0.000  0.000  0.000
   12  0.000  0.000  0.000  0.000
   13  0.000  0.000  0.000  0.000
   14  0.000  0.000  0.000  0.000
   15  0.000  0.000  0.000  0.000
   16  0.000  0.000  0.000  0.000
   17  0.000  0.000  0.000  0.000
   18  0.000  0.000  0.000  0.000
   19  0.000  0.000  0.000  0.000
   20  0.000  0.000  0.000  0.001
   21  0.000  0.000  0.000  0.001
   22  0.000  0.000  0.000  0.000
   23  0.000  0.000  0.000  0.001
   24  0.000  0.000  0.000  0.000
   25  0.000  0.000  0.000  0.000
   26  0.000  0.000  0.000  0.000
   27  0.000  0.000  0.000  0.000
   28  0.000  0.000  0.000  0.000
   29  0.000  0.000  0.000  0.000
   30  0.000  0.000  0.000  0.000
   31  0.000  0.000  0.000  0.000
   32  0.000  0.000  0.000  0.000
   33  0.000  0.000  0.000  0.000
   34  0.000  0.000  0.000  0.000
   35  0.000  0.000  0.000  0.000
   36  0.000  0.932  0.001  0.932
   37  0.029  0.006  0.000  0.035
   38  0.001  0.000  0.000  0.001
tot    0.030  0.939  0.001  0.970
 
band     3 # energy  -27.53899140 # occ.  2.00000000
 
ion      s      p      d    tot
    1  0.000  0.000  0.000  0.000
    2  0.000  0.000  0.000  0.000
    3  0.000  0.000  0.000  0.000
    4  0.000  0.000  0.000  0.000
    5  0.000  0.000  0.000  0.000
    6  0.000  0.000  0.000  0.000
    7  0.000  0.000  0.000  0.000
    8  0.000  0.000  0.000  0.000
    9  0.000  0.000  0.000  0.000
   10  0.000  0.000  0.000  0.000
   11  0.000  0.000  0.000  0.000
   12  0.000  0.000  0.000  0.000
   13  0.000  0.000  0.000  0.000
   14  0.000  0.000  0.000  0.000
   15  0.000  0.000  0.000  0.000
   16  0.000  0.000  0.000  0.000
   17  0.000  0.000  0.000  0.000
   18  0.000  0.000  0.000  0.000
   19  0.000  0.000  0.000  0.000
   20  0.000  0.000  0.000  0.000
   21  0.000  0.000  0.000  0.000
   22  0.000  0.000  0.000  0.000
   23  0.000  0.000  0.000  0.000
   24  0.000  0.000  0.000  0.000
   25  0.000  0.000  0.000  0.000
   26  0.000  0.000  0.000  0.000
   27  0.000  0.000  0.000  0.000
   28  0.000  0.000  0.000  0.000
   29  0.000  0.000  0.000  0.000
   30  0.000  0.000  0.000  0.001
   31  0.000  0.000  0.000  0.000
   32  0.000  0.000  0.000  0.000
   33  0.000  0.000  0.000  0.001
   34  0.000  0.000  0.000  0.000
   35  0.000  0.000  0.000  0.000
   36  0.000  0.970  0.000  0.970
   37  0.000  0.000  0.000  0.000
   38  0.000  0.000  0.000  0.000
tot    0.001  0.971  0.001  0.973
 
band     4 # energy  -27.53897921 # occ.  2.00000000
 
ion      s      p      d    tot
    1  0.000  0.000  0.000  0.000
    2  0.000  0.000  0.000  0.000
    3  0.000  0.000  0.000  0.000
    4  0.000  0.000  0.000  0.000
    5  0.000  0.000  0.000  0.000
    6  0.000  0.000  0.000  0.000
    7  0.000  0.000  0.000  0.000
    8  0.000  0.000  0.000  0.000
    9  0.000  0.000  0.000  0.000
   10  0.000  0.000  0.000  0.000
   11  0.000  0.000  0.000  0.000
   12  0.000  0.000  0.000  0.000
   13  0.000  0.000  0.000  0.000
   14  0.000  0.000  0.000  0.000
   15  0.000  0.000  0.000  0.000
   16  0.000  0.000  0.000  0.000
   17  0.000  0.000  0.000  0.000
   18  0.000  0.000  0.000  0.000
   19  0.000  0.000  0.000  0.000
   20  0.000  0.000  0.000  0.000
   21  0.000  0.000  0.000  0.000
   22  0.000  0.000  0.000  0.000
   23  0.000  0.000  0.000  0.000
   24  0.000  0.000  0.000  0.000
   25  0.000  0.000  0.000  0.000
   26  0.000  0.000  0.000  0.000
   27  0.000  0.000  0.000  0.000
   28  0.000  0.000  0.000  0.000
   29  0.000  0.000  0.000  0.001
   30  0.000  0.000  0.000  0.000
   31  0.000  0.000  0.000  0.001
   32  0.000  0.000  0.000  0.001
   33  0.000  0.000  0.000  0.000
   34  0.000  0.000  0.000  0.001
   35  0.000  0.000  0.000  0.000
   36  0.000  0.970  0.000  0.970
   37  0.000  0.000  0.000  0.000
   38  0.000  0.000  0.000  0.000
tot    0.001  0.971  0.001  0.973
 
band     5 # energy  -19.42207493 # occ.  2.00000000
 
ion      s      p      d    tot
    1  0.000  0.000  0.000  0.000
    2  0.000  0.000  0.000  0.000
    3  0.000  0.000  0.000  0.000
    4  0.000  0.000  0.000  0.000
    5  0.000  0.000  0.000  0.000
    6  0.000  0.000  0.000  0.000
    7  0.000  0.000  0.000  0.000
    8  0.000  0.000  0.000  0.000
    9  0.000  0.000  0.000  0.000
   10  0.000  0.000  0.000  0.000
   11  0.000  0.000  0.000  0.000
   12  0.000  0.000  0.000  0.000
   13  0.000  0.000  0.000  0.000
   14  0.000  0.000  0.000  0.000
   15  0.000  0.000  0.000  0.000
   16  0.000  0.000  0.000  0.000
   17  0.000  0.000  0.000  0.000
   18  0.000  0.000  0.000  0.000
   19  0.000  0.000  0.000  0.000
   20  0.000  0.000  0.000  0.000
   21  0.000  0.000  0.000  0.000
   22  0.000  0.000  0.000  0.000
   23  0.000  0.000  0.000  0.000
   24  0.000  0.000  0.000  0.000
   25  0.000  0.000  0.000  0.000
   26  0.000  0.000  0.000  0.000
   27  0.000  0.000  0.000  0.000
   28  0.000  0.000  0.000  0.000
   29  0.000  0.000  0.000  0.000
   30  0.000  0.000  0.000  0.000
   31  0.000  0.000  0.000  0.000
   32  0.000  0.000  0.000  0.000
   33  0.000  0.000  0.000  0.000
   34  0.000  0.000  0.000  0.000
   35  0.000  0.000  0.000  0.000
   36  0.004  0.033  0.013  0.050
   37  0.713  0.023  0.000  0.736
   38  0.121  0.025  0.000  0.146
tot    0.838  0.081  0.013  0.932
 
band     6 # energy   -8.57170904 # occ.  2.00000000
 
ion      s      p      d    tot
    1  0.006  0.001  0.000  0.007
    2  0.006  0.000  0.000  0.007
    3  0.006  0.000  0.000  0.007
    4  0.006  0.000  0.000  0.007
    5  0.006  0.001  0.000  0.007
    6  0.006  0.000  0.000  0.007
    7  0.006  0.000  0.000  0.007
    8  0.006  0.000  0.000  0.007
    9  0.006  0.000  0.000  0.006
   10  0.025  0.000  0.000  0.026
   11  0.026  0.000  0.000  0.026
   12  0.025  0.000  0.000  0.026
   13  0.026  0.000  0.000  0.026
   14  0.026  0.000  0.000  0.026
   15  0.024  0.000  0.000  0.025
   16  0.025  0.000  0.000  0.026
   17  0.024  0.000  0.000  0.025
   18  0.024  0.000  0.000  0.025
   19  0.023  0.000  0.000  0.024
   20  0.028  0.000  0.000  0.029
   21  0.028  0.000  0.000  0.029
   22  0.023  0.000  0.000  0.024
   23  0.028  0.000  0.000  0.029
   24  0.023  0.000  0.000  0.024
   25  0.023  0.000  0.000  0.024
   26  0.023  0.000  0.000  0.024
   27  0.023  0.000  0.000  0.024
   28  0.005  0.000  0.000  0.005
   29  0.005  0.000  0.000  0.005
   30  0.005  0.000  0.000  0.005
   31  0.005  0.000  0.000  0.005
   32  0.005  0.000  0.000  0.005
   33  0.005  0.000  0.000  0.005
   34  0.005  0.000  0.000  0.005
   35  0.005  0.000  0.000  0.005
   36  0.005  0.000  0.002  0.008
   37  0.000  0.013  0.000  0.013
   38  0.005  0.000  0.000  0.005
tot    0.555  0.024  0.006  0.585
 
band     7 # energy   -7.84345129 # occ.  2.00000000
 
ion      s      p      d    tot
    1  0.002  0.000  0.000  0.002
    2  0.002  0.000  0.000  0.002
    3  0.002  0.000  0.000  0.002
    4  0.002  0.000  0.000  0.002
    5  0.002  0.000  0.000  0.002
    6  0.002  0.000  0.000  0.002
    7  0.002  0.000  0.000  0.002
    8  0.002  0.000  0.000  0.002
    9  0.002  0.000  0.000  0.002
   10  0.003  0.000  0.001  0.003
   11  0.003  0.000  0.000  0.003
   12  0.003  0.000  0.001  0.003
   13  0.003  0.000  0.000  0.003
   14  0.003  0.000  0.000  0.003
   15  0.004  0.000  0.000  0.004
   16  0.003  0.000  0.001  0.003
   17  0.004  0.000  0.000  0.004
   18  0.004  0.000  0.000  0.004
   19  0.000  0.000  0.000  0.001
   20  0.002  0.001  0.005  0.008
   21  0.002  0.001  0.005  0.008
   22  0.000  0.000  0.000  0.000
   23  0.002  0.001  0.005  0.008
   24  0.000  0.000  0.000  0.000
   25  0.000  0.000  0.000  0.001
   26  0.000  0.000  0.000  0.001
   27  0.000  0.000  0.000  0.000
   28  0.000  0.000  0.000  0.000
   29  0.000  0.000  0.000  0.000
   30  0.000  0.000  0.000  0.000
   31  0.000  0.000  0.000  0.000
   32  0.000  0.000  0.000  0.000
   33  0.000  0.000  0.000  0.000
   34  0.000  0.000  0.000  0.000
   35  0.000  0.000  0.000  0.000
   36  0.029  0.015  0.095  0.139
   37  0.028  0.465  0.000  0.493
   38  0.155  0.015  0.000  0.171
tot    0.265  0.501  0.115  0.881
 
band     8 # energy   -7.35927062 # occ.  2.00000000
 
ion      s      p      d    tot
    1  0.016  0.000  0.001  0.017
    2  0.015  0.000  0.001  0.016
    3  0.015  0.000  0.001  0.016
    4  0.015  0.000  0.001  0.016
    5  0.015  0.000  0.001  0.016
    6  0.015  0.000  0.001  0.016
    7  0.015  0.000  0.001  0.016
    8  0.015  0.000  0.001  0.016
    9  0.014  0.000  0.001  0.016
   10  0.010  0.001  0.002  0.013
   11  0.009  0.001  0.002  0.012
   12  0.010  0.001  0.002  0.013
   13  0.009  0.001  0.002  0.012
   14  0.009  0.001  0.002  0.012
   15  0.008  0.001  0.002  0.012
   16  0.010  0.001  0.002  0.013
   17  0.008  0.001  0.002  0.012
   18  0.008  0.001  0.002  0.012
   19  0.014  0.001  0.003  0.017
   20  0.011  0.001  0.004  0.016
   21  0.011  0.001  0.004  0.016
   22  0.015  0.001  0.003  0.019
   23  0.011  0.001  0.004  0.016
   24  0.015  0.001  0.003  0.019
   25  0.014  0.001  0.003  0.017
   26  0.014  0.001  0.003  0.017
   27  0.015  0.001  0.003  0.019
   28  0.017  0.000  0.001  0.018
   29  0.015  0.001  0.001  0.017
   30  0.015  0.001  0.001  0.017
   31  0.015  0.001  0.001  0.017
   32  0.015  0.001  0.001  0.017
   33  0.015  0.001  0.001  0.017
   34  0.015  0.001  0.001  0.017
   35  0.017  0.001  0.001  0.018
   36  0.001  0.003  0.013  0.016
   37  0.003  0.033  0.000  0.036
   38  0.010  0.001  0.000  0.011
tot    0.470  0.065  0.080  0.614
 
band     9 # energy   -6.47571552 # occ.  2.00000000
 
ion      s      p      d    tot
    1  0.004  0.000  0.008  0.012
    2  0.008  0.000  0.006  0.014
    3  0.008  0.000  0.006  0.014
    4  0.008  0.000  0.006  0.014
    5  0.006  0.000  0.005  0.011
    6  0.008  0.000  0.006  0.014
    7  0.008  0.000  0.006  0.014
    8  0.008  0.000  0.006  0.014
    9  0.017  0.000  0.004  0.021
   10  0.004  0.001  0.003  0.008
   11  0.004  0.001  0.002  0.007
   12  0.004  0.001  0.003  0.008
   13  0.004  0.001  0.002  0.007
   14  0.004  0.001  0.002  0.007
   15  0.001  0.001  0.003  0.005
   16  0.004  0.001  0.003  0.008
   17  0.001  0.001  0.003  0.005
   18  0.001  0.001  0.003  0.005
   19  0.003  0.001  0.014  0.017
   20  0.017  0.001  0.014  0.033
   21  0.017  0.001  0.014  0.033
   22  0.000  0.001  0.010  0.012
   23  0.017  0.001  0.014  0.033
   24  0.000  0.001  0.010  0.012
   25  0.003  0.001  0.014  0.017
   26  0.003  0.001  0.014  0.017
   27  0.000  0.001  0.010  0.012
   28  0.023  0.000  0.011  0.034
   29  0.020  0.000  0.016  0.036
   30  0.020  0.000  0.016  0.036
   31  0.020  0.000  0.016  0.036
   32  0.020  0.000  0.016  0.036
   33  0.020  0.000  0.016  0.036
   34  0.020  0.000  0.016  0.036
   35  0.029  0.000  0.013  0.042
   36  0.003  0.001  0.004  0.009
   37  0.000  0.003  0.000  0.003
   38  0.001  0.000  0.000  0.001
tot    0.340  0.025  0.315  0.680
 
band    10 # energy   -6.43265328 # occ.  2.00000000
 
ion      s      p      d    tot
    1  0.000  0.001  0.008  0.009
    2  0.003  0.001  0.003  0.007
    3  0.006  0.001  0.003  0.010
    4  0.003  0.001  0.003  0.007
    5  0.000  0.001  0.006  0.007
    6  0.001  0.000  0.002  0.003
    7  0.006  0.001  0.003  0.010
    8  0.001  0.000  0.002  0.003
    9  0.000  0.000  0.001  0.001
   10  0.000  0.000  0.035  0.035
   11  0.034  0.001  0.014  0.050
   12  0.030  0.002  0.012  0.044
   13  0.034  0.001  0.014  0.050
   14  0.000  0.004  0.020  0.024
   15  0.000  0.001  0.010  0.011
   16  0.030  0.002  0.012  0.044
   17  0.000  0.001  0.010  0.011
   18  0.000  0.003  0.006  0.009
   19  0.011  0.001  0.011  0.023
   20  0.000  0.002  0.042  0.044
   21  0.048  0.001  0.017  0.067
   22  0.009  0.001  0.011  0.021
   23  0.048  0.001  0.018  0.067
   24  0.000  0.001  0.024  0.025
   25  0.000  0.004  0.004  0.008
   26  0.011  0.001  0.011  0.023
   27  0.009  0.001  0.011  0.021
   28  0.000  0.000  0.001  0.002
   29  0.000  0.000  0.003  0.003
   30  0.004  0.001  0.004  0.008
   31  0.000  0.000  0.003  0.003
   32  0.005  0.001  0.004  0.010
   33  0.004  0.001  0.004  0.008
   34  0.005  0.001  0.004  0.010
   35  0.000  0.000  0.004  0.004
   36  0.000  0.001  0.005  0.006
   37  0.000  0.000  0.000  0.000
   38  0.000  0.000  0.000  0.000
tot    0.303  0.042  0.345  0.690
 
band    11 # energy   -6.43262285 # occ.  2.00000000
 
ion      s      p      d    tot
    1  0.000  0.001  0.008  0.009
    2  0.004  0.001  0.002  0.007
    3  0.000  0.000  0.003  0.004
    4  0.004  0.001  0.002  0.007
    5  0.000  0.001  0.006  0.007
    6  0.006  0.001  0.003  0.010
    7  0.000  0.000  0.003  0.004
    8  0.006  0.001  0.003  0.010
    9  0.000  0.000  0.001  0.001
   10  0.040  0.002  0.004  0.046
   11  0.012  0.003  0.018  0.033
   12  0.010  0.001  0.028  0.038
   13  0.011  0.003  0.018  0.032
   14  0.045  0.001  0.012  0.058
   15  0.000  0.002  0.007  0.010
   16  0.010  0.001  0.027  0.038
   17  0.000  0.002  0.007  0.010
   18  0.000  0.000  0.011  0.011
   19  0.004  0.003  0.006  0.013
   20  0.064  0.001  0.009  0.075
   21  0.016  0.002  0.034  0.052
   22  0.003  0.001  0.020  0.024
   23  0.016  0.002  0.034  0.052
   24  0.012  0.002  0.006  0.020
   25  0.015  0.000  0.014  0.028
   26  0.004  0.003  0.006  0.013
   27  0.003  0.001  0.020  0.024
   28  0.000  0.000  0.001  0.002
   29  0.006  0.001  0.004  0.011
   30  0.002  0.001  0.003  0.006
   31  0.006  0.001  0.004  0.011
   32  0.001  0.000  0.003  0.004
   33  0.002  0.001  0.003  0.006
   34  0.001  0.000  0.003  0.004
   35  0.000  0.000  0.004  0.004
   36  0.000  0.001  0.005  0.006
   37  0.000  0.000  0.000  0.000
   38  0.000  0.000  0.000  0.000
tot    0.303  0.042  0.345  0.690
 
band    12 # energy   -6.40960419 # occ.  2.00000000
 
ion      s      p      d    tot
    1  0.015  0.000  0.015  0.030
    2  0.014  0.000  0.015  0.029
    3  0.014  0.000  0.015  0.029
    4  0.014  0.000  0.015  0.029
    5  0.016  0.000  0.015  0.031
    6  0.014  0.000  0.015  0.029
    7  0.014  0.000  0.015  0.029
    8  0.014  0.000  0.015  0.029
    9  0.010  0.000  0.016  0.027
   10  0.006  0.000  0.028  0.035
   11  0.005  0.000  0.027  0.032
   12  0.006  0.000  0.028  0.035
   13  0.005  0.000  0.027  0.032
   14  0.005  0.000  0.027  0.032
   15  0.011  0.000  0.023  0.034
   16  0.006  0.000  0.028  0.035
   17  0.011  0.000  0.023  0.034
   18  0.011  0.000  0.023  0.034
   19  0.001  0.000  0.013  0.015
   20  0.006  0.000  0.017  0.023
   21  0.006  0.000  0.017  0.023
   22  0.001  0.000  0.012  0.013
   23  0.006  0.000  0.017  0.023
   24  0.001  0.000  0.012  0.013
   25  0.001  0.000  0.013  0.015
   26  0.001  0.000  0.013  0.015
   27  0.001  0.000  0.012  0.013
   28  0.002  0.000  0.002  0.003
   29  0.001  0.000  0.003  0.004
   30  0.001  0.000  0.003  0.004
   31  0.001  0.000  0.003  0.004
   32  0.001  0.000  0.003  0.004
   33  0.001  0.000  0.003  0.004
   34  0.001  0.000  0.003  0.004
   35  0.002  0.000  0.002  0.005
   36  0.000  0.000  0.000  0.001
   37  0.000  0.001  0.000  0.001
   38  0.000  0.000  0.000  0.001
tot    0.230  0.006  0.517  0.753
 
band    13 # energy   -6.39319212 # occ.  2.00000000
 
ion      s      p      d    tot
    1  0.012  0.001  0.000  0.013
    2  0.000  0.001  0.006  0.006
    3  0.000  0.001  0.006  0.006
    4  0.000  0.001  0.006  0.006
    5  0.011  0.002  0.002  0.015
    6  0.000  0.001  0.006  0.006
    7  0.000  0.001  0.006  0.006
    8  0.000  0.001  0.006  0.006
    9  0.000  0.000  0.000  0.001
   10  0.024  0.003  0.003  0.030
   11  0.021  0.001  0.021  0.043
   12  0.023  0.003  0.003  0.029
   13  0.021  0.001  0.021  0.043
   14  0.022  0.001  0.021  0.043
   15  0.000  0.001  0.021  0.022
   16  0.023  0.003  0.003  0.029
   17  0.000  0.001  0.021  0.022
   18  0.000  0.001  0.021  0.022
   19  0.027  0.003  0.003  0.032
   20  0.003  0.002  0.023  0.028
   21  0.003  0.002  0.023  0.028
   22  0.011  0.000  0.025  0.036
   23  0.003  0.002  0.023  0.028
   24  0.011  0.000  0.025  0.036
   25  0.026  0.003  0.003  0.032
   26  0.027  0.003  0.003  0.032
   27  0.011  0.000  0.025  0.036
   28  0.012  0.001  0.000  0.013
   29  0.000  0.000  0.005  0.005
   30  0.000  0.000  0.005  0.005
   31  0.000  0.000  0.005  0.005
   32  0.000  0.000  0.005  0.005
   33  0.000  0.000  0.005  0.005
   34  0.000  0.000  0.005  0.005
   35  0.006  0.001  0.002  0.009
   36  0.000  0.000  0.000  0.000
   37  0.000  0.000  0.000  0.000
   38  0.000  0.000  0.000  0.000
tot    0.298  0.040  0.357  0.695
 
band    14 # energy   -6.36134483 # occ.  2.00000000
 
ion      s      p      d    tot
    1  0.000  0.001  0.002  0.003
    2  0.004  0.001  0.003  0.007
    3  0.007  0.001  0.005  0.013
    4  0.004  0.001  0.003  0.007
    5  0.000  0.000  0.005  0.005
    6  0.001  0.000  0.003  0.005
    7  0.007  0.001  0.005  0.013
    8  0.001  0.000  0.003  0.005
    9  0.001  0.001  0.010  0.012
   10  0.023  0.000  0.009  0.031
   11  0.001  0.002  0.023  0.026
   12  0.003  0.003  0.012  0.018
   13  0.001  0.002  0.023  0.026
   14  0.018  0.001  0.003  0.022
   15  0.007  0.002  0.030  0.038
   16  0.003  0.003  0.012  0.018
   17  0.007  0.002  0.030  0.038
   18  0.079  0.001  0.006  0.086
   19  0.007  0.000  0.027  0.034
   20  0.000  0.000  0.019  0.020
   21  0.001  0.002  0.010  0.012
   22  0.017  0.003  0.016  0.035
   23  0.001  0.002  0.010  0.012
   24  0.026  0.001  0.010  0.037
   25  0.040  0.003  0.005  0.047
   26  0.007  0.000  0.027  0.034
   27  0.017  0.003  0.016  0.036
   28  0.000  0.000  0.007  0.008
   29  0.000  0.000  0.003  0.004
   30  0.001  0.001  0.003  0.005
   31  0.000  0.000  0.003  0.004
   32  0.007  0.001  0.001  0.009
   33  0.001  0.001  0.003  0.005
   34  0.007  0.001  0.001  0.009
   35  0.000  0.001  0.005  0.006
   36  0.000  0.000  0.001  0.001
   37  0.000  0.000  0.000  0.000
   38  0.000  0.000  0.000  0.000
tot    0.298  0.041  0.354  0.693
 
band    15 # energy   -6.36129745 # occ.  2.00000000
 
ion      s      p      d    tot
    1  0.000  0.001  0.003  0.003
    2  0.005  0.001  0.003  0.009
    3  0.000  0.000  0.004  0.004
    4  0.005  0.001  0.003  0.009
    5  0.000  0.000  0.005  0.005
    6  0.007  0.001  0.004  0.013
    7  0.000  0.000  0.003  0.004
    8  0.007  0.001  0.004  0.013
    9  0.000  0.001  0.010  0.012
   10  0.000  0.005  0.003  0.008
   11  0.010  0.001  0.012  0.023
   12  0.015  0.001  0.013  0.029
   13  0.009  0.001  0.012  0.023
   14  0.000  0.001  0.028  0.029
   15  0.047  0.001  0.014  0.063
   16  0.015  0.001  0.013  0.029
   17  0.046  0.001  0.014  0.062
   18  0.000  0.001  0.039  0.040
   19  0.028  0.002  0.011  0.041
   20  0.000  0.003  0.009  0.012
   21  0.000  0.001  0.014  0.015
   22  0.030  0.001  0.012  0.044
   23  0.000  0.001  0.014  0.015
   24  0.000  0.003  0.018  0.021
   25  0.000  0.000  0.037  0.037
   26  0.028  0.002  0.011  0.041
   27  0.030  0.001  0.012  0.044
   28  0.000  0.000  0.007  0.007
   29  0.005  0.001  0.002  0.008
   30  0.003  0.001  0.003  0.006
   31  0.005  0.001  0.002  0.008
   32  0.000  0.000  0.002  0.002
   33  0.003  0.001  0.003  0.006
   34  0.000  0.000  0.002  0.002
   35  0.000  0.001  0.005  0.005
   36  0.000  0.000  0.000  0.000
   37  0.000  0.000  0.000  0.000
   38  0.000  0.000  0.000  0.000
tot    0.298  0.041  0.353  0.692
 
band    16 # energy   -6.36108970 # occ.  2.00000000
 
ion      s      p      d    tot
    1  0.005  0.000  0.001  0.006
    2  0.000  0.001  0.007  0.007
    3  0.001  0.000  0.004  0.006
    4  0.000  0.001  0.007  0.007
    5  0.005  0.000  0.000  0.006
    6  0.000  0.001  0.005  0.006
    7  0.001  0.000  0.004  0.006
    8  0.000  0.001  0.005  0.006
    9  0.010  0.002  0.003  0.014
   10  0.001  0.000  0.035  0.036
   11  0.012  0.002  0.007  0.021
   12  0.006  0.000  0.021  0.027
   13  0.012  0.002  0.006  0.021
   14  0.005  0.003  0.010  0.018
   15  0.036  0.002  0.011  0.049
   16  0.006  0.000  0.021  0.027
   17  0.037  0.002  0.011  0.050
   18  0.011  0.002  0.011  0.025
   19  0.005  0.001  0.020  0.027
   20  0.010  0.001  0.020  0.030
   21  0.010  0.001  0.024  0.034
   22  0.014  0.003  0.006  0.023
   23  0.010  0.001  0.024  0.034
   24  0.036  0.003  0.006  0.044
   25  0.000  0.000  0.018  0.019
   26  0.005  0.001  0.020  0.027
   27  0.014  0.003  0.006  0.024
   28  0.002  0.000  0.008  0.011
   29  0.005  0.000  0.006  0.011
   30  0.006  0.000  0.006  0.013
   31  0.005  0.000  0.006  0.011
   32  0.003  0.000  0.008  0.011
   33  0.007  0.000  0.006  0.013
   34  0.003  0.000  0.008  0.011
   35  0.000  0.001  0.005  0.006
   36  0.004  0.001  0.003  0.009
   37  0.001  0.004  0.000  0.005
   38  0.001  0.000  0.000  0.001
tot    0.289  0.042  0.371  0.702
 
band    17 # energy   -5.95368884 # occ.  2.00000000
 
ion      s      p      d    tot
    1  0.000  0.001  0.004  0.004
    2  0.001  0.001  0.005  0.006
    3  0.009  0.001  0.004  0.014
    4  0.001  0.001  0.005  0.006
    5  0.000  0.001  0.010  0.011
    6  0.004  0.001  0.004  0.009
    7  0.009  0.001  0.004  0.014
    8  0.004  0.001  0.004  0.009
    9  0.000  0.000  0.008  0.008
   10  0.000  0.001  0.050  0.051
   11  0.017  0.001  0.020  0.037
   12  0.008  0.001  0.018  0.027
   13  0.017  0.001  0.020  0.037
   14  0.000  0.000  0.046  0.047
   15  0.001  0.000  0.018  0.020
   16  0.007  0.001  0.018  0.027
   17  0.001  0.000  0.018  0.020
   18  0.000  0.001  0.011  0.012
   19  0.004  0.000  0.019  0.023
   20  0.000  0.000  0.086  0.086
   21  0.015  0.001  0.027  0.043
   22  0.003  0.001  0.019  0.023
   23  0.015  0.001  0.027  0.044
   24  0.000  0.001  0.031  0.032
   25  0.000  0.001  0.011  0.012
   26  0.004  0.000  0.019  0.023
   27  0.003  0.001  0.019  0.023
   28  0.000  0.000  0.009  0.009
   29  0.003  0.001  0.005  0.009
   30  0.009  0.001  0.005  0.015
   31  0.003  0.001  0.005  0.009
   32  0.001  0.001  0.004  0.006
   33  0.009  0.001  0.005  0.015
   34  0.001  0.001  0.004  0.006
   35  0.000  0.000  0.003  0.003
   36  0.000  0.001  0.004  0.006
   37  0.000  0.000  0.000  0.000
   38  0.000  0.000  0.000  0.000
tot    0.150  0.028  0.571  0.749
 
band    18 # energy   -5.95367975 # occ.  2.00000000
 
ion      s      p      d    tot
    1  0.000  0.001  0.004  0.004
    2  0.008  0.001  0.004  0.013
    3  0.001  0.000  0.004  0.005
    4  0.008  0.001  0.004  0.013
    5  0.000  0.001  0.010  0.011
    6  0.005  0.001  0.005  0.010
    7  0.001  0.000  0.004  0.005
    8  0.005  0.001  0.005  0.010
    9  0.000  0.000  0.008  0.008
   10  0.010  0.002  0.008  0.019
   11  0.006  0.000  0.037  0.043
   12  0.003  0.001  0.040  0.043
   13  0.006  0.000  0.038  0.044
   14  0.022  0.001  0.011  0.034
   15  0.000  0.001  0.013  0.015
   16  0.003  0.001  0.039  0.043
   17  0.000  0.001  0.013  0.015
   18  0.002  0.000  0.021  0.023
   19  0.001  0.001  0.014  0.016
   20  0.020  0.001  0.007  0.029
   21  0.005  0.000  0.067  0.072
   22  0.001  0.001  0.027  0.029
   23  0.005  0.000  0.066  0.072
   24  0.004  0.001  0.014  0.020
   25  0.006  0.000  0.022  0.027
   26  0.001  0.001  0.014  0.016
   27  0.001  0.001  0.027  0.029
   28  0.000  0.000  0.009  0.009
   29  0.005  0.001  0.005  0.011
   30  0.000  0.000  0.005  0.005
   31  0.005  0.001  0.005  0.011
   32  0.007  0.001  0.006  0.014
   33  0.000  0.000  0.005  0.005
   34  0.008  0.001  0.006  0.014
   35  0.000  0.000  0.003  0.003
   36  0.000  0.001  0.004  0.006
   37  0.000  0.000  0.000  0.000
   38  0.000  0.000  0.000  0.000
tot    0.150  0.028  0.571  0.749
 
band    19 # energy   -5.94668563 # occ.  2.00000000
 
ion      s      p      d    tot
    1  0.012  0.002  0.002  0.016
    2  0.000  0.001  0.007  0.008
    3  0.000  0.001  0.007  0.008
    4  0.000  0.001  0.007  0.008
    5  0.000  0.000  0.002  0.002
    6  0.000  0.001  0.007  0.008
    7  0.000  0.001  0.007  0.008
    8  0.000  0.001  0.007  0.008
    9  0.016  0.001  0.000  0.017
   10  0.011  0.001  0.015  0.027
   11  0.002  0.000  0.045  0.047
   12  0.011  0.001  0.015  0.027
   13  0.002  0.000  0.045  0.047
   14  0.002  0.000  0.045  0.047
   15  0.004  0.001  0.017  0.023
   16  0.011  0.001  0.015  0.027
   17  0.004  0.001  0.017  0.023
   18  0.004  0.001  0.017  0.023
   19  0.002  0.001  0.016  0.019
   20  0.002  0.000  0.056  0.058
   21  0.002  0.000  0.056  0.058
   22  0.011  0.001  0.014  0.026
   23  0.002  0.000  0.056  0.058
   24  0.011  0.001  0.014  0.026
   25  0.002  0.001  0.016  0.019
   26  0.002  0.001  0.016  0.019
   27  0.011  0.001  0.014  0.026
   28  0.014  0.001  0.000  0.015
   29  0.000  0.000  0.007  0.008
   30  0.000  0.000  0.007  0.008
   31  0.000  0.000  0.007  0.008
   32  0.000  0.000  0.007  0.008
   33  0.000  0.000  0.007  0.008
   34  0.000  0.000  0.007  0.008
   35  0.008  0.001  0.002  0.011
   36  0.000  0.000  0.000  0.001
   37  0.000  0.000  0.000  0.000
   38  0.000  0.000  0.000  0.000
tot    0.146  0.027  0.582  0.755
 
band    20 # energy   -5.88454599 # occ.  2.00000000
 
ion      s      p      d    tot
    1  0.000  0.001  0.013  0.014
    2  0.009  0.001  0.004  0.014
    3  0.001  0.000  0.005  0.006
    4  0.009  0.001  0.004  0.014
    5  0.000  0.000  0.005  0.005
    6  0.004  0.001  0.005  0.010
    7  0.001  0.000  0.005  0.006
    8  0.004  0.001  0.005  0.010
    9  0.000  0.001  0.006  0.008
   10  0.000  0.001  0.029  0.029
   11  0.000  0.001  0.019  0.020
   12  0.009  0.000  0.021  0.030
   13  0.000  0.001  0.019  0.020
   14  0.000  0.001  0.018  0.019
   15  0.011  0.002  0.019  0.032
   16  0.009  0.000  0.021  0.030
   17  0.011  0.002  0.019  0.032
   18  0.000  0.000  0.061  0.061
   19  0.013  0.001  0.019  0.033
   20  0.000  0.002  0.019  0.021
   21  0.000  0.001  0.024  0.025
   22  0.016  0.001  0.020  0.036
   23  0.000  0.001  0.024  0.025
   24  0.000  0.000  0.033  0.033
   25  0.000  0.000  0.063  0.064
   26  0.013  0.001  0.019  0.033
   27  0.016  0.001  0.020  0.036
   28  0.000  0.001  0.005  0.006
   29  0.007  0.001  0.004  0.012
   30  0.000  0.000  0.006  0.006
   31  0.007  0.001  0.004  0.012
   32  0.006  0.001  0.004  0.010
   33  0.000  0.000  0.006  0.006
   34  0.006  0.001  0.004  0.010
   35  0.000  0.001  0.010  0.011
   36  0.000  0.000  0.002  0.002
   37  0.000  0.000  0.000  0.000
   38  0.000  0.000  0.000  0.000
tot    0.153  0.029  0.563  0.745
 
band    21 # energy   -5.88452644 # occ.  2.00000000
 
ion      s      p      d    tot
    1  0.000  0.001  0.013  0.014
    2  0.000  0.001  0.005  0.006
    3  0.009  0.001  0.005  0.014
    4  0.000  0.001  0.005  0.006
    5  0.000  0.000  0.005  0.005
    6  0.005  0.001  0.004  0.010
    7  0.009  0.001  0.005  0.014
    8  0.005  0.001  0.004  0.010
    9  0.000  0.001  0.006  0.007
   10  0.012  0.000  0.018  0.030
   11  0.000  0.001  0.018  0.020
   12  0.003  0.001  0.026  0.030
   13  0.000  0.001  0.018  0.020
   14  0.000  0.001  0.019  0.021
   15  0.004  0.001  0.047  0.052
   16  0.003  0.001  0.026  0.030