PROCAR new format
# of k-points:   10         # of bands:  252         # of ions:   37

 k-point     1 :    0.00000000 0.00000000 0.00000000     weight = 0.01562500

band     1 # energy   -6.34836800 # occ.  2.00000000
 
ion      s      p      d    tot
    1  0.006  0.001  0.000  0.007
    2  0.006  0.001  0.000  0.007
    3  0.006  0.001  0.000  0.007
    4  0.006  0.001  0.000  0.007
    5  0.006  0.001  0.000  0.006
    6  0.006  0.001  0.000  0.007
    7  0.006  0.001  0.000  0.007
    8  0.006  0.001  0.000  0.007
    9  0.006  0.001  0.000  0.007
   10  0.023  0.000  0.000  0.024
   11  0.024  0.000  0.000  0.024
   12  0.023  0.000  0.000  0.024
   13  0.024  0.000  0.000  0.024
   14  0.024  0.000  0.000  0.024
   15  0.023  0.000  0.000  0.024
   16  0.023  0.000  0.000  0.024
   17  0.023  0.000  0.000  0.024
   18  0.023  0.000  0.000  0.024
   19  0.022  0.000  0.000  0.023
   20  0.025  0.000  0.000  0.025
   21  0.025  0.000  0.000  0.025
   22  0.023  0.000  0.000  0.023
   23  0.025  0.000  0.000  0.025
   24  0.023  0.000  0.000  0.023
   25  0.022  0.000  0.000  0.023
   26  0.022  0.000  0.000  0.023
   27  0.023  0.000  0.000  0.023
   28  0.005  0.001  0.000  0.006
   29  0.006  0.001  0.000  0.006
   30  0.006  0.001  0.000  0.006
   31  0.006  0.001  0.000  0.006
   32  0.006  0.001  0.000  0.006
   33  0.006  0.001  0.000  0.006
   34  0.006  0.001  0.000  0.006
   35  0.005  0.001  0.000  0.006
   36  0.008  0.000  0.000  0.008
   37  0.001  0.000  0.000  0.001
tot    0.525  0.013  0.006  0.544
 
band     2 # energy   -5.47969834 # occ.  2.00000000
 
ion      s      p      d    tot
    1  0.008  0.000  0.000  0.009
    2  0.008  0.000  0.000  0.009
    3  0.008  0.000  0.000  0.009
    4  0.008  0.000  0.000  0.009
    5  0.008  0.000  0.000  0.009
    6  0.008  0.000  0.000  0.009
    7  0.008  0.000  0.000  0.009
    8  0.008  0.000  0.000  0.009
    9  0.008  0.000  0.000  0.009
   10  0.011  0.001  0.015  0.027
   11  0.011  0.001  0.014  0.026
   12  0.011  0.001  0.015  0.027
   13  0.011  0.001  0.014  0.026
   14  0.011  0.001  0.014  0.026
   15  0.011  0.001  0.014  0.026
   16  0.011  0.001  0.015  0.027
   17  0.011  0.001  0.014  0.026
   18  0.011  0.001  0.014  0.026
   19  0.011  0.001  0.016  0.028
   20  0.014  0.001  0.016  0.031
   21  0.014  0.001  0.016  0.031
   22  0.011  0.001  0.015  0.027
   23  0.014  0.001  0.016  0.031
   24  0.011  0.001  0.015  0.027
   25  0.011  0.001  0.016  0.028
   26  0.011  0.001  0.016  0.028
   27  0.011  0.001  0.015  0.027
   28  0.007  0.000  0.000  0.007
   29  0.007  0.000  0.000  0.007
   30  0.007  0.000  0.000  0.007
   31  0.007  0.000  0.000  0.007
   32  0.007  0.000  0.000  0.007
   33  0.007  0.000  0.000  0.007
   34  0.007  0.000  0.000  0.007
   35  0.006  0.000  0.000  0.007
   36  0.011  0.000  0.001  0.012
   37  0.002  0.000  0.000  0.002
tot    0.349  0.025  0.275  0.649
 
band     3 # energy   -5.18510682 # occ.  2.00000000
 
ion      s      p      d    tot
    1  0.012  0.000  0.027  0.039
    2  0.014  0.000  0.023  0.037
    3  0.014  0.000  0.023  0.037
    4  0.014  0.000  0.023  0.037
    5  0.015  0.000  0.022  0.036
    6  0.014  0.000  0.023  0.037
    7  0.014  0.000  0.023  0.037
    8  0.014  0.000  0.023  0.037
    9  0.017  0.000  0.022  0.039
   10  0.001  0.000  0.019  0.021
   11  0.001  0.000  0.024  0.025
   12  0.001  0.000  0.019  0.021
   13  0.001  0.000  0.024  0.025
   14  0.001  0.000  0.024  0.025
   15  0.000  0.000  0.025  0.025
   16  0.001  0.000  0.019  0.021
   17  0.000  0.000  0.025  0.025
   18  0.000  0.000  0.025  0.025
   19  0.000  0.000  0.010  0.010
   20  0.000  0.000  0.015  0.015
   21  0.000  0.000  0.015  0.015
   22  0.001  0.000  0.012  0.013
   23  0.000  0.000  0.015  0.015
   24  0.001  0.000  0.012  0.013
   25  0.000  0.000  0.010  0.010
   26  0.000  0.000  0.010  0.010
   27  0.001  0.000  0.012  0.013
   28  0.004  0.000  0.008  0.012
   29  0.005  0.000  0.006  0.011
   30  0.005  0.000  0.006  0.011
   31  0.005  0.000  0.006  0.011
   32  0.005  0.000  0.006  0.011
   33  0.005  0.000  0.006  0.011
   34  0.005  0.000  0.006  0.011
   35  0.004  0.000  0.008  0.011
   36  0.010  0.000  0.000  0.010
   37  0.002  0.000  0.000  0.002
tot    0.186  0.005  0.577  0.769
 
band     4 # energy   -5.08921420 # occ.  2.00000000
 
ion      s      p      d    tot
    1  0.011  0.001  0.000  0.012
    2  0.002  0.000  0.007  0.009
    3  0.002  0.000  0.007  0.009
    4  0.002  0.000  0.007  0.009
    5  0.001  0.000  0.006  0.007
    6  0.002  0.000  0.007  0.009
    7  0.002  0.000  0.007  0.009
    8  0.002  0.000  0.007  0.009
    9  0.000  0.001  0.009  0.010
   10  0.004  0.000  0.052  0.056
   11  0.000  0.001  0.020  0.021
   12  0.004  0.000  0.052  0.056
   13  0.000  0.001  0.020  0.021
   14  0.000  0.001  0.020  0.021
   15  0.013  0.001  0.007  0.021
   16  0.004  0.000  0.052  0.056
   17  0.013  0.001  0.007  0.021
   18  0.013  0.001  0.007  0.021
   19  0.000  0.000  0.033  0.033
   20  0.006  0.000  0.059  0.065
   21  0.006  0.000  0.058  0.065
   22  0.014  0.001  0.003  0.019
   23  0.006  0.000  0.058  0.065
   24  0.014  0.001  0.003  0.019
   25  0.000  0.000  0.033  0.033
   26  0.000  0.000  0.033  0.033
   27  0.014  0.001  0.003  0.019
   28  0.000  0.000  0.004  0.005
   29  0.000  0.000  0.006  0.006
   30  0.000  0.000  0.006  0.006
   31  0.000  0.000  0.006  0.006
   32  0.000  0.000  0.006  0.006
   33  0.000  0.000  0.006  0.006
   34  0.000  0.000  0.006  0.006
   35  0.002  0.001  0.003  0.005
   36  0.014  0.001  0.002  0.017
   37  0.002  0.000  0.000  0.002
tot    0.151  0.016  0.628  0.795
 
band     5 # energy   -5.06142009 # occ.  2.00000000
 
ion      s      p      d    tot
    1  0.001  0.000  0.000  0.001
    2  0.000  0.000  0.005  0.006
    3  0.000  0.000  0.005  0.006
    4  0.000  0.000  0.005  0.006
    5  0.005  0.001  0.004  0.010
    6  0.000  0.000  0.005  0.005
    7  0.000  0.000  0.005  0.006
    8  0.000  0.000  0.005  0.005
    9  0.002  0.000  0.003  0.005
   10  0.008  0.001  0.005  0.014
   11  0.012  0.000  0.040  0.053
   12  0.008  0.001  0.004  0.013
   13  0.012  0.000  0.040  0.053
   14  0.012  0.000  0.040  0.052
   15  0.001  0.000  0.049  0.050
   16  0.008  0.001  0.004  0.013
   17  0.001  0.000  0.049  0.050
   18  0.001  0.000  0.049  0.050
   19  0.012  0.001  0.028  0.042
   20  0.005  0.001  0.014  0.021
   21  0.005  0.001  0.014  0.020
   22  0.001  0.000  0.057  0.059
   23  0.005  0.001  0.014  0.020
   24  0.001  0.000  0.058  0.059
   25  0.012  0.001  0.028  0.041
   26  0.012  0.001  0.028  0.042
   27  0.001  0.000  0.057  0.059
   28  0.004  0.001  0.005  0.009
   29  0.000  0.000  0.004  0.004
   30  0.000  0.000  0.004  0.004
   31  0.000  0.000  0.004  0.004
   32  0.000  0.000  0.004  0.004
   33  0.000  0.000  0.004  0.004
   34  0.000  0.000  0.004  0.004
   35  0.002  0.001  0.006  0.009
   36  0.000  0.000  0.000  0.000
   37  0.000  0.000  0.000  0.000
tot    0.132  0.017  0.652  0.800
 
band     6 # energy   -5.05633434 # occ.  2.00000000
 
ion      s      p      d    tot
    1  0.000  0.000  0.000  0.000
    2  0.000  0.000  0.004  0.004
    3  0.002  0.001  0.006  0.008
    4  0.000  0.000  0.004  0.004
    5  0.000  0.000  0.008  0.008
    6  0.001  0.000  0.003  0.004
    7  0.002  0.001  0.006  0.008
    8  0.001  0.000  0.003  0.004
    9  0.000  0.000  0.007  0.007
   10  0.000  0.000  0.028  0.029
   11  0.005  0.000  0.073  0.078
   12  0.000  0.001  0.035  0.036
   13  0.005  0.000  0.072  0.077
   14  0.022  0.001  0.003  0.026
   15  0.005  0.001  0.026  0.033
   16  0.000  0.001  0.035  0.036
   17  0.006  0.001  0.026  0.033
   18  0.022  0.000  0.030  0.053
   19  0.002  0.000  0.046  0.048
   20  0.004  0.000  0.031  0.035
   21  0.001  0.001  0.019  0.021
   22  0.006  0.001  0.037  0.044
   23  0.001  0.001  0.019  0.021
   24  0.023  0.001  0.014  0.038
   25  0.007  0.001  0.009  0.017
   26  0.002  0.000  0.045  0.048
   27  0.006  0.001  0.038  0.044
   28  0.000  0.000  0.003  0.003
   29  0.001  0.000  0.004  0.005
   30  0.000  0.000  0.002  0.002
   31  0.001  0.000  0.004  0.005
   32  0.001  0.000  0.003  0.005
   33  0.000  0.000  0.002  0.002
   34  0.001  0.000  0.003  0.005
   35  0.000  0.000  0.008  0.008
   36  0.000  0.000  0.000  0.000
   37  0.000  0.000  0.000  0.000
tot    0.129  0.017  0.655  0.801
 
band     7 # energy   -5.05632734 # occ.  2.00000000
 
ion      s      p      d    tot
    1  0.000  0.000  0.000  0.000
    2  0.002  0.001  0.005  0.007
    3  0.000  0.000  0.003  0.003
    4  0.002  0.001  0.005  0.007
    5  0.000  0.000  0.008  0.008
    6  0.001  0.000  0.005  0.007
    7  0.000  0.000  0.003  0.003
    8  0.001  0.000  0.005  0.007
    9  0.000  0.000  0.007  0.007
   10  0.000  0.001  0.038  0.039
   11  0.016  0.001  0.026  0.043
   12  0.000  0.000  0.031  0.031
   13  0.016  0.001  0.027  0.044
   14  0.000  0.000  0.095  0.095
   15  0.017  0.001  0.029  0.047
   16  0.000  0.000  0.031  0.031
   17  0.017  0.001  0.029  0.046
   18  0.000  0.001  0.024  0.026
   19  0.006  0.001  0.021  0.027
   20  0.000  0.001  0.015  0.016
   21  0.003  0.000  0.027  0.030
   22  0.017  0.001  0.022  0.040
   23  0.003  0.000  0.027  0.030
   24  0.000  0.001  0.045  0.046
   25  0.000  0.000  0.058  0.058
   26  0.005  0.001  0.022  0.027
   27  0.017  0.001  0.022  0.040
   28  0.000  0.000  0.003  0.003
   29  0.000  0.000  0.002  0.003
   30  0.002  0.000  0.004  0.006
   31  0.000  0.000  0.002  0.003
   32  0.000  0.000  0.003  0.003
   33  0.002  0.000  0.004  0.006
   34  0.000  0.000  0.003  0.003
   35  0.000  0.000  0.008  0.008
   36  0.000  0.000  0.000  0.000
   37  0.000  0.000  0.000  0.000
tot    0.129  0.017  0.655  0.801
 
band     8 # energy   -5.05075870 # occ.  2.00000000
 
ion      s      p      d    tot
    1  0.000  0.000  0.009  0.009
    2  0.001  0.001  0.005  0.006
    3  0.000  0.000  0.002  0.003
    4  0.001  0.001  0.005  0.007
    5  0.000  0.000  0.002  0.002
    6  0.001  0.000  0.005  0.006
    7  0.000  0.000  0.002  0.003
    8  0.001  0.000  0.005  0.006
    9  0.000  0.000  0.003  0.004
   10  0.027  0.001  0.016  0.044
   11  0.001  0.001  0.018  0.020
   12  0.008  0.001  0.045  0.054
   13  0.002  0.001  0.020  0.023
   14  0.006  0.000  0.039  0.046
   15  0.002  0.000  0.073  0.075
   16  0.006  0.001  0.049  0.055
   17  0.002  0.000  0.066  0.069
   18  0.008  0.001  0.011  0.019
   19  0.003  0.001  0.019  0.022
   20  0.018  0.001  0.007  0.026
   21  0.005  0.000  0.047  0.053
   22  0.000  0.000  0.040  0.041
   23  0.004  0.000  0.052  0.056
   24  0.001  0.000  0.023  0.024
   25  0.012  0.001  0.028  0.040
   26  0.004  0.001  0.020  0.024
   27  0.000  0.000  0.042  0.043
   28  0.000  0.000  0.004  0.004
   29  0.000  0.000  0.003  0.003
   30  0.001  0.000  0.004  0.005
   31  0.000  0.000  0.002  0.003
   32  0.000  0.000  0.002  0.002
   33  0.001  0.000  0.004  0.005
   34  0.000  0.000  0.002  0.002
   35  0.000  0.000  0.001  0.001
   36  0.000  0.000  0.001  0.001
   37  0.000  0.000  0.000  0.000
tot    0.116  0.016  0.676  0.808
 
band     9 # energy   -5.05075567 # occ.  2.00000000
 
ion      s      p      d    tot
    1  0.000  0.000  0.009  0.009
    2  0.000  0.000  0.003  0.004
    3  0.001  0.001  0.006  0.008
    4  0.000  0.000  0.003  0.003
    5  0.000  0.000  0.002  0.002
    6  0.000  0.000  0.003  0.004
    7  0.002  0.001  0.006  0.008
    8  0.001  0.000  0.003  0.004
    9  0.000  0.000  0.003  0.004
   10  0.000  0.001  0.058  0.058
   11  0.005  0.001  0.034  0.039
   12  0.019  0.001  0.028  0.048
   13  0.005  0.001  0.031  0.036
   14  0.000  0.002  0.012  0.014
   15  0.006  0.000  0.027  0.034
   16  0.021  0.001  0.025  0.047
   17  0.005  0.000  0.034  0.040
   18  0.000  0.000  0.089  0.089
   19  0.010  0.001  0.025  0.036
   20  0.000  0.000  0.064  0.064
   21  0.013  0.001  0.024  0.037
   22  0.000  0.000  0.030  0.031
   23  0.014  0.001  0.019  0.034
   24  0.000  0.001  0.047  0.047
   25  0.000  0.001  0.016  0.018
   26  0.009  0.001  0.024  0.034
   27  0.000  0.000  0.028  0.029
   28  0.000  0.000  0.004  0.004
   29  0.001  0.000  0.003  0.004
   30  0.000  0.000  0.001  0.001
   31  0.001  0.000  0.003  0.004
   32  0.001  0.000  0.004  0.005
   33  0.000  0.000  0.001  0.002
   34  0.001  0.000  0.004  0.005
   35  0.000  0.000  0.001  0.001
   36  0.000  0.000  0.001  0.001
   37  0.000  0.000  0.000  0.000
tot    0.116  0.016  0.676  0.808
 
band    10 # energy   -5.03341638 # occ.  2.00000000
 
ion      s      p      d    tot
    1  0.002  0.001  0.003  0.006
    2  0.000  0.000  0.009  0.009
    3  0.000  0.000  0.009  0.009
    4  0.000  0.000  0.009  0.009
    5  0.000  0.000  0.006  0.006
    6  0.000  0.000  0.009  0.009
    7  0.000  0.000  0.009  0.009
    8  0.000  0.000  0.009  0.009
    9  0.004  0.000  0.002  0.007
   10  0.004  0.000  0.010  0.014
   11  0.001  0.000  0.053  0.054
   12  0.004  0.000  0.010  0.014
   13  0.001  0.000  0.053  0.054
   14  0.001  0.000  0.053  0.054
   15  0.000  0.000  0.042  0.043
   16  0.004  0.000  0.010  0.014
   17  0.000  0.000  0.042  0.043
   18  0.000  0.000  0.042  0.043
   19  0.004  0.000  0.010  0.015
   20  0.001  0.000  0.040  0.041
   21  0.001  0.000  0.040  0.041
   22  0.001  0.000  0.064  0.065
   23  0.001  0.000  0.040  0.041
   24  0.001  0.000  0.064  0.065
   25  0.004  0.000  0.011  0.015
   26  0.004  0.000  0.010  0.015
   27  0.001  0.000  0.064  0.065
   28  0.003  0.001  0.002  0.006
   29  0.000  0.000  0.008  0.009
   30  0.000  0.000  0.008  0.009
   31  0.000  0.000  0.008  0.009
   32  0.000  0.000  0.008  0.009
   33  0.000  0.000  0.008  0.009
   34  0.000  0.000  0.008  0.009
   35  0.001  0.000  0.011  0.012
   36  0.004  0.000  0.000  0.004
   37  0.000  0.000  0.000  0.000
tot    0.051  0.007  0.786  0.844
 
band    11 # energy   -5.02638171 # occ.  2.00000000
 
ion      s      p      d    tot
    1  0.004  0.000  0.019  0.023
    2  0.001  0.000  0.010  0.011
    3  0.001  0.000  0.010  0.011
    4  0.001  0.000  0.010  0.011
    5  0.001  0.000  0.001  0.003
    6  0.001  0.000  0.010  0.011
    7  0.001  0.000  0.010  0.011
    8  0.001  0.000  0.010  0.011
    9  0.003  0.000  0.001  0.005
   10  0.001  0.000  0.077  0.078
   11  0.005  0.000  0.013  0.019
   12  0.001  0.000  0.077  0.078
   13  0.005  0.000  0.013  0.019
   14  0.005  0.000  0.013  0.019
   15  0.004  0.000  0.029  0.033
   16  0.001  0.000  0.077  0.078
   17  0.004  0.000  0.029  0.033
   18  0.004  0.000  0.029  0.033
   19  0.000  0.000  0.046  0.046
   20  0.000  0.001  0.018  0.019
   21  0.000  0.001  0.018  0.019
   22  0.002  0.000  0.021  0.022
   23  0.000  0.001  0.018  0.019
   24  0.002  0.000  0.021  0.022
   25  0.000  0.000  0.046  0.046
   26  0.000  0.000  0.046  0.046
   27  0.002  0.000  0.021  0.022
   28  0.005  0.000  0.013  0.019
   29  0.002  0.000  0.008  0.010
   30  0.002  0.000  0.008  0.010
   31  0.002  0.000  0.008  0.010
   32  0.002  0.000  0.008  0.010
   33  0.002  0.000  0.008  0.010
   34  0.002  0.000  0.008  0.010
   35  0.000  0.000  0.005  0.006
   36  0.003  0.000  0.001  0.004
   37  0.001  0.000  0.000  0.001
tot    0.069  0.007  0.761  0.837
 
band    12 # energy   -5.01344504 # occ.  2.00000000
 
ion      s      p      d    tot
    1  0.000  0.000  0.020  0.020
    2  0.003  0.000  0.006  0.009
    3  0.001  0.000  0.009  0.010
    4  0.003  0.000  0.006  0.009
    5  0.000  0.000  0.007  0.007
    6  0.001  0.000  0.007  0.008
    7  0.001  0.000  0.009  0.010
    8  0.001  0.000  0.007  0.008
    9  0.000  0.000  0.007  0.008
   10  0.000  0.000  0.037  0.037
   11  0.001  0.000  0.029  0.030
   12  0.001  0.000  0.035  0.037
   13  0.001  0.000  0.029  0.030
   14  0.000  0.000  0.018  0.018
   15  0.004  0.000  0.021  0.025
   16  0.001  0.000  0.035  0.037
   17  0.004  0.000  0.021  0.025
   18  0.000  0.000  0.062  0.062
   19  0.008  0.000  0.036  0.043
   20  0.000  0.000  0.091  0.091
   21  0.007  0.000  0.028  0.035
   22  0.000  0.000  0.034  0.034
   23  0.007  0.000  0.028  0.035
   24  0.000  0.000  0.013  0.014
   25  0.000  0.000  0.060  0.060
   26  0.008  0.000  0.036  0.043
   27  0.000  0.000  0.034  0.034
   28  0.000  0.000  0.012  0.012
   29  0.000  0.000  0.008  0.008
   30  0.002  0.000  0.004  0.006
   31  0.000  0.000  0.008  0.008
   32  0.002  0.001  0.005  0.008
   33  0.002  0.000  0.004  0.006
   34  0.002  0.001  0.005  0.008
   35  0.000  0.000  0.005  0.005
   36  0.000  0.000  0.000  0.001
   37  0.000  0.000  0.000  0.000
tot    0.058  0.008  0.778  0.844
 
band    13 # energy   -5.01341877 # occ.  2.00000000
 
ion      s      p      d    tot
    1  0.000  0.000  0.020  0.020
    2  0.000  0.000  0.009  0.009
    3  0.002  0.000  0.006  0.009
    4  0.000  0.000  0.009  0.009
    5  0.000  0.000  0.007  0.007
    6  0.002  0.000  0.007  0.010
    7  0.002  0.000  0.006  0.009
    8  0.002  0.000  0.007  0.010
    9  0.000  0.000  0.007  0.008
   10  0.002  0.000  0.034  0.036
   11  0.000  0.000  0.021  0.022
   12  0.000  0.000  0.036  0.037
   13  0.000  0.000  0.021  0.022
   14  0.001  0.000  0.033  0.034
   15  0.001  0.000  0.048  0.050
   16  0.000  0.000  0.036  0.037
   17  0.001  0.000  0.048  0.050
   18  0.006  0.000  0.007  0.013
   19  0.003  0.000  0.052  0.055
   20  0.009  0.000  0.007  0.016
   21  0.002  0.000  0.070  0.072
   22  0.000  0.000  0.020  0.020
   23  0.002  0.000  0.070  0.072
   24  0.000  0.000  0.041  0.041
   25  0.010  0.000  0.028  0.038
   26  0.003  0.000  0.052  0.055
   27  0.000  0.000  0.020  0.020
   28  0.000  0.000  0.012  0.012
   29  0.002  0.000  0.004  0.007
   30  0.001  0.001  0.007  0.008
   31  0.002  0.000  0.004  0.007
   32  0.000  0.000  0.007  0.007
   33  0.001  0.001  0.007  0.008
   34  0.000  0.000  0.007  0.007
   35  0.000  0.000  0.005  0.006
   36  0.000  0.000  0.000  0.001
   37  0.000  0.000  0.000  0.000
tot    0.058  0.008  0.778  0.844
 
band    14 # energy   -5.00168088 # occ.  2.00000000
 
ion      s      p      d    tot
    1  0.000  0.000  0.005  0.005
    2  0.004  0.001  0.006  0.010
    3  0.001  0.000  0.010  0.011
    4  0.004  0.001  0.006  0.010
    5  0.000  0.000  0.016  0.016
    6  0.001  0.000  0.009  0.010
    7  0.001  0.000  0.010  0.011
    8  0.001  0.000  0.009  0.010
    9  0.000  0.000  0.016  0.017
   10  0.007  0.000  0.012  0.019
   11  0.002  0.000  0.053  0.055
   12  0.002  0.000  0.049  0.051
   13  0.002  0.000  0.053  0.055
   14  0.008  0.000  0.021  0.029
   15  0.000  0.000  0.023  0.023
   16  0.002  0.000  0.049  0.051
   17  0.000  0.000  0.024  0.024
   18  0.000  0.000  0.049  0.049
   19  0.001  0.000  0.040  0.041
   20  0.002  0.000  0.041  0.043
   21  0.000  0.000  0.023  0.023
   22  0.003  0.000  0.062  0.065
   23  0.000  0.000  0.023  0.023
   24  0.010  0.000  0.010  0.021
   25  0.003  0.000  0.018  0.021
   26  0.001  0.000  0.040  0.041
   27  0.003  0.000  0.063  0.066
   28  0.000  0.000  0.003  0.003
   29  0.000  0.000  0.006  0.006
   30  0.001  0.000  0.002  0.003
   31  0.000  0.000  0.006  0.006
   32  0.001  0.001  0.005  0.006
   33  0.001  0.000  0.002  0.003
   34  0.001  0.001  0.005  0.006
   35  0.000  0.000  0.006  0.007
   36  0.000  0.000  0.001  0.001
   37  0.000  0.000  0.000  0.000
tot    0.061  0.008  0.775  0.844
 
band    15 # energy   -5.00166270 # occ.  2.00000000
 
ion      s      p      d    tot
    1  0.000  0.000  0.005  0.005
    2  0.000  0.000  0.011  0.011
    3  0.003  0.001  0.007  0.010
    4  0.000  0.000  0.011  0.011
    5  0.000  0.000  0.016  0.016
    6  0.003  0.000  0.008  0.011
    7  0.003  0.001  0.007  0.010
    8  0.003  0.000  0.008  0.011
    9  0.000  0.000  0.017  0.017
   10  0.000  0.000  0.061  0.061
   11  0.006  0.000  0.031  0.037
   12  0.005  0.000  0.024  0.030
   13  0.006  0.000  0.032  0.037
   14  0.000  0.000  0.064  0.064
   15  0.000  0.000  0.041  0.041
   16  0.005  0.000  0.024  0.030
   17  0.000  0.000  0.040  0.040
   18  0.000  0.000  0.015  0.015
   19  0.002  0.000  0.025  0.028
   20  0.000  0.000  0.016  0.017
   21  0.001  0.000  0.035  0.036
   22  0.008  0.000  0.028  0.036
   23  0.001  0.000  0.035  0.037
   24  0.000  0.000  0.080  0.080
   25  0.000  0.000  0.048  0.048
   26  0.002  0.000  0.025  0.028
   27  0.008  0.000  0.027  0.035
   28  0.000  0.000  0.003  0.003
   29  0.001  0.000  0.002  0.004
   30  0.001  0.000  0.007  0.008
   31  0.001  0.000  0.002  0.004
   32  0.000  0.000  0.004  0.004
   33  0.001  0.000  0.007  0.008
   34  0.000  0.000  0.004  0.004
   35  0.000  0.000  0.006  0.007
   36  0.000  0.000  0.001  0.001
   37  0.000  0.000  0.000  0.000
tot    0.061  0.008  0.775  0.844
 
band    16 # energy   -4.96972188 # occ.  2.00000000
 
ion      s      p      d    tot
    1  0.000  0.000  0.003  0.003
    2  0.002  0.000  0.010  0.012
    3  0.002  0.000  0.010  0.012
    4  0.002  0.000  0.010  0.012
    5  0.007  0.000  0.005  0.011
    6  0.002  0.000  0.010  0.012
    7  0.002  0.000  0.010  0.012
    8  0.002  0.000  0.010  0.012
    9  0.001  0.000  0.018  0.019
   10  0.002  0.000  0.005  0.007
   11  0.001  0.000  0.013  0.014
   12  0.002  0.000  0.005  0.007
   13  0.001  0.000  0.013  0.014
   14  0.001  0.000  0.013  0.014
   15  0.001  0.000  0.019  0.020
   16  0.002  0.000  0.005  0.007
   17  0.001  0.000  0.019  0.020
   18  0.001  0.000  0.019  0.020
   19  0.002  0.000  0.020  0.022
   20  0.004  0.001  0.034  0.039
   21  0.005  0.001  0.034  0.039
   22  0.001  0.001  0.021  0.023
   23  0.005  0.001  0.034  0.039
   24  0.001  0.001  0.021  0.023
   25  0.002  0.000  0.020  0.022
   26  0.002  0.000  0.020  0.022
   27  0.001  0.001  0.021  0.023
   28  0.006  0.000  0.015  0.022
   29  0.011  0.000  0.026  0.037
   30  0.011  0.000  0.026  0.037
   31  0.011  0.000  0.026  0.037
   32  0.011  0.000  0.026  0.037
   33  0.011  0.000  0.026  0.037
   34  0.011  0.000  0.026  0.037
   35  0.023  0.000  0.021  0.044
   36  0.009  0.001  0.001  0.010
   37  0.002  0.000  0.000  0.002
tot    0.156  0.010  0.616  0.783
 
band    17 # energy   -4.85294677 # occ.  2.00000000
 
ion      s      p      d    tot
    1  0.002  0.001  0.004  0.007
    2  0.000  0.000  0.010  0.011
    3  0.000  0.000  0.010  0.010
    4  0.000  0.000  0.010  0.011
    5  0.003  0.000  0.005  0.008
    6  0.000  0.000  0.010  0.011
    7  0.000  0.000  0.010  0.010
    8  0.000  0.000  0.010  0.011
    9  0.000  0.000  0.009  0.009
   10  0.000  0.000  0.032  0.032
   11  0.000  0.000  0.029  0.029
   12  0.000  0.000  0.031  0.032
   13  0.000  0.000  0.029  0.029
   14  0.000  0.000  0.029  0.029
   15  0.002  0.001  0.054  0.056
   16  0.000  0.000  0.031  0.032
   17  0.002  0.001  0.054  0.056
   18  0.002  0.001  0.053  0.056
   19  0.001  0.000  0.028  0.029
   20  0.000  0.000  0.030  0.030
   21  0.000  0.000  0.030  0.030
   22  0.001  0.001  0.048  0.050
   23  0.000  0.000  0.030  0.030
   24  0.001  0.001  0.048  0.050
   25  0.001  0.000  0.027  0.028
   26  0.001  0.000  0.028  0.029
   27  0.001  0.001  0.048  0.050
   28  0.006  0.000  0.007  0.014
   29  0.001  0.000  0.010  0.011
   30  0.001  0.000  0.010  0.011
   31  0.001  0.000  0.010  0.011
   32  0.001  0.000  0.010  0.011
   33  0.001  0.000  0.010  0.011
   34  0.001  0.000  0.010  0.011
   35  0.003  0.000  0.002  0.005
   36  0.002  0.001  0.001  0.004
   37  0.000  0.000  0.000  0.000
tot    0.036  0.015  0.807  0.858
 
band    18 # energy   -4.84553806 # occ.  2.00000000
 
ion      s      p      d    tot
    1  0.000  0.000  0.006  0.006
    2  0.000  0.000  0.010  0.010
    3  0.000  0.000  0.009  0.010
    4  0.000  0.000  0.010  0.010
    5  0.001  0.001  0.013  0.015
    6  0.000  0.000  0.010  0.010
    7  0.000  0.000  0.009  0.010
    8  0.000  0.000  0.010  0.010
    9  0.003  0.001  0.000  0.004
   10  0.002  0.000  0.044  0.046
   11  0.000  0.001  0.056  0.057
   12  0.002  0.000  0.044  0.046
   13  0.000  0.001  0.056  0.057
   14  0.000  0.001  0.055  0.056
   15  0.000  0.000  0.018  0.018
   16  0.002  0.000  0.044  0.046
   17  0.000  0.000  0.018  0.018
   18  0.000  0.000  0.018  0.018
   19  0.001  0.001  0.053  0.055
   20  0.001  0.000  0.047  0.048
   21  0.001  0.000  0.046  0.047
   22  0.000  0.000  0.014  0.015
   23  0.001  0.000  0.046  0.047
   24  0.000  0.000  0.014  0.014
   25  0.001  0.001  0.052  0.054
   26  0.001  0.001  0.053  0.055
   27  0.000  0.000  0.014  0.015
   28  0.004  0.001  0.003  0.007
   29  0.000  0.000  0.008  0.009
   30  0.000  0.000  0.008  0.009
   31  0.000  0.000  0.008  0.009
   32  0.000  0.000  0.008  0.009
   33  0.000  0.000  0.008  0.009
   34  0.000  0.000  0.008  0.009
   35  0.001  0.001  0.003  0.004
   36  0.000  0.000  0.002  0.002
   37  0.000  0.000  0.000  0.000
tot    0.026  0.014  0.824  0.864
 
band    19 # energy   -4.84080781 # occ.  2.00000000
 
ion      s      p      d    tot
    1  0.000  0.001  0.019  0.019
    2  0.000  0.000  0.008  0.008
    3  0.002  0.001  0.005  0.007
    4  0.000  0.000  0.008  0.008
    5  0.000  0.000  0.004  0.004
    6  0.001  0.001  0.011  0.012
    7  0.002  0.001  0.005  0.007
    8  0.001  0.001  0.011  0.012
    9  0.000  0.000  0.006  0.007
   10  0.002  0.000  0.050  0.052
   11  0.000  0.000  0.009  0.009
   12  0.001  0.000  0.058  0.058
   13  0.000  0.000  0.010  0.011
   14  0.001  0.001  0.037  0.039
   15  0.000  0.000  0.066  0.066
   16  0.001  0.000  0.058  0.059
   17  0.000  0.000  0.064  0.064
   18  0.000  0.001  0.023  0.024
   19  0.000  0.000  0.062  0.062
   20  0.001  0.001  0.024  0.026
   21  0.000  0.000  0.012  0.013
   22  0.001  0.000  0.041  0.042
   23  0.000  0.000  0.011  0.012
   24  0.004  0.000  0.047  0.051
   25  0.001  0.000  0.024  0.025
   26  0.000  0.000  0.060  0.061
   27  0.001  0.000  0.041  0.042
   28  0.000  0.000  0.007  0.008
   29  0.001  0.001  0.007  0.008
   30  0.001  0.000  0.003  0.005
   31  0.001  0.001  0.007  0.008
   32  0.000  0.000  0.007  0.007
   33  0.001  0.000  0.003  0.005
   34  0.000  0.000  0.007  0.007
   35  0.000  0.001  0.016  0.017
   36  0.000  0.000  0.000  0.000
   37  0.000  0.000  0.000  0.000
tot    0.021  0.014  0.831  0.866
 
band    20 # energy   -4.84078400 # occ.  2.00000000
 
ion      s      p      d    tot
    1  0.000  0.001  0.019  0.019
    2  0.001  0.001  0.008  0.010
    3  0.000  0.000  0.011  0.011
    4  0.001  0.001  0.008  0.010
    5  0.000  0.000  0.004  0.004
    6  0.001  0.000  0.005  0.006
    7  0.000  0.000  0.011  0.011
    8  0.001  0.000  0.005  0.006
    9  0.000  0.000  0.006  0.007
   10  0.000  0.000  0.062  0.062
   11  0.001  0.001  0.029  0.030
   12  0.002  0.000  0.053  0.055
   13  0.001  0.001  0.027  0.029
   14  0.000  0.000  0.000  0.000
   15  0.000  0.000  0.036  0.036
   16  0.002  0.000  0.052  0.054
   17  0.000  0.000  0.038  0.038
   18  0.000  0.000  0.078  0.078
   19  0.001  0.000  0.036  0.037
   20  0.000  0.000  0.008  0.008
   21  0.000  0.001  0.020  0.021
   22  0.003  0.000  0.044  0.047
   23  0.000  0.001  0.020  0.022
   24  0.000  0.000  0.038  0.038
   25  0.000  0.000  0.074  0.074
   26  0.001  0.000  0.038  0.039
   27  0.003  0.000  0.045  0.048
   28  0.000  0.000  0.008  0.008
   29  0.000  0.000  0.005  0.005
   30  0.000  0.000  0.008  0.009
   31  0.000  0.000  0.004  0.005
   32  0.001  0.001  0.004  0.006
   33  0.000  0.000  0.008  0.009
   34  0.001  0.001  0.004  0.006
   35  0.000  0.001  0.016  0.017
   36  0.000  0.000  0.000  0.000
   37  0.000  0.000  0.000  0.000
tot    0.021  0.014  0.831  0.866
 
band    21 # energy   -4.83734799 # occ.  2.00000000
 
ion      s      p      d    tot
    1  0.000  0.000  0.001  0.001
    2  0.000  0.000  0.008  0.008
    3  0.002  0.001  0.005  0.007
    4  0.000  0.000  0.008  0.009
    5  0.000  0.001  0.013  0.014
    6  0.001  0.001  0.010  0.012
    7  0.002  0.001  0.005  0.007
    8  0.001  0.001  0.010  0.012
    9  0.000  0.001  0.015  0.016
   10  0.000  0.000  0.032  0.032
   11  0.001  0.000  0.049  0.050
   12  0.000  0.001  0.025  0.027
   13  0.001  0.000  0.050  0.051
   14  0.000  0.000  0.096  0.096
   15  0.002  0.001  0.043  0.046
   16  0.000  0.001  0.025  0.026
   17  0.002  0.001  0.043  0.045
   18  0.000  0.000  0.020  0.020
   19  0.002  0.001  0.030  0.033
   20  0.000  0.000  0.070  0.070
   21  0.002  0.000  0.044  0.046
   22  0.000  0.001  0.026  0.026
   23  0.002  0.000  0.043  0.046
   24  0.000  0.000  0.045  0.045
   25  0.000  0.000  0.004  0.004
   26  0.002  0.001  0.030  0.033
   27  0.000  0.001  0.025  0.026
   28  0.000  0.000  0.009  0.010
   29  0.001  0.001  0.006  0.008
   30  0.002  0.001  0.003  0.006
   31  0.001  0.001  0.006  0.008
   32  0.000  0.000  0.006  0.007
   33  0.002  0.001  0.003  0.006
   34  0.000  0.000  0.006  0.007
   35  0.000  0.000  0.002  0.002
   36  0.000  0.001  0.001  0.002