PROCAR new format
# of k-points:   10         # of bands:  252         # of ions:   37

 k-point     1 :    0.00000000 0.00000000 0.00000000     weight = 0.01562500

band     1 # energy  -18.48591490 # occ.  2.00000000
 
ion      s      p      d    tot
    1  0.000  0.000  0.000  0.000
    2  0.000  0.000  0.000  0.000
    3  0.000  0.000  0.000  0.000
    4  0.000  0.000  0.000  0.000
    5  0.000  0.000  0.000  0.000
    6  0.000  0.000  0.000  0.000
    7  0.000  0.000  0.000  0.000
    8  0.000  0.000  0.000  0.000
    9  0.000  0.000  0.000  0.000
   10  0.000  0.000  0.000  0.000
   11  0.000  0.000  0.000  0.000
   12  0.000  0.000  0.000  0.000
   13  0.000  0.000  0.000  0.000
   14  0.000  0.000  0.000  0.000
   15  0.000  0.000  0.000  0.000
   16  0.000  0.000  0.000  0.000
   17  0.000  0.000  0.000  0.000
   18  0.000  0.000  0.000  0.000
   19  0.000  0.000  0.000  0.000
   20  0.000  0.000  0.000  0.000
   21  0.000  0.000  0.000  0.000
   22  0.000  0.000  0.000  0.000
   23  0.000  0.000  0.000  0.000
   24  0.000  0.000  0.000  0.000
   25  0.000  0.000  0.000  0.000
   26  0.000  0.000  0.000  0.000
   27  0.000  0.000  0.000  0.000
   28  0.000  0.000  0.000  0.000
   29  0.000  0.000  0.000  0.000
   30  0.000  0.000  0.000  0.000
   31  0.000  0.000  0.000  0.000
   32  0.000  0.000  0.000  0.000
   33  0.000  0.000  0.000  0.000
   34  0.000  0.000  0.000  0.000
   35  0.000  0.000  0.000  0.000
   36  0.033  0.042  0.057  0.132
   37  0.777  0.012  0.000  0.789
tot    0.811  0.054  0.057  0.921
 
band     2 # energy   -8.77324792 # occ.  2.00000000
 
ion      s      p      d    tot
    1  0.007  0.001  0.000  0.008
    2  0.007  0.001  0.000  0.008
    3  0.007  0.001  0.000  0.008
    4  0.007  0.001  0.000  0.008
    5  0.007  0.001  0.000  0.008
    6  0.007  0.001  0.000  0.008
    7  0.007  0.001  0.000  0.008
    8  0.007  0.001  0.000  0.008
    9  0.007  0.001  0.000  0.008
   10  0.025  0.000  0.000  0.026
   11  0.025  0.000  0.000  0.026
   12  0.025  0.000  0.000  0.026
   13  0.025  0.000  0.000  0.026
   14  0.025  0.000  0.000  0.026
   15  0.025  0.000  0.000  0.025
   16  0.025  0.000  0.000  0.026
   17  0.025  0.000  0.000  0.025
   18  0.025  0.000  0.000  0.025
   19  0.024  0.000  0.000  0.024
   20  0.025  0.000  0.000  0.025
   21  0.025  0.000  0.000  0.025
   22  0.024  0.000  0.000  0.024
   23  0.025  0.000  0.000  0.025
   24  0.024  0.000  0.000  0.024
   25  0.024  0.000  0.000  0.024
   26  0.024  0.000  0.000  0.024
   27  0.024  0.000  0.000  0.024
   28  0.006  0.001  0.000  0.007
   29  0.006  0.001  0.000  0.007
   30  0.006  0.001  0.000  0.007
   31  0.006  0.001  0.000  0.007
   32  0.006  0.001  0.000  0.007
   33  0.006  0.001  0.000  0.007
   34  0.006  0.001  0.000  0.007
   35  0.006  0.001  0.000  0.007
   36  0.005  0.001  0.000  0.006
   37  0.000  0.000  0.000  0.001
tot    0.563  0.017  0.001  0.581
 
band     3 # energy   -7.44140615 # occ.  2.00000000
 
ion      s      p      d    tot
    1  0.019  0.001  0.001  0.020
    2  0.018  0.001  0.001  0.020
    3  0.018  0.001  0.001  0.020
    4  0.018  0.001  0.001  0.020
    5  0.018  0.001  0.001  0.020
    6  0.018  0.001  0.001  0.020
    7  0.018  0.001  0.001  0.020
    8  0.018  0.001  0.001  0.020
    9  0.018  0.001  0.001  0.020
   10  0.009  0.002  0.001  0.012
   11  0.009  0.002  0.001  0.012
   12  0.009  0.002  0.001  0.012
   13  0.009  0.002  0.001  0.012
   14  0.009  0.002  0.001  0.012
   15  0.009  0.002  0.001  0.012
   16  0.009  0.002  0.001  0.012
   17  0.009  0.002  0.001  0.012
   18  0.009  0.002  0.001  0.012
   19  0.012  0.002  0.001  0.014
   20  0.011  0.002  0.001  0.014
   21  0.011  0.002  0.001  0.014
   22  0.012  0.002  0.001  0.014
   23  0.011  0.002  0.001  0.014
   24  0.012  0.002  0.001  0.014
   25  0.012  0.002  0.001  0.014
   26  0.012  0.002  0.001  0.014
   27  0.012  0.002  0.001  0.014
   28  0.018  0.001  0.000  0.019
   29  0.017  0.001  0.000  0.018
   30  0.017  0.001  0.000  0.018
   31  0.017  0.001  0.000  0.018
   32  0.017  0.001  0.000  0.018
   33  0.017  0.001  0.000  0.018
   34  0.017  0.001  0.000  0.018
   35  0.018  0.001  0.000  0.019
   36  0.012  0.001  0.001  0.014
   37  0.001  0.001  0.000  0.002
tot    0.504  0.056  0.020  0.580
 
band     4 # energy   -5.84929258 # occ.  2.00000000
 
ion      s      p      d    tot
    1  0.010  0.000  0.003  0.013
    2  0.007  0.001  0.004  0.012
    3  0.007  0.001  0.004  0.012
    4  0.007  0.001  0.004  0.012
    5  0.000  0.002  0.005  0.006
    6  0.007  0.001  0.004  0.012
    7  0.007  0.001  0.004  0.012
    8  0.007  0.001  0.004  0.012
    9  0.024  0.001  0.001  0.026
   10  0.001  0.003  0.005  0.009
   11  0.022  0.007  0.001  0.030
   12  0.001  0.003  0.005  0.009
   13  0.022  0.007  0.001  0.030
   14  0.022  0.007  0.001  0.030
   15  0.003  0.001  0.007  0.012
   16  0.001  0.003  0.005  0.009
   17  0.003  0.001  0.007  0.012
   18  0.003  0.001  0.007  0.012
   19  0.000  0.001  0.008  0.010
   20  0.031  0.007  0.004  0.041
   21  0.031  0.007  0.003  0.041
   22  0.001  0.005  0.004  0.010
   23  0.031  0.007  0.003  0.041
   24  0.001  0.005  0.004  0.010
   25  0.000  0.001  0.008  0.010
   26  0.000  0.001  0.008  0.010
   27  0.001  0.005  0.004  0.010
   28  0.017  0.000  0.002  0.019
   29  0.009  0.001  0.005  0.015
   30  0.009  0.001  0.005  0.015
   31  0.009  0.001  0.005  0.015
   32  0.009  0.001  0.005  0.015
   33  0.009  0.001  0.005  0.015
   34  0.009  0.001  0.005  0.015
   35  0.025  0.001  0.002  0.028
   36  0.002  0.001  0.030  0.033
   37  0.000  0.015  0.000  0.015
tot    0.356  0.101  0.185  0.642
 
band     5 # energy   -5.79449166 # occ.  2.00000000
 
ion      s      p      d    tot
    1  0.000  0.002  0.005  0.007
    2  0.009  0.002  0.002  0.014
    3  0.000  0.001  0.002  0.003
    4  0.008  0.002  0.002  0.013
    5  0.000  0.003  0.004  0.007
    6  0.005  0.002  0.002  0.009
    7  0.001  0.001  0.002  0.004
    8  0.006  0.002  0.002  0.010
    9  0.000  0.000  0.002  0.002
   10  0.050  0.005  0.003  0.058
   11  0.013  0.008  0.006  0.027
   12  0.010  0.001  0.014  0.025
   13  0.008  0.009  0.006  0.024
   14  0.042  0.001  0.007  0.050
   15  0.000  0.006  0.005  0.012
   16  0.016  0.002  0.012  0.030
   17  0.000  0.007  0.005  0.013
   18  0.000  0.002  0.004  0.006
   19  0.004  0.009  0.003  0.016
   20  0.066  0.003  0.006  0.075
   21  0.013  0.005  0.013  0.030
   22  0.004  0.003  0.011  0.017
   23  0.020  0.004  0.012  0.036
   24  0.019  0.004  0.002  0.025
   25  0.013  0.000  0.006  0.019
   26  0.002  0.011  0.003  0.016
   27  0.006  0.003  0.010  0.018
   28  0.000  0.002  0.003  0.004
   29  0.010  0.003  0.003  0.016
   30  0.001  0.001  0.002  0.004
   31  0.010  0.003  0.003  0.015
   32  0.004  0.001  0.002  0.007
   33  0.002  0.001  0.002  0.005
   34  0.005  0.002  0.002  0.009
   35  0.000  0.000  0.003  0.003
   36  0.000  0.004  0.006  0.010
   37  0.000  0.000  0.000  0.000
tot    0.346  0.115  0.179  0.640
 
band     6 # energy   -5.79447477 # occ.  2.00000000
 
ion      s      p      d    tot
    1  0.000  0.002  0.005  0.007
    2  0.001  0.001  0.002  0.004
    3  0.010  0.002  0.002  0.015
    4  0.001  0.001  0.002  0.005
    5  0.000  0.003  0.004  0.007
    6  0.005  0.002  0.002  0.009
    7  0.009  0.002  0.002  0.014
    8  0.004  0.001  0.002  0.007
    9  0.000  0.000  0.002  0.002
   10  0.000  0.000  0.017  0.017
   11  0.029  0.004  0.006  0.040
   12  0.041  0.004  0.005  0.050
   13  0.034  0.003  0.006  0.043
   14  0.000  0.011  0.006  0.017
   15  0.000  0.004  0.005  0.009
   16  0.035  0.004  0.007  0.046
   17  0.000  0.003  0.004  0.008
   18  0.000  0.009  0.006  0.014
   19  0.009  0.004  0.005  0.018
   20  0.000  0.005  0.015  0.020
   21  0.053  0.004  0.007  0.064
   22  0.015  0.004  0.005  0.023
   23  0.046  0.004  0.008  0.058
   24  0.000  0.002  0.013  0.016
   25  0.000  0.014  0.002  0.015
   26  0.010  0.003  0.005  0.019
   27  0.013  0.003  0.006  0.022
   28  0.000  0.002  0.003  0.004
   29  0.000  0.001  0.002  0.003
   30  0.010  0.002  0.003  0.015
   31  0.001  0.001  0.002  0.004
   32  0.007  0.002  0.003  0.011
   33  0.009  0.002  0.003  0.014
   34  0.005  0.002  0.003  0.010
   35  0.000  0.000  0.003  0.003
   36  0.000  0.004  0.006  0.010
   37  0.000  0.000  0.000  0.000
tot    0.346  0.115  0.179  0.640
 
band     7 # energy   -5.76892972 # occ.  2.00000000
 
ion      s      p      d    tot
    1  0.023  0.003  0.001  0.027
    2  0.000  0.002  0.004  0.006
    3  0.000  0.002  0.004  0.006
    4  0.000  0.002  0.004  0.006
    5  0.001  0.000  0.001  0.002
    6  0.000  0.002  0.004  0.006
    7  0.000  0.002  0.004  0.006
    8  0.000  0.002  0.004  0.006
    9  0.008  0.002  0.001  0.011
   10  0.029  0.005  0.006  0.041
   11  0.005  0.000  0.012  0.017
   12  0.029  0.005  0.006  0.041
   13  0.005  0.000  0.012  0.017
   14  0.005  0.000  0.012  0.017
   15  0.014  0.008  0.003  0.025
   16  0.029  0.005  0.006  0.041
   17  0.014  0.008  0.003  0.025
   18  0.014  0.008  0.003  0.025
   19  0.021  0.009  0.002  0.032
   20  0.000  0.002  0.011  0.013
   21  0.000  0.002  0.011  0.013
   22  0.025  0.003  0.009  0.037
   23  0.000  0.002  0.011  0.013
   24  0.025  0.003  0.009  0.036
   25  0.021  0.009  0.002  0.032
   26  0.021  0.009  0.002  0.032
   27  0.025  0.003  0.009  0.037
   28  0.019  0.003  0.000  0.022
   29  0.000  0.002  0.004  0.005
   30  0.000  0.002  0.004  0.005
   31  0.000  0.002  0.004  0.005
   32  0.000  0.002  0.004  0.005
   33  0.000  0.002  0.004  0.005
   34  0.000  0.002  0.004  0.005
   35  0.010  0.002  0.002  0.014
   36  0.000  0.000  0.000  0.000
   37  0.000  0.000  0.000  0.000
tot    0.345  0.114  0.180  0.639
 
band     8 # energy   -5.76154065 # occ.  2.00000000
 
ion      s      p      d    tot
    1  0.000  0.002  0.003  0.005
    2  0.010  0.002  0.002  0.015
    3  0.000  0.001  0.002  0.003
    4  0.009  0.002  0.002  0.014
    5  0.000  0.000  0.004  0.004
    6  0.006  0.002  0.003  0.010
    7  0.001  0.001  0.002  0.004
    8  0.006  0.002  0.003  0.011
    9  0.000  0.003  0.006  0.009
   10  0.000  0.014  0.002  0.015
   11  0.015  0.004  0.006  0.024
   12  0.010  0.003  0.006  0.018
   13  0.016  0.004  0.005  0.024
   14  0.000  0.002  0.014  0.016
   15  0.046  0.004  0.007  0.057
   16  0.009  0.004  0.005  0.018
   17  0.050  0.004  0.007  0.060
   18  0.000  0.005  0.014  0.018
   19  0.035  0.004  0.006  0.045
   20  0.000  0.009  0.006  0.015
   21  0.000  0.003  0.005  0.008
   22  0.034  0.003  0.006  0.044
   23  0.000  0.004  0.005  0.009
   24  0.000  0.011  0.006  0.017
   25  0.000  0.000  0.017  0.017
   26  0.038  0.004  0.006  0.047
   27  0.031  0.004  0.006  0.042
   28  0.000  0.002  0.005  0.006
   29  0.009  0.002  0.002  0.014
   30  0.001  0.001  0.002  0.004
   31  0.009  0.002  0.002  0.014
   32  0.003  0.001  0.002  0.006
   33  0.002  0.001  0.002  0.005
   34  0.004  0.001  0.002  0.007
   35  0.000  0.003  0.004  0.007
   36  0.000  0.000  0.002  0.002
   37  0.000  0.000  0.000  0.000
tot    0.345  0.116  0.178  0.638
 
band     9 # energy   -5.76152631 # occ.  2.00000000
 
ion      s      p      d    tot
    1  0.000  0.002  0.003  0.005
    2  0.001  0.001  0.002  0.004
    3  0.010  0.003  0.003  0.016
    4  0.001  0.001  0.002  0.005
    5  0.000  0.000  0.004  0.004
    6  0.005  0.002  0.002  0.009
    7  0.010  0.003  0.003  0.015
    8  0.004  0.002  0.002  0.008
    9  0.000  0.003  0.006  0.009
   10  0.012  0.000  0.007  0.019
   11  0.006  0.003  0.011  0.019
   12  0.003  0.011  0.003  0.016
   13  0.004  0.003  0.011  0.018
   14  0.020  0.004  0.002  0.027
   15  0.018  0.004  0.011  0.034
   16  0.004  0.010  0.003  0.016
   17  0.014  0.005  0.012  0.030
   18  0.064  0.004  0.005  0.072
   19  0.014  0.001  0.013  0.028
   20  0.000  0.002  0.005  0.007
   21  0.000  0.008  0.006  0.013
   22  0.010  0.009  0.006  0.024
   23  0.000  0.007  0.005  0.013
   24  0.044  0.001  0.006  0.051
   25  0.049  0.005  0.002  0.056
   26  0.011  0.001  0.014  0.026
   27  0.012  0.008  0.006  0.026
   28  0.000  0.002  0.005  0.006
   29  0.000  0.001  0.002  0.003
   30  0.008  0.002  0.002  0.013
   31  0.000  0.001  0.002  0.003
   32  0.006  0.002  0.002  0.011
   33  0.008  0.002  0.002  0.012
   34  0.006  0.002  0.002  0.010
   35  0.000  0.003  0.004  0.007
   36  0.000  0.000  0.002  0.002
   37  0.000  0.000  0.000  0.000
tot    0.345  0.116  0.178  0.638
 
band    10 # energy   -5.73741484 # occ.  2.00000000
 
ion      s      p      d    tot
    1  0.004  0.000  0.005  0.008
    2  0.009  0.001  0.006  0.017
    3  0.009  0.001  0.006  0.017
    4  0.009  0.001  0.006  0.017
    5  0.040  0.001  0.002  0.044
    6  0.009  0.001  0.006  0.017
    7  0.009  0.001  0.006  0.017
    8  0.009  0.001  0.006  0.017
    9  0.001  0.001  0.007  0.009
   10  0.007  0.004  0.006  0.017
   11  0.005  0.005  0.006  0.016
   12  0.007  0.004  0.006  0.017
   13  0.005  0.005  0.006  0.016
   14  0.005  0.005  0.006  0.016
   15  0.021  0.003  0.006  0.030
   16  0.007  0.004  0.006  0.017
   17  0.021  0.003  0.006  0.030
   18  0.021  0.003  0.006  0.030
   19  0.011  0.003  0.005  0.019
   20  0.006  0.004  0.004  0.015
   21  0.006  0.004  0.004  0.015
   22  0.007  0.005  0.003  0.016
   23  0.006  0.004  0.004  0.015
   24  0.007  0.005  0.003  0.016
   25  0.011  0.003  0.005  0.019
   26  0.011  0.003  0.005  0.019
   27  0.007  0.005  0.003  0.016
   28  0.004  0.000  0.006  0.010
   29  0.009  0.000  0.005  0.014
   30  0.009  0.000  0.005  0.014
   31  0.009  0.000  0.005  0.014
   32  0.009  0.000  0.005  0.014
   33  0.009  0.000  0.005  0.014
   34  0.009  0.000  0.005  0.014
   35  0.003  0.000  0.004  0.008
   36  0.024  0.001  0.000  0.025
   37  0.002  0.007  0.000  0.009
tot    0.363  0.095  0.180  0.639
 
band    11 # energy   -5.15936283 # occ.  2.00000000
 
ion      s      p      d    tot
    1  0.009  0.000  0.003  0.012
    2  0.002  0.002  0.007  0.011
    3  0.002  0.002  0.007  0.011
    4  0.002  0.002  0.007  0.011
    5  0.009  0.003  0.005  0.017
    6  0.002  0.002  0.007  0.011
    7  0.002  0.002  0.007  0.011
    8  0.002  0.002  0.007  0.011
    9  0.018  0.000  0.001  0.020
   10  0.001  0.001  0.015  0.017
   11  0.018  0.003  0.007  0.028
   12  0.001  0.001  0.015  0.017
   13  0.018  0.003  0.007  0.028
   14  0.018  0.003  0.007  0.028
   15  0.001  0.001  0.011  0.013
   16  0.001  0.001  0.015  0.017
   17  0.001  0.001  0.011  0.013
   18  0.001  0.001  0.011  0.013
   19  0.000  0.000  0.004  0.005
   20  0.006  0.004  0.027  0.037
   21  0.006  0.004  0.027  0.037
   22  0.000  0.000  0.010  0.010
   23  0.006  0.004  0.027  0.037
   24  0.000  0.000  0.010  0.010
   25  0.000  0.000  0.004  0.005
   26  0.000  0.000  0.004  0.005
   27  0.000  0.000  0.010  0.010
   28  0.005  0.000  0.001  0.005
   29  0.001  0.000  0.003  0.004
   30  0.001  0.000  0.003  0.004
   31  0.001  0.000  0.003  0.004
   32  0.001  0.000  0.003  0.004
   33  0.001  0.000  0.003  0.004
   34  0.001  0.000  0.003  0.004
   35  0.005  0.000  0.001  0.006
   36  0.025  0.001  0.122  0.147
   37  0.008  0.158  0.000  0.166
tot    0.176  0.201  0.416  0.793
 
band    12 # energy   -5.01717546 # occ.  2.00000000
 
ion      s      p      d    tot
    1  0.000  0.002  0.009  0.011
    2  0.017  0.003  0.005  0.026
    3  0.000  0.001  0.005  0.006
    4  0.015  0.003  0.005  0.023
    5  0.000  0.006  0.008  0.014
    6  0.012  0.003  0.005  0.020
    7  0.000  0.001  0.005  0.007
    8  0.015  0.003  0.005  0.023
    9  0.000  0.001  0.012  0.013
   10  0.013  0.004  0.008  0.025
   11  0.006  0.002  0.019  0.027
   12  0.002  0.001  0.014  0.018
   13  0.004  0.002  0.021  0.027
   14  0.019  0.004  0.005  0.028
   15  0.000  0.003  0.014  0.017
   16  0.004  0.002  0.013  0.019
   17  0.000  0.003  0.016  0.019
   18  0.001  0.000  0.008  0.008
   19  0.000  0.002  0.017  0.020
   20  0.018  0.005  0.006  0.029
   21  0.004  0.002  0.025  0.030
   22  0.002  0.001  0.013  0.016
   23  0.006  0.002  0.022  0.030
   24  0.010  0.004  0.010  0.023
   25  0.002  0.000  0.007  0.009
   26  0.000  0.003  0.018  0.022
   27  0.003  0.002  0.012  0.017
   28  0.000  0.002  0.012  0.014
   29  0.020  0.003  0.004  0.028
   30  0.000  0.002  0.005  0.007
   31  0.017  0.003  0.004  0.025
   32  0.017  0.003  0.004  0.024
   33  0.000  0.002  0.005  0.007
   34  0.020  0.003  0.004  0.027
   35  0.000  0.001  0.010  0.011
   36  0.000  0.010  0.000  0.010
   37  0.000  0.017  0.000  0.017
tot    0.229  0.112  0.355  0.696
 
band    13 # energy   -5.01716423 # occ.  2.00000000
 
ion      s      p      d    tot
    1  0.000  0.002  0.009  0.011
    2  0.003  0.002  0.005  0.009
    3  0.020  0.004  0.005  0.029
    4  0.005  0.002  0.005  0.012
    5  0.000  0.006  0.008  0.014
    6  0.008  0.002  0.005  0.015
    7  0.020  0.004  0.005  0.028
    8  0.005  0.002  0.005  0.012
    9  0.000  0.001  0.012  0.013
   10  0.000  0.001  0.016  0.017
   11  0.013  0.003  0.011  0.028
   12  0.010  0.003  0.010  0.023
   13  0.016  0.003  0.009  0.028
   14  0.000  0.001  0.025  0.027
   15  0.001  0.001  0.011  0.012
   16  0.009  0.003  0.011  0.022
   17  0.001  0.001  0.010  0.011
   18  0.000  0.004  0.018  0.021
   19  0.001  0.001  0.011  0.014
   20  0.000  0.001  0.029  0.030
   21  0.015  0.004  0.010  0.029
   22  0.008  0.003  0.010  0.021
   23  0.013  0.004  0.013  0.029
   24  0.000  0.001  0.013  0.014
   25  0.000  0.003  0.021  0.025
   26  0.001  0.001  0.009  0.012
   27  0.007  0.003  0.011  0.020
   28  0.000  0.002  0.012  0.014
   29  0.005  0.002  0.005  0.012
   30  0.025  0.004  0.004  0.032
   31  0.008  0.002  0.005  0.015
   32  0.008  0.002  0.005  0.015
   33  0.025  0.004  0.004  0.032
   34  0.005  0.002  0.005  0.012
   35  0.000  0.001  0.010  0.011
   36  0.000  0.010  0.000  0.010
   37  0.000  0.017  0.000  0.017
tot    0.229  0.112  0.355  0.696
 
band    14 # energy   -4.99321259 # occ.  2.00000000
 
ion      s      p      d    tot
    1  0.034  0.004  0.001  0.038
    2  0.000  0.003  0.010  0.013
    3  0.000  0.003  0.010  0.013
    4  0.000  0.003  0.010  0.013
    5  0.000  0.000  0.000  0.000
    6  0.000  0.003  0.010  0.013
    7  0.000  0.003  0.010  0.013
    8  0.000  0.003  0.010  0.013
    9  0.031  0.003  0.000  0.035
   10  0.009  0.004  0.011  0.024
   11  0.001  0.000  0.015  0.016
   12  0.009  0.004  0.011  0.024
   13  0.001  0.000  0.015  0.016
   14  0.001  0.000  0.014  0.015
   15  0.005  0.003  0.019  0.028
   16  0.009  0.004  0.011  0.024
   17  0.005  0.003  0.019  0.028
   18  0.005  0.003  0.019  0.028
   19  0.007  0.004  0.016  0.027
   20  0.000  0.000  0.018  0.018
   21  0.000  0.000  0.018  0.018
   22  0.011  0.003  0.010  0.024
   23  0.000  0.000  0.018  0.018
   24  0.011  0.003  0.010  0.024
   25  0.007  0.004  0.016  0.027
   26  0.007  0.004  0.016  0.027
   27  0.011  0.003  0.010  0.024
   28  0.034  0.004  0.000  0.038
   29  0.000  0.003  0.010  0.012
   30  0.000  0.003  0.010  0.012
   31  0.000  0.003  0.010  0.012
   32  0.000  0.003  0.010  0.012
   33  0.000  0.003  0.010  0.012
   34  0.000  0.003  0.010  0.012
   35  0.027  0.003  0.001  0.031
   36  0.000  0.000  0.000  0.000
   37  0.000  0.000  0.000  0.000
tot    0.225  0.092  0.389  0.706
 
band    15 # energy   -4.98338161 # occ.  2.00000000
 
ion      s      p      d    tot
    1  0.000  0.004  0.011  0.015
    2  0.004  0.002  0.005  0.011
    3  0.021  0.004  0.005  0.030
    4  0.003  0.002  0.005  0.011
    5  0.000  0.000  0.012  0.012
    6  0.007  0.002  0.005  0.014
    7  0.021  0.004  0.005  0.030
    8  0.008  0.002  0.005  0.015
    9  0.000  0.005  0.008  0.013
   10  0.008  0.002  0.005  0.015
   11  0.001  0.002  0.013  0.016
   12  0.002  0.003  0.022  0.027
   13  0.001  0.002  0.013  0.016
   14  0.002  0.001  0.010  0.014
   15  0.005  0.001  0.019  0.025
   16  0.002  0.003  0.023  0.027
   17  0.005  0.002  0.019  0.025
   18  0.019  0.006  0.007  0.032
   19  0.005  0.001  0.019  0.025
   20  0.001  0.001  0.011  0.013
   21  0.000  0.003  0.015  0.018
   22  0.003  0.003  0.020  0.027
   23  0.000  0.003  0.016  0.018
   24  0.013  0.002  0.005  0.020
   25  0.022  0.005  0.006  0.033
   26  0.006  0.001  0.018  0.025
   27  0.003  0.003  0.021  0.027
   28  0.000  0.004  0.008  0.012
   29  0.005  0.002  0.006  0.013
   30  0.021  0.004  0.005  0.029
   31  0.005  0.002  0.006  0.012
   32  0.005  0.002  0.006  0.013
   33  0.021  0.004  0.005  0.029
   34  0.005  0.002  0.005  0.013
   35  0.000  0.005  0.010  0.015
   36  0.000  0.000  0.008  0.008
   37  0.000  0.001  0.000  0.001
tot    0.224  0.094  0.384  0.702
 
band    16 # energy   -4.98337190 # occ.  2.00000000
 
ion      s      p      d    tot
    1  0.000  0.004  0.011  0.015
    2  0.017  0.003  0.005  0.026
    3  0.000  0.002  0.005  0.007
    4  0.018  0.003  0.005  0.027
    5  0.000  0.000  0.012  0.012
    6  0.014  0.003  0.005  0.023
    7  0.000  0.002  0.005  0.007
    8  0.014  0.003  0.005  0.022
    9  0.000  0.005  0.008  0.013
   10  0.000  0.003  0.028  0.031
   11  0.002  0.002  0.011  0.015
   12  0.006  0.002  0.011  0.019
   13  0.002  0.002  0.011  0.015
   14  0.000  0.002  0.014  0.016
   15  0.015  0.005  0.011  0.030
   16  0.006  0.002  0.011  0.019
   17  0.014  0.004  0.011  0.030
   18  0.000  0.000  0.023  0.023
   19  0.016  0.004  0.010  0.031
   20  0.000  0.003  0.017  0.020
   21  0.001  0.002  0.013  0.015
   22  0.010  0.002  0.011  0.022
   23  0.001  0.001  0.013  0.015
   24  0.000  0.003  0.025  0.029
   25  0.000  0.000  0.023  0.023
   26  0.016  0.004  0.011  0.030
   27  0.010  0.002  0.010  0.022
   28  0.000  0.004  0.008  0.012
   29  0.015  0.003  0.005  0.024
   30  0.000  0.002  0.006  0.007
   31  0.016  0.003  0.005  0.024
   32  0.016  0.003  0.005  0.024
   33  0.000  0.002  0.006  0.007
   34  0.015  0.003  0.005  0.023
   35  0.000  0.005  0.010  0.015
   36  0.000  0.000  0.008  0.008
   37  0.000  0.001  0.000  0.001
tot    0.224  0.094  0.384  0.702
 
band    17 # energy   -4.95394459 # occ.  2.00000000
 
ion      s      p      d    tot
    1  0.000  0.001  0.005  0.006
    2  0.002  0.001  0.008  0.011
    3  0.002  0.001  0.008  0.011
    4  0.002  0.001  0.008  0.011
    5  0.024  0.000  0.004  0.028
    6  0.002  0.001  0.008  0.011
    7  0.002  0.001  0.008  0.011
    8  0.002  0.001  0.008  0.011
    9  0.000  0.001  0.007  0.008
   10  0.005  0.000  0.019  0.024
   11  0.000  0.001  0.021  0.022
   12  0.005  0.000  0.019  0.024
   13  0.000  0.001  0.021  0.022
   14  0.000  0.001  0.021  0.022
   15  0.009  0.001  0.019  0.029
   16  0.005  0.000  0.019  0.024
   17  0.009  0.001  0.019  0.029
   18  0.009  0.001  0.019  0.029
   19  0.011  0.000  0.023  0.034
   20  0.000  0.002  0.025  0.026
   21  0.000  0.002  0.025  0.026
   22  0.007  0.000  0.022  0.030
   23  0.000  0.002  0.025  0.026
   24  0.007  0.000  0.022  0.030
   25  0.012  0.000  0.023  0.035
   26  0.011  0.000  0.023  0.034
   27  0.007  0.000  0.022  0.030
   28  0.001  0.001  0.010  0.013
   29  0.005  0.001  0.009  0.015
   30  0.005  0.001  0.009  0.015
   31  0.005  0.001  0.009  0.015
   32  0.005  0.001  0.009  0.015
   33  0.005  0.001  0.009  0.015
   34  0.005  0.001  0.009  0.015
   35  0.001  0.001  0.009  0.010
   36  0.026  0.000  0.001  0.028
   37  0.003  0.027  0.000  0.030
tot    0.198  0.055  0.524  0.777
 
band    18 # energy   -4.76555606 # occ.  2.00000000
 
ion      s      p      d    tot
    1  0.000  0.001  0.001  0.001
    2  0.003  0.000  0.001  0.004
    3  0.001  0.000  0.001  0.002
    4  0.003  0.000  0.001  0.004
    5  0.000  0.001  0.002  0.002
    6  0.000  0.000  0.001  0.002
    7  0.001  0.000  0.001  0.002
    8  0.000  0.000  0.001  0.002
    9  0.000  0.000  0.002  0.002
   10  0.001  0.001  0.003  0.005
   11  0.000  0.000  0.005  0.006
   12  0.000  0.000  0.002  0.003
   13  0.000  0.000  0.005  0.006
   14  0.000  0.000  0.000  0.001
   15  0.000  0.000  0.002  0.002
   16  0.000  0.000  0.002  0.003
   17  0.000  0.000  0.002  0.002
   18  0.000  0.000  0.002  0.002
   19  0.000  0.000  0.001  0.001
   20  0.004  0.000  0.006  0.010
   21  0.001  0.000  0.009  0.010
   22  0.000  0.000  0.003  0.003
   23  0.001  0.000  0.009  0.010
   24  0.000  0.000  0.001  0.002
   25  0.000  0.000  0.001  0.001
   26  0.000  0.000  0.001  0.001
   27  0.000  0.000  0.003  0.003
   28  0.000  0.000  0.003  0.003
   29  0.005  0.002  0.011  0.018
   30  0.000  0.000  0.005  0.005
   31  0.005  0.002  0.011  0.018
   32  0.004  0.002  0.011  0.017
   33  0.000  0.000  0.005  0.005
   34  0.004  0.002  0.011  0.017
   35  0.000  0.000  0.003  0.003
   36  0.000  0.012  0.193  0.205
   37  0.000  0.354  0.000  0.354
tot    0.035  0.382  0.322  0.740
 
band    19 # energy   -4.76549943 # occ.  2.00000000
 
ion      s      p      d    tot
    1  0.000  0.001  0.001  0.001
    2  0.000  0.000  0.001  0.001
    3  0.002  0.000  0.001  0.003
    4  0.000  0.000  0.001  0.001
    5  0.000  0.001  0.002  0.002
    6  0.002  0.000  0.001  0.004
    7  0.002  0.000  0.001  0.003
    8  0.002  0.000  0.001  0.004
    9  0.000  0.000  0.002  0.002
   10  0.000  0.000  0.002  0.002
   11  0.000  0.000  0.002  0.003
   12  0.001  0.001  0.003  0.004
   13  0.000  0.000  0.002  0.003
   14  0.000  0.000  0.007  0.007
   15  0.000  0.000  0.002  0.002
   16  0.001  0.001  0.003  0.004
   17  0.000  0.000  0.002  0.002
   18  0.000  0.000  0.002  0.003
   19  0.000  0.000  0.001  0.001
   20  0.000  0.000  0.010  0.010
   21  0.003  0.000  0.007  0.010
   22  0.000  0.000  0.002  0.002
   23  0.003  0.000  0.007  0.010
   24  0.000  0.000  0.003  0.003
   25  0.000  0.000  0.001  0.001
   26  0.000  0.000  0.001  0.001
   27  0.000  0.000  0.002  0.002
   28  0.000  0.000  0.003  0.003
   29  0.001  0.001  0.007  0.009
   30  0.006  0.003  0.014  0.022
   31  0.001  0.001  0.007  0.009
   32  0.002  0.001  0.007  0.010
   33  0.006  0.003  0.014  0.022
   34  0.002  0.001  0.007  0.010
   35  0.000  0.000  0.003  0.003
   36  0.000  0.012  0.193  0.205
   37  0.000  0.354  0.000  0.354
tot    0.035  0.382  0.323  0.740
 
band    20 # energy   -4.69023584 # occ.  2.00000000
 
ion      s      p      d    tot
    1  0.011  0.000  0.000  0.011
    2  0.000  0.001  0.006  0.008
    3  0.000  0.001  0.006  0.008
    4  0.000  0.001  0.006  0.008
    5  0.017  0.002  0.001  0.020
    6  0.000  0.001  0.006  0.008
    7  0.000  0.001  0.006  0.008
    8  0.000  0.001  0.006  0.008
    9  0.002  0.000  0.000  0.003
   10  0.000  0.000  0.018  0.019
   11  0.001  0.003  0.017  0.022
   12  0.000  0.000  0.018  0.019
   13  0.001  0.003  0.017  0.022
   14  0.001  0.003  0.017  0.022
   15  0.000  0.000  0.002  0.003
   16  0.000  0.000  0.018  0.019
   17  0.000  0.000  0.002  0.003
   18  0.000  0.000  0.002  0.003
   19  0.001  0.000  0.014  0.016
   20  0.010  0.000  0.005  0.015
   21  0.010  0.000  0.005  0.015
   22  0.000  0.002  0.013  0.015
   23  0.010  0.000  0.005  0.015
   24  0.000  0.002  0.013  0.015
   25  0.001  0.000  0.014  0.016
   26  0.001  0.000  0.014  0.016
   27  0.000  0.002  0.013  0.015
   28  0.002  0.000  0.000  0.002
   29  0.000  0.002  0.008  0.009
   30  0.000  0.002  0.008  0.009
   31  0.000  0.002  0.008  0.009
   32  0.000  0.002  0.008  0.009
   33  0.000  0.002  0.008  0.009
   34  0.000  0.002  0.008  0.009
   35  0.011  0.001  0.000  0.012
   36  0.002  0.019  0.160  0.181
   37  0.008  0.233  0.000  0.241
tot    0.093  0.289  0.456  0.838
 
band    21 # energy   -4.30887144 # occ.  2.00000000
 
ion      s      p      d    tot
    1  0.000  0.000  0.036  0.036
    2  0.007  0.001  0.010  0.018
    3  0.002  0.001  0.010  0.013
    4  0.006  0.001  0.010  0.017
    5  0.000  0.002  0.003  0.006
    6  0.015  0.001  0.011  0.027
    7  0.002  0.001  0.010  0.013
    8  0.016  0.001  0.011  0.028
    9  0.000  0.002  0.018  0.021
   10  0.000  0.001  0.011  0.012
   11  0.000  0.002  0.012  0.014
   12  0.000  0.000  0.039  0.039
   13  0.000  0.002  0.011  0.013
   14  0.001  0.007  0.021  0.029
   15  0.000  0.001  0.037  0.038
   16  0.000  0.000  0.037  0.038
   17  0.000  0.001  0.039  0.040
   18  0.001  0.003  0.006  0.010
   19  0.000  0.001  0.016  0.017
   20  0.001  0.001  0.005  0.006
   21  0.000  0.000  0.061  0.062
   22  0.000  0.002  0.019  0.021
   23  0.000  0.000  0.058  0.058
   24  0.001  0.007  0.018  0.026
   25  0.000  0.004  0.016  0.019
   26  0.000  0.001  0.016  0.017
   27  0.000  0.002  0.019  0.021
   28  0.000  0.001  0.015  0.015
   29  0.000  0.001  0.009  0.010
   30  0.013  0.001  0.007  0.021
   31  0.000  0.001  0.009  0.010
   32  0.009  0.001  0.010  0.021
   33  0.012  0.001  0.007  0.021
   34  0.009  0.001  0.010  0.020
   35  0.000  0.003  0.002  0.004
   36  0.000  0.001  0.017  0.018