 vasp.6.2.0 18Jan21 (build Jun 12 2021 23:27:24) complex                        
  
 executed on             LinuxIFC date 2022.05.27  04:58:56
 running on   28 total cores
 distrk:  each k-point on   28 cores,    1 groups
 distr:  one band on NCORE=   1 cores,   28 groups


--------------------------------------------------------------------------------------------------------


 INCAR:
   ISMEAR = -5
   SIGMA = 0.1
   ISPIN = 1
   EDIFF = 1.d-5
   EDIFFG = -0.01
   NSW = 0
   NELM = 150
   ENCUT = 500
   ISIF = 2
   IBRION = 2
   LREAL = Auto
   ALGO = Fast
   ICHARG = 11
   LORBIT = 10
   LCHARG = .F.
   LWAVE = .F.

 POTCAR:    PAW_PBE Au 04Oct2007                  
 POTCAR:    PAW_PBE V 08Apr2002                   
 POTCAR:    PAW_PBE H 15Jun2001                   
 -----------------------------------------------------------------------------
|                                                                             |
|           W    W    AA    RRRRR   N    N  II  N    N   GGGG   !!!           |
|           W    W   A  A   R    R  NN   N  II  NN   N  G    G  !!!           |
|           W    W  A    A  R    R  N N  N  II  N N  N  G       !!!           |
|           W WW W  AAAAAA  RRRRR   N  N N  II  N  N N  G  GGG   !            |
|           WW  WW  A    A  R   R   N   NN  II  N   NN  G    G                |
|           W    W  A    A  R    R  N    N  II  N    N   GGGG   !!!           |
|                                                                             |
|     For optimal performance we recommend to set                             |
|       NCORE = 2 up to number-of-cores-per-socket                            |
|     NCORE specifies how many cores store one orbital (NPAR=cpu/NCORE).      |
|     This setting can greatly improve the performance of VASP for DFT.       |
|     The default, NCORE=1 might be grossly inefficient on modern             |
|     multi-core architectures or massively parallel machines. Do your        |
|     own testing! More info at https://www.vasp.at/wiki/index.php/NCORE      |
|     Unfortunately you need to use the default for GW and RPA                |
|     calculations (for HF NCORE is supported but not extensively tested      |
|     yet).                                                                   |
|                                                                             |
 -----------------------------------------------------------------------------

 POTCAR:    PAW_PBE Au 04Oct2007                  
   VRHFIN =Au: s1d10                                                                                
   LEXCH  = PE                                                                                      
   EATOM  =   926.0867 eV,   68.0654 Ry                                                             
                                                                                                    
   TITEL  = PAW_PBE Au 04Oct2007                                                                    
   LULTRA =        F    use ultrasoft PP ?                                                          
   IUNSCR =        1    unscreen: 0-lin 1-nonlin 2-no                                               
   RPACOR =    2.330    partial core radius                                                         
   POMASS =  196.966; ZVAL   =   11.000    mass and valenz                                          
   RCORE  =    2.500    outmost cutoff radius                                                       
   RWIGS  =    2.840; RWIGS  =    1.503    wigner-seitz radius (au A)                               
   ENMAX  =  229.943; ENMIN  =  172.457 eV                                                          
   ICORE  =        3    local potential                                                             
   LCOR   =        T    correct aug charges                                                         
   LPAW   =        T    paw PP                                                                      
   EAUG   =  356.670                                                                                
   DEXC   =    0.000                                                                                
   RMAX   =    2.562    core radius for proj-oper                                                   
   RAUG   =    1.300    factor for augmentation sphere                                              
   RDEP   =    2.598    radius for radial grids                                                     
   RDEPT  =    2.193    core radius for aug-charge                                                  
                                                                                                    
   Atomic configuration                                                                             
   16 entries                                                                                       
     n  l   j            E        occ.                                                              
     1  0  0.50    -80748.5001   2.0000                                                             
     2  0  0.50    -14244.7466   2.0000                                                             
     2  1  1.50    -12310.9591   6.0000                                                             
     3  0  0.50     -3362.1768   2.0000                                                             
     3  1  1.50     -2801.5463   6.0000                                                             
     3  2  2.50     -2203.8206  10.0000                                                             
     4  0  0.50      -729.8168   2.0000                                                             
     4  1  1.50      -546.0527   6.0000                                                             
     4  2  2.50      -325.7302  10.0000                                                             
     4  3  3.50       -81.1472  14.0000                                                             
     5  0  0.50      -108.3201   2.0000                                                             
     5  1  1.50       -59.7479   6.0000                                                             
     5  2  2.50        -6.8783  10.0000                                                             
     6  0  0.50        -5.7602   1.0000                                                             
     6  1  1.50        -6.8029   0.0000                                                             
     5  3  2.50        -1.3606   0.0000                                                             
   Description                                                                                      
     l       E           TYP  RCUT    TYP  RCUT                                                     
     2     -6.8782861     23  2.500                                                                 
     2     -8.2388687     23  2.500                                                                 
     0     -5.7601759     23  2.500                                                                 
     0     -0.8493231     23  2.500                                                                 
     1     -2.7211652     23  2.500                                                                 
     1     27.2116520     23  2.500                                                                 
     3     -1.3605826     23  2.500                                                                 
  local pseudopotential read in
  partial core-charges read in
  partial kinetic energy density read in
  atomic valenz-charges read in
  non local Contribution for L=           2  read in
    real space projection operators read in
  non local Contribution for L=           2  read in
    real space projection operators read in
  non local Contribution for L=           0  read in
    real space projection operators read in
  non local Contribution for L=           0  read in
    real space projection operators read in
  non local Contribution for L=           1  read in
    real space projection operators read in
  non local Contribution for L=           1  read in
    real space projection operators read in
    PAW grid and wavefunctions read in
 
   number of l-projection  operators is LMAX  =           6
   number of lm-projection operators is LMMAX =          18
 
 POTCAR:    PAW_PBE V 08Apr2002                   
   VRHFIN =V: p6 d4 s1                                                                              
   LEXCH  = PE                                                                                      
   EATOM  =   170.8679 eV,   12.5584 Ry                                                             
                                                                                                    
   TITEL  = PAW_PBE V 08Apr2002                                                                     
   LULTRA =        F    use ultrasoft PP ?                                                          
   IUNSCR =        1    unscreen: 0-lin 1-nonlin 2-no                                               
   RPACOR =    2.000    partial core radius                                                         
   POMASS =   50.941; ZVAL   =    5.000    mass and valenz                                          
   RCORE  =    2.700    outmost cutoff radius                                                       
   RWIGS  =    2.500; RWIGS  =    1.323    wigner-seitz radius (au A)                               
   ENMAX  =  192.543; ENMIN  =  144.408 eV                                                          
   RCLOC  =    1.779    cutoff for local pot                                                        
   LCOR   =        T    correct aug charges                                                         
   LPAW   =        T    paw PP                                                                      
   EAUG   =  358.662                                                                                
   DEXC   =    0.000                                                                                
   RMAX   =    2.768    core radius for proj-oper                                                   
   RAUG   =    1.300    factor for augmentation sphere                                              
   RDEP   =    2.762    radius for radial grids                                                     
   RDEPT  =    2.240    core radius for aug-charge                                                  
                                                                                                    
   Atomic configuration                                                                             
    9 entries                                                                                       
     n  l   j            E        occ.                                                              
     1  0  0.50     -5360.7193   2.0000                                                             
     2  0  0.50      -598.4546   2.0000                                                             
     2  1  1.50      -499.0155   6.0000                                                             
     3  0  0.50       -66.5711   2.0000                                                             
     3  1  1.50       -40.5282   6.0000                                                             
     3  2  2.50        -2.4291   4.0000                                                             
     4  0  0.50        -3.8743   1.0000                                                             
     4  1  0.50        -2.7212   0.0000                                                             
     4  3  2.50        -1.3606   0.0000                                                             
   Description                                                                                      
     l       E           TYP  RCUT    TYP  RCUT                                                     
     2     -2.4290901     23  2.700                                                                 
     2     -3.7896727     23  2.700                                                                 
     0     -3.8742752     23  2.700                                                                 
     0     27.2116520     23  2.700                                                                 
     1     -2.7211652     23  2.700                                                                 
     1     27.2116520     23  2.700                                                                 
  local pseudopotential read in
  partial core-charges read in
  partial kinetic energy density read in
  atomic valenz-charges read in
  non local Contribution for L=           2  read in
    real space projection operators read in
  non local Contribution for L=           2  read in
    real space projection operators read in
  non local Contribution for L=           0  read in
    real space projection operators read in
  non local Contribution for L=           0  read in
    real space projection operators read in
  non local Contribution for L=           1  read in
    real space projection operators read in
  non local Contribution for L=           1  read in
    real space projection operators read in
    PAW grid and wavefunctions read in
 
   number of l-projection  operators is LMAX  =           6
   number of lm-projection operators is LMMAX =          18
 
 POTCAR:    PAW_PBE H 15Jun2001                   
   VRHFIN =H: ultrasoft test                                                                        
   LEXCH  = PE                                                                                      
   EATOM  =    12.4884 eV,    0.9179 Ry                                                             
                                                                                                    
   TITEL  = PAW_PBE H 15Jun2001                                                                     
   LULTRA =        F    use ultrasoft PP ?                                                          
   IUNSCR =        0    unscreen: 0-lin 1-nonlin 2-no                                               
   RPACOR =    0.000    partial core radius                                                         
   POMASS =    1.000; ZVAL   =    1.000    mass and valenz                                          
   RCORE  =    1.100    outmost cutoff radius                                                       
   RWIGS  =    0.700; RWIGS  =    0.370    wigner-seitz radius (au A)                               
   ENMAX  =  250.000; ENMIN  =  200.000 eV                                                          
   RCLOC  =    0.701    cutoff for local pot                                                        
   LCOR   =        T    correct aug charges                                                         
   LPAW   =        T    paw PP                                                                      
   EAUG   =  400.000                                                                                
   RMAX   =    1.123    core radius for proj-oper                                                   
   RAUG   =    1.200    factor for augmentation sphere                                              
   RDEP   =    1.112    radius for radial grids                                                     
   RDEPT  =    0.926    core radius for aug-charge                                                  
                                                                                                    
   Atomic configuration                                                                             
    2 entries                                                                                       
     n  l   j            E        occ.                                                              
     1  0  0.50        -6.4927   1.0000                                                             
     2  1  0.50        -3.4015   0.0000                                                             
   Description                                                                                      
     l       E           TYP  RCUT    TYP  RCUT                                                     
     0     -6.4927494     23  1.100                                                                 
     0      6.8029130     23  1.100                                                                 
     1     -4.0817478     23  1.100                                                                 
  local pseudopotential read in
  atomic valenz-charges read in
  non local Contribution for L=           0  read in
    real space projection operators read in
  non local Contribution for L=           0  read in
    real space projection operators read in
  non local Contribution for L=           1  read in
    real space projection operators read in
    PAW grid and wavefunctions read in
 
   number of l-projection  operators is LMAX  =           3
   number of lm-projection operators is LMMAX =           5
 
 Optimization of the real space projectors (new method)

 maximal supplied QI-value         = 15.12
 optimisation between [QCUT,QGAM] = [ 11.34, 22.83] = [ 36.00,145.93] Ry 
 Optimized for a Real-space Cutoff    1.39 Angstroem

   l    n(q)    QCUT    max X(q) W(low)/X(q) W(high)/X(q)  e(spline) 
   2      9    11.338    60.898    0.39E-03    0.42E-03    0.21E-06
   2      9    11.338    58.894    0.40E-03    0.42E-03    0.22E-06
   0      9    11.338   109.617    0.13E-03    0.20E-04    0.13E-06
   0      9    11.338    75.026    0.13E-03    0.20E-04    0.13E-06
   1      9    11.338    16.344    0.33E-04    0.24E-03    0.18E-06
   1      9    11.338    10.160    0.26E-04    0.19E-03    0.15E-06
 Optimization of the real space projectors (new method)

 maximal supplied QI-value         = 13.98
 optimisation between [QCUT,QGAM] = [ 11.33, 22.79] = [ 35.93,145.49] Ry 
 Optimized for a Real-space Cutoff    1.56 Angstroem

   l    n(q)    QCUT    max X(q) W(low)/X(q) W(high)/X(q)  e(spline) 
   2     10    11.327    96.114    0.36E-03    0.35E-03    0.42E-06
   2     10    11.327    88.986    0.37E-03    0.35E-03    0.42E-06
   0     11    11.327    20.919    0.40E-04    0.56E-04    0.79E-06
   0     11    11.327     9.593    0.30E-04    0.41E-04    0.60E-06
   1     10    11.327    11.615    0.15E-03    0.10E-03    0.19E-06
   1     10    11.327     7.031    0.11E-03    0.73E-04    0.14E-06
 Optimization of the real space projectors (new method)

 maximal supplied QI-value         = 34.20
 optimisation between [QCUT,QGAM] = [ 11.29, 22.57] = [ 35.68,142.71] Ry 
 Optimized for a Real-space Cutoff    1.16 Angstroem

   l    n(q)    QCUT    max X(q) W(low)/X(q) W(high)/X(q)  e(spline) 
   0      8    11.287    19.460    0.40E-03    0.73E-03    0.16E-06
   0      8    11.287    12.209    0.38E-03    0.70E-03    0.15E-06
   1      7    11.287     4.655    0.22E-03    0.25E-04    0.22E-06
  PAW_PBE Au 04Oct2007                  :
 energy of atom  1       EATOM= -926.0867
 kinetic energy error for atom=    0.0042 (will be added to EATOM!!)
  PAW_PBE V 08Apr2002                   :
 energy of atom  2       EATOM= -170.8679
 kinetic energy error for atom=    0.0003 (will be added to EATOM!!)
  PAW_PBE H 15Jun2001                   :
 energy of atom  3       EATOM=  -12.4884
 kinetic energy error for atom=    0.0020 (will be added to EATOM!!)
 
 
 POSCAR: Au-V-H2
  positions in direct lattice
  velocities in cartesian coordinates
 exchange correlation table for  LEXCH =        8
   RHO(1)=    0.500       N(1)  =     2000
   RHO(2)=  100.500       N(2)  =     4000

 VTST: version 3.2, (02/03/18)

 CHAIN: initializing optimizer
 
 OPT: Using VASP Conjugate-Gradient optimizer
 CHAIN: Read ICHAIN            0
 
 POSCAR: Au-V-H2
  positions in direct lattice
  velocities in cartesian coordinates
 


--------------------------------------------------------------------------------------------------------


 ion  position               nearest neighbor table
   1  0.000  0.000  0.238-  16 2.94  12 2.94   6 2.94   8 2.94   7 2.94   3 2.94  10 2.94   4 2.94
                             2 2.94
   2  0.333  0.000  0.238-   9 2.94  11 2.94  17 2.94  10 2.94   8 2.94   4 2.94   5 2.94   1 2.94
                             3 2.94
   3  0.667  0.000  0.238-   7 2.94  18 2.94  12 2.94   1 2.94  11 2.94   5 2.94   6 2.94   9 2.94
                             2 2.94
   4  0.000  0.333  0.238-  10 2.94   6 2.94   5 2.94  13 2.94   2 2.94  15 2.94   9 2.94   1 2.94
                             7 2.94
   5  0.333  0.333  0.238-  13 2.94   7 2.94  11 2.94   4 2.94   2 2.94  14 2.94   3 2.94   8 2.94
                             6 2.94
   6  0.667  0.333  0.238-  15 2.94  14 2.94   1 2.94  12 2.94   4 2.94   9 2.94   8 2.94   3 2.94
                             5 2.94
   7  0.000  0.667  0.238-  18 2.94   3 2.94  16 2.94   5 2.94   1 2.94  13 2.94   8 2.94   4 2.94
                             9 2.94
   8  0.333  0.667  0.238-   9 2.94  17 2.94   1 2.94   2 2.94  14 2.94  16 2.94   6 2.94   7 2.94
                             5 2.94
   9  0.667  0.667  0.238-   2 2.94   8 2.94  17 2.94   6 2.94  15 2.94   4 2.94   3 2.94  18 2.94
                             7 2.94
  10  0.111  0.111  0.346-  20 2.93  26 2.94  19 2.94  11 2.94  17 2.94   2 2.94   4 2.94   1 2.94
                            12 2.94  16 2.94  13 2.94  15 2.94
  11  0.444  0.111  0.346-  20 2.92  21 2.92  27 2.94  13 2.94   2 2.94  10 2.94  17 2.94   5 2.94
                             3 2.94  18 2.94  14 2.94  12 2.94
  12  0.778  0.111  0.346-  21 2.93  25 2.94  19 2.94  16 2.94  18 2.94   1 2.94  14 2.94  15 2.94
                             3 2.94   6 2.94  10 2.94  11 2.94
  13  0.111  0.444  0.346-  23 2.92  20 2.92  22 2.94   5 2.94  18 2.94  11 2.94   7 2.94   4 2.94
                            16 2.94  10 2.94  14 2.94  15 2.94
  14  0.444  0.444  0.346-  21 2.92  23 2.92  24 2.94  15 2.94   6 2.94  12 2.94   8 2.94  17 2.94
                             5 2.94  16 2.94  13 2.94  11 2.94
  15  0.778  0.444  0.346-  24 2.92  22 2.92  19 2.93  14 2.94   6 2.94  17 2.94  12 2.94   9 2.94
                             4 2.94  10 2.94  13 2.94  18 2.94
  16  0.111  0.778  0.346-  23 2.93  25 2.94  26 2.94  18 2.94  12 2.94   7 2.94   1 2.94   8 2.94
                            13 2.94  10 2.94  14 2.94  17 2.94
  17  0.444  0.778  0.346-  27 2.92  24 2.92  26 2.93   9 2.94  15 2.94   2 2.94  10 2.94  11 2.94
                             8 2.94  14 2.94  16 2.94  18 2.94
  18  0.778  0.778  0.346-  22 2.92  27 2.92  25 2.93  16 2.94   7 2.94  13 2.94  12 2.94   3 2.94
                            11 2.94   9 2.94  15 2.94  17 2.94
  19  0.889  0.222  0.454-  15 2.93  10 2.94  12 2.94  24 2.94  22 2.94  28 2.94  26 2.94  25 2.94
                            21 2.95  20 2.95  32 3.03  31 3.03
  20  0.223  0.223  0.453-  36 2.72  23 2.92  21 2.92  11 2.92  13 2.92  10 2.93  29 2.95  31 2.95
                            26 2.95  19 2.95  27 2.95  22 2.95
  21  0.554  0.223  0.453-  36 2.72  20 2.92  23 2.92  14 2.92  11 2.92  12 2.93  30 2.95  32 2.95
                            25 2.95  19 2.95  27 2.95  24 2.95
  22  0.887  0.557  0.453-  24 2.91  27 2.91  18 2.92  15 2.92  25 2.94  19 2.94  13 2.94  23 2.95
                            20 2.95  35 2.96  33 2.99  31 2.99
  23  0.223  0.554  0.453-  36 2.72  20 2.92  21 2.92  13 2.92  14 2.92  16 2.93  33 2.95  34 2.95
                            25 2.95  26 2.95  22 2.95  24 2.95
  24  0.557  0.557  0.453-  27 2.91  22 2.91  15 2.92  17 2.92  26 2.94  19 2.94  14 2.94  21 2.95
                            23 2.95  35 2.96  32 2.99  34 2.99
  25  0.889  0.889  0.454-  18 2.93  16 2.94  12 2.94  22 2.94  27 2.94  28 2.94  19 2.94  26 2.94
                            23 2.95  21 2.95  33 3.03  30 3.03
  26  0.222  0.889  0.454-  17 2.93  10 2.94  16 2.94  27 2.94  24 2.94  28 2.94  19 2.94  25 2.94
                            20 2.95  23 2.95  29 3.03  34 3.03
  27  0.557  0.887  0.453-  24 2.91  22 2.91  17 2.92  18 2.92  26 2.94  25 2.94  11 2.94  20 2.95
                            21 2.95  35 2.96  29 2.99  30 2.99
  28  0.000  0.000  0.562-  25 2.94  19 2.94  26 2.94  34 2.99  32 2.99  33 2.99  30 2.99  31 2.99
                            29 2.99
  29  0.334  0.011  0.564-  30 2.83  31 2.85  36 2.86  20 2.95  35 2.98  27 2.99  28 2.99  26 3.03
                            34 3.13
  30  0.655  0.011  0.564-  29 2.83  32 2.85  36 2.86  21 2.95  35 2.98  27 2.99  28 2.99  25 3.03
                            33 3.13
  31  0.011  0.334  0.564-  33 2.83  29 2.85  36 2.86  20 2.95  35 2.98  22 2.99  28 2.99  19 3.03
                            32 3.13
  32  0.655  0.334  0.564-  34 2.83  30 2.85  36 2.86  21 2.95  35 2.98  24 2.99  28 2.99  19 3.03
                            31 3.13
  33  0.011  0.655  0.564-  31 2.83  34 2.85  36 2.86  23 2.95  35 2.98  22 2.99  28 2.99  25 3.03
                            30 3.13
  34  0.334  0.655  0.564-  32 2.83  33 2.85  36 2.86  23 2.95  35 2.98  24 2.99  28 2.99  26 3.03
                            29 3.13
  35  0.667  0.667  0.563-  24 2.96  27 2.96  22 2.96  29 2.98  34 2.98  32 2.98  31 2.98  30 2.98
                            33 2.98
  36  0.333  0.333  0.550-  37 1.83  38 1.83  20 2.72  23 2.72  21 2.72  33 2.86  31 2.86  29 2.86
                            30 2.86  34 2.86  32 2.86
  37  0.286  0.334  0.630-  38 0.83  36 1.83
  38  0.380  0.334  0.630-  37 0.83  36 1.83
 
  LATTYP: Found a hexagonal cell.
 ALAT       =     8.8135128021
 C/A-ratio  =     2.5184286595
  
  Lattice vectors:
  
 A1 = (  -4.4067569092,  -7.6327256898,   0.0000000000)
 A2 = (   8.8135128021,   0.0000000000,   0.0000000000)
 A3 = (   0.0000000000,   0.0000000000,  22.1962032318)


Analysis of symmetry for initial positions (statically):
=====================================================================
 Subroutine PRICEL returns:
 Original cell was already a primitive cell.
 

 Routine SETGRP: Setting up the symmetry group for a 
 hexagonal supercell.


 Subroutine GETGRP returns: Found  2 space group operations
 (whereof  2 operations were pure point group operations)
 out of a pool of 24 trial point group operations.


The static configuration has the point symmetry C_1h.


Analysis of symmetry for dynamics (positions and initial velocities):
=====================================================================
 Subroutine PRICEL returns:
 Original cell was already a primitive cell.
 

 Routine SETGRP: Setting up the symmetry group for a 
 hexagonal supercell.


 Subroutine GETGRP returns: Found  2 space group operations
 (whereof  2 operations were pure point group operations)
 out of a pool of 24 trial point group operations.


The dynamic configuration has the point symmetry C_1h.


Analysis of constrained symmetry for selective dynamics:
=====================================================================
 Subroutine PRICEL returns:
 Original cell was already a primitive cell.
 

 Routine SETGRP: Setting up the symmetry group for a 
 hexagonal supercell.


 Subroutine GETGRP returns: Found  2 space group operations
 (whereof  2 operations were pure point group operations)
 out of a pool of 24 trial point group operations.


The constrained configuration has the point symmetry C_1h.


 Subroutine INISYM returns: Found  2 space group operations
 (whereof  2 operations are pure point group operations),
 and found     1 'primitive' translations


----------------------------------------------------------------------------------------

                                     Primitive cell                                     

  volume of cell :    1493.1636

  direct lattice vectors                    reciprocal lattice vectors
     8.813512802  0.000000000  0.000000000     0.113462137 -0.065507406  0.000000000
     4.406756909  7.632725690  0.000000000     0.000000000  0.131014796  0.000000000
     0.000000000  0.000000000 22.196203232     0.000000000  0.000000000  0.045052750

  length of vectors
     8.813512802  8.813512802 22.196203232     0.131014796  0.131014796  0.045052750

  position of ions in fractional coordinates (direct lattice)
     0.000000000  0.000000000  0.237895638
     0.333333343  0.000000000  0.237895638
     0.666666687  0.000000000  0.237895638
     1.000000000  0.333333343  0.237895638
     0.333333313  0.333333343  0.237895638
     0.666666687  0.333333343  0.237895638
     1.000000000  0.666666687  0.237895638
     0.333333343  0.666666687  0.237895638
     0.666666627  0.666666687  0.237895638
     0.111111119  0.111111112  0.345965207
     0.444444418  0.111111112  0.345965207
     0.777777791  0.111111112  0.345965207
     0.111111127  0.444444448  0.345965207
     0.444444478  0.444444448  0.345965207
     0.777777731  0.444444448  0.345965207
     0.111111090  0.777777791  0.345965207
     0.444444448  0.777777791  0.345965207
     0.777777851  0.777777791  0.345965207
     0.888779964  0.222440088  0.453926874
     0.222983025  0.222983010  0.453307564
     0.554034011  0.222983010  0.453307564
     0.886742282  0.556628889  0.453457450
     0.222982980  0.554034011  0.453307564
     0.556628889  0.556628889  0.453457450
     0.888779964  0.888779964  0.453926874
     0.222440118  0.888779964  0.453926874
     0.556628829  0.886742282  0.453457450
     0.000000000  0.000000000  0.561934495
     0.333994608  0.010639071  0.564122738
     0.655366352  0.010639071  0.564122738
     0.010639071  0.333994608  0.564122738
     0.655366352  0.333994608  0.564122738
     0.010639071  0.655366352  0.564122738
     0.333994608  0.655366352  0.564122738
     0.666666627  0.666666687  0.563173780
     0.333333313  0.333333343  0.549702143
     0.286143871  0.333573227  0.630085069
     0.380282871  0.333573227  0.630085069

  ion indices of the primitive-cell ions
   primitive index   ion index
                 1           1
                 2           2
                 3           3
                 4           4
                 5           5
                 6           6
                 7           7
                 8           8
                 9           9
                10          10
                11          11
                12          12
                13          13
                14          14
                15          15
                16          16
                17          17
                18          18
                19          19
                20          20
                21          21
                22          22
                23          23
                24          24
                25          25
                26          26
                27          27
                28          28
                29          29
                30          30
                31          31
                32          32
                33          33
                34          34
                35          35
                36          36
                37          37
                38          38

----------------------------------------------------------------------------------------

 
 
 KPOINTS: Automatic mesh                          

Automatic generation of k-mesh.
 Grid dimensions read from file:
 generate k-points for:    8    8    1

 Generating k-lattice:

  Cartesian coordinates                     Fractional coordinates (reciprocal lattice)
     0.014182767 -0.008188426  0.000000000     0.125000000 -0.000000000  0.000000000
     0.000000000  0.016376850  0.000000000     0.000000000  0.125000000  0.000000000
     0.000000000  0.000000000  0.045052750     0.000000000  0.000000000  1.000000000

  Length of vectors
     0.016376850  0.016376850  0.045052750

  Shift w.r.t. Gamma in fractional coordinates (k-lattice)
     0.000000000  0.000000000  0.000000000

 TETIRR: Found    100 inequivalent tetrahedra from      384
 
 Subroutine IBZKPT returns following result:
 ===========================================
 
 Found     21 irreducible k-points:
 
 Following reciprocal coordinates:
            Coordinates               Weight
  0.000000  0.000000  0.000000      1.000000
  0.125000 -0.000000  0.000000      4.000000
  0.000000  0.125000  0.000000      2.000000
  0.250000 -0.000000  0.000000      4.000000
  0.000000  0.250000  0.000000      2.000000
  0.375000  0.000000  0.000000      4.000000
  0.000000  0.375000  0.000000      2.000000
  0.500000 -0.000000  0.000000      2.000000
  0.000000  0.500000  0.000000      1.000000
  0.250000  0.125000  0.000000      2.000000
  0.125000  0.250000  0.000000      4.000000
  0.375000  0.125000  0.000000      4.000000
  0.250000  0.375000  0.000000      4.000000
 -0.125000  0.250000  0.000000      4.000000
  0.500000  0.125000  0.000000      4.000000
  0.375000  0.500000  0.000000      4.000000
 -0.125000  0.375000  0.000000      4.000000
  0.500000  0.250000  0.000000      2.000000
  0.250000  0.500000  0.000000      4.000000
 -0.375000  0.250000  0.000000      4.000000
 -0.250000  0.375000  0.000000      2.000000
 
 Following cartesian coordinates:
            Coordinates               Weight
  0.000000  0.000000  0.000000      1.000000
  0.014183 -0.008188  0.000000      4.000000
  0.000000  0.016377  0.000000      2.000000
  0.028366 -0.016377  0.000000      4.000000
  0.000000  0.032754  0.000000      2.000000
  0.042548 -0.024565  0.000000      4.000000
  0.000000  0.049131  0.000000      2.000000
  0.056731 -0.032754  0.000000      2.000000
  0.000000  0.065507  0.000000      1.000000
  0.028366 -0.000000  0.000000      2.000000
  0.014183  0.024565  0.000000      4.000000
  0.042548 -0.008188  0.000000      4.000000
  0.028366  0.032754  0.000000      4.000000
 -0.014183  0.040942  0.000000      4.000000
  0.056731 -0.016377  0.000000      4.000000
  0.042548  0.040942  0.000000      4.000000
 -0.014183  0.057319  0.000000      4.000000
  0.056731 -0.000000  0.000000      2.000000
  0.028366  0.049131  0.000000      4.000000
 -0.042548  0.057319  0.000000      4.000000
 -0.028366  0.065507  0.000000      2.000000
 


--------------------------------------------------------------------------------------------------------




 Dimension of arrays:
   k-points           NKPTS =     21   k-points in BZ     NKDIM =     21   number of bands    NBANDS=    252
   number of dos      NEDOS =    301   number of ions     NIONS =     38
   non local maximal  LDIM  =      6   non local SUM 2l+1 LMDIM =     18
   total plane-waves  NPLWV = 290304
   max r-space proj   IRMAX =   3166   max aug-charges    IRDMAX=  12088
   dimension x,y,z NGX =    48 NGY =   48 NGZ =  126
   dimension x,y,z NGXF=    96 NGYF=   96 NGZF=  252
   support grid    NGXF=    96 NGYF=   96 NGZF=  252
   ions per type =              35   1   2
   NGX,Y,Z   is equivalent  to a cutoff of   9.05,  9.05,  9.44 a.u.
   NGXF,Y,Z  is equivalent  to a cutoff of  18.11, 18.11, 18.87 a.u.

 SYSTEM =  unknown system                          
 POSCAR =  Au-V-H2                                 

 Startparameter for this run:
   NWRITE =      2    write-flag & timer
   PREC   = normal    normal or accurate (medium, high low for compatibility)
   ISTART =      0    job   : 0-new  1-cont  2-samecut
   ICHARG =     11    charge: 1-file 2-atom 10-const
   ISPIN  =      1    spin polarized calculation?
   LNONCOLLINEAR =      F non collinear calculations
   LSORBIT =      F    spin-orbit coupling
   INIWAV =      1    electr: 0-lowe 1-rand  2-diag
   LASPH  =      F    aspherical Exc in radial PAW
   METAGGA=      F    non-selfconsistent MetaGGA calc.

 Electronic Relaxation 1
   ENCUT  =  500.0 eV  36.75 Ry    6.06 a.u.  16.07 16.07 40.47*2*pi/ulx,y,z
   ENINI  =  500.0     initial cutoff
   ENAUG  =  400.0 eV  augmentation charge cutoff
   NELM   =    150;   NELMIN=  2; NELMDL= -5     # of ELM steps 
   EDIFF  = 0.1E-04   stopping-criterion for ELM
   LREAL  =      T    real-space projection
   NLSPLINE    = F    spline interpolate recip. space projectors
   LCOMPAT=      F    compatible to vasp.4.4
   GGA_COMPAT  = T    GGA compatible to vasp.4.4-vasp.4.6
   LMAXPAW     = -100 max onsite density
   LMAXMIX     =    2 max onsite mixed and CHGCAR
   VOSKOWN=      0    Vosko Wilk Nusair interpolation
   ROPT   =   -0.00050  -0.00050  -0.00050
 Ionic relaxation
   EDIFFG = -.1E-01   stopping-criterion for IOM
   NSW    =      0    number of steps for IOM
   NBLOCK =      1;   KBLOCK =      1    inner block; outer block 
   IBRION =     -1    ionic relax: 0-MD 1-quasi-New 2-CG
   NFREE  =      1    steps in history (QN), initial steepest desc. (CG)
   ISIF   =      2    stress and relaxation
   IWAVPR =     10    prediction:  0-non 1-charg 2-wave 3-comb
   ISYM   =      2    0-nonsym 1-usesym 2-fastsym
   LCORR  =      T    Harris-Foulkes like correction to forces

   POTIM  = 0.5000    time-step for ionic-motion
   TEIN   =    0.0    initial temperature
   TEBEG  =    0.0;   TEEND  =   0.0 temperature during run
   SMASS  =  -3.00    Nose mass-parameter (am)
   estimated Nose-frequenzy (Omega)   =  0.10E-29 period in steps = 0.13E+47 mass=  -0.178E-26a.u.
   SCALEE = 1.0000    scale energy and forces
   NPACO  =    256;   APACO  = 16.0  distance and # of slots for P.C.
   PSTRESS=    0.0 pullay stress

  Mass of Ions in am
   POMASS = 196.97 50.94  1.00
  Ionic Valenz
   ZVAL   =  11.00  5.00  1.00
  Atomic Wigner-Seitz radii
   RWIGS  =  -1.00 -1.00 -1.00
  virtual crystal weights 
   VCA    =   1.00  1.00  1.00
   NELECT =     392.0000    total number of electrons
   NUPDOWN=      -1.0000    fix difference up-down

 DOS related values:
   EMIN   =  10.00;   EMAX   =-10.00  energy-range for DOS
   EFERMI =   0.00
   ISMEAR =    -5;   SIGMA  =   0.10  broadening in eV -4-tet -1-fermi 0-gaus

 Electronic relaxation 2 (details)
   IALGO  =     68    algorithm
   LDIAG  =      T    sub-space diagonalisation (order eigenvalues)
   LSUBROT=      F    optimize rotation matrix (better conditioning)
   TURBO    =      0    0=normal 1=particle mesh
   IRESTART =      0    0=no restart 2=restart with 2 vectors
   NREBOOT  =      0    no. of reboots
   NMIN     =      0    reboot dimension
   EREF     =   0.00    reference energy to select bands
   IMIX   =      4    mixing-type and parameters
     AMIX     =   0.40;   BMIX     =  1.00
     AMIX_MAG =   1.60;   BMIX_MAG =  1.00
     AMIN     =   0.10
     WC   =   100.;   INIMIX=   1;  MIXPRE=   1;  MAXMIX= -45

 Intra band minimization:
   WEIMIN = 0.0000     energy-eigenvalue tresh-hold
   EBREAK =  0.99E-08  absolut break condition
   DEPER  =   0.30     relativ break condition  

   TIME   =   0.40     timestep for ELM

  volume/ion in A,a.u.               =      39.29       265.17
  Fermi-wavevector in a.u.,A,eV,Ry     =   1.048257  1.980918 14.950660  1.098843
  Thomas-Fermi vector in A             =   2.183171
 
 Write flags
   LWAVE        =      F    write WAVECAR
   LDOWNSAMPLE  =      F    k-point downsampling of WAVECAR
   LCHARG       =      F    write CHGCAR
   LVTOT        =      F    write LOCPOT, total local potential
   LVHAR        =      F    write LOCPOT, Hartree potential only
   LELF         =      F    write electronic localiz. function (ELF)
   LORBIT       =     10    0 simple, 1 ext, 2 COOP (PROOUT), +10 PAW based schemes


 Dipole corrections
   LMONO  =      F    monopole corrections only (constant potential shift)
   LDIPOL =      F    correct potential (dipole corrections)
   IDIPOL =      0    1-x, 2-y, 3-z, 4-all directions 
   EPSILON=  1.0000000 bulk dielectric constant

 Exchange correlation treatment:
   GGA     =    --    GGA type
   LEXCH   =     8    internal setting for exchange type
   VOSKOWN=      0    Vosko Wilk Nusair interpolation
   LHFCALC =     F    Hartree Fock is set to
   LHFONE  =     F    Hartree Fock one center treatment
   AEXX    =    0.0000 exact exchange contribution

 Linear response parameters
   LEPSILON=     F    determine dielectric tensor
   LRPA    =     F    only Hartree local field effects (RPA)
   LNABLA  =     F    use nabla operator in PAW spheres
   LVEL    =     F    velocity operator in full k-point grid
   LINTERFAST=   F  fast interpolation
   KINTER  =     0    interpolate to denser k-point grid
   CSHIFT  =0.1000    complex shift for real part using Kramers Kronig
   OMEGAMAX=  -1.0    maximum frequency
   DEG_THRESHOLD= 0.2000000E-02 threshold for treating states as degnerate
   RTIME   =   -0.100 relaxation time in fs
  (WPLASMAI=    0.000 imaginary part of plasma frequency in eV, 0.658/RTIME)
   DFIELD  = 0.0000000 0.0000000 0.0000000 field for delta impulse in time
 
 Orbital magnetization related:
   ORBITALMAG=     F  switch on orbital magnetization
   LCHIMAG   =     F  perturbation theory with respect to B field
   DQ        =  0.001000  dq finite difference perturbation B field
   LLRAUG    =     F  two centre corrections for induced B field



--------------------------------------------------------------------------------------------------------


 Static calculation
 charge density and potential remain constant during run
 non-spin polarized calculation
 RMM-DIIS sequential band-by-band and
  variant of blocked Davidson during initial phase
 perform sub-space diagonalisation
    before iterative eigenvector-optimisation
 no mixing
 using additional bands           56
 real space projection scheme for non local part
 use partial core corrections
 calculate Harris-corrections to forces 
   (improved forces if not selfconsistent)
 use gradient corrections 
 WARNING: stress and forces are not correct
  (second derivative of E(xc) not defined)
 use of overlap-Matrix (Vanderbilt PP)
 Fermi weights with tetrahedron method with Bloechl corrections


--------------------------------------------------------------------------------------------------------


  energy-cutoff  :      500.00
  volume of cell :     1493.16
      direct lattice vectors                 reciprocal lattice vectors
     8.813512802  0.000000000  0.000000000     0.113462137 -0.065507406  0.000000000
     4.406756909  7.632725690  0.000000000     0.000000000  0.131014796  0.000000000
     0.000000000  0.000000000 22.196203232     0.000000000  0.000000000  0.045052750

  length of vectors
     8.813512802  8.813512802 22.196203232     0.131014796  0.131014796  0.045052750


 
 k-points in units of 2pi/SCALE and weight: Automatic mesh                          
   0.00000000  0.00000000  0.00000000       0.016
   0.01418277 -0.00818843  0.00000000       0.062
   0.00000000  0.01637685  0.00000000       0.031
   0.02836553 -0.01637685  0.00000000       0.062
   0.00000000  0.03275370  0.00000000       0.031
   0.04254830 -0.02456528  0.00000000       0.062
   0.00000000  0.04913055  0.00000000       0.031
   0.05673107 -0.03275370  0.00000000       0.031
   0.00000000  0.06550740  0.00000000       0.016
   0.02836553 -0.00000000  0.00000000       0.031
   0.01418277  0.02456527  0.00000000       0.062
   0.04254830 -0.00818843  0.00000000       0.062
   0.02836553  0.03275370  0.00000000       0.062
  -0.01418277  0.04094212  0.00000000       0.062
   0.05673107 -0.01637685  0.00000000       0.062
   0.04254830  0.04094212  0.00000000       0.062
  -0.01418277  0.05731897  0.00000000       0.062
   0.05673107 -0.00000000  0.00000000       0.031
   0.02836553  0.04913055  0.00000000       0.062
  -0.04254830  0.05731898  0.00000000       0.062
  -0.02836553  0.06550740  0.00000000       0.031
 
 k-points in reciprocal lattice and weights: Automatic mesh                          
   0.00000000  0.00000000  0.00000000       0.016
   0.12500000 -0.00000000  0.00000000       0.062
   0.00000000  0.12500000  0.00000000       0.031
   0.25000000 -0.00000000  0.00000000       0.062
   0.00000000  0.25000000  0.00000000       0.031
   0.37500000  0.00000000  0.00000000       0.062
   0.00000000  0.37500000  0.00000000       0.031
   0.50000000 -0.00000000  0.00000000       0.031
   0.00000000  0.50000000  0.00000000       0.016
   0.25000000  0.12500000  0.00000000       0.031
   0.12500000  0.25000000  0.00000000       0.062
   0.37500000  0.12500000  0.00000000       0.062
   0.25000000  0.37500000  0.00000000       0.062
  -0.12500000  0.25000000  0.00000000       0.062
   0.50000000  0.12500000  0.00000000       0.062
   0.37500000  0.50000000  0.00000000       0.062
  -0.12500000  0.37500000  0.00000000       0.062
   0.50000000  0.25000000  0.00000000       0.031
   0.25000000  0.50000000  0.00000000       0.062
  -0.37500000  0.25000000  0.00000000       0.062
  -0.25000000  0.37500000  0.00000000       0.031
 
 position of ions in fractional coordinates (direct lattice) 
   0.00000000  0.00000000  0.23789564
   0.33333334  0.00000000  0.23789564
   0.66666669  0.00000000  0.23789564
   0.00000000  0.33333334  0.23789564
   0.33333331  0.33333334  0.23789564
   0.66666669  0.33333334  0.23789564
   0.00000000  0.66666669  0.23789564
   0.33333334  0.66666669  0.23789564
   0.66666663  0.66666669  0.23789564
   0.11111112  0.11111111  0.34596521
   0.44444442  0.11111111  0.34596521
   0.77777779  0.11111111  0.34596521
   0.11111113  0.44444445  0.34596521
   0.44444448  0.44444445  0.34596521
   0.77777773  0.44444445  0.34596521
   0.11111109  0.77777779  0.34596521
   0.44444445  0.77777779  0.34596521
   0.77777785  0.77777779  0.34596521
   0.88877996  0.22244009  0.45392687
   0.22298302  0.22298301  0.45330756
   0.55403401  0.22298301  0.45330756
   0.88674228  0.55662889  0.45345745
   0.22298298  0.55403401  0.45330756
   0.55662889  0.55662889  0.45345745
   0.88877996  0.88877996  0.45392687
   0.22244012  0.88877996  0.45392687
   0.55662883  0.88674228  0.45345745
   0.00000000  0.00000000  0.56193450
   0.33399461  0.01063907  0.56412274
   0.65536635  0.01063907  0.56412274
   0.01063907  0.33399461  0.56412274
   0.65536635  0.33399461  0.56412274
   0.01063907  0.65536635  0.56412274
   0.33399461  0.65536635  0.56412274
   0.66666663  0.66666669  0.56317378
   0.33333331  0.33333334  0.54970214
   0.28614387  0.33357323  0.63008507
   0.38028287  0.33357323  0.63008507
 
 position of ions in cartesian coordinates  (Angst):
   0.00000000  0.00000000  5.28037993
   2.93783769  0.00000000  5.28037993
   5.87567538  0.00000000  5.28037993
   1.46891901  2.54424197  5.28037993
   4.40675643  2.54424197  5.28037993
   7.34459439  2.54424197  5.28037993
   2.93783803  5.08848395  5.28037993
   5.87567571  5.08848395  5.28037993
   8.81351288  5.08848395  5.28037993
   1.46891893  0.84808064  7.67911405
   4.40675623  0.84808064  7.67911405
   7.34459418  0.84808064  7.67911405
   2.93783798  3.39232256  7.67911405
   5.87567574  3.39232256  7.67911405
   8.81351263  3.39232256  7.67911405
   4.40675667  5.93656453  7.67911405
   7.34459449  5.93656453  7.67911405
  10.28243270  5.93656453  7.67911405
   8.81351299  1.69782418 10.07545314
   2.94789566  1.70196815 10.06170683
   5.86561776  1.70196815 10.06170683
  10.26824266  4.24859562 10.06503371
   4.40675655  4.22878963 10.06170683
   7.35878404  4.24859562 10.06503371
  11.74991083  6.78381366 10.07545314
   5.87711608  6.78381366 10.07545314
   8.81351299  6.76826059 10.06503371
   0.00000000  0.00000000 12.47281226
   2.99054955  0.08120511 12.52138294
   5.82296353  0.08120511 12.52138294
   1.56560063  2.54928922 12.52138294
   7.24791277  2.54928922 12.52138294
   2.98180778  5.00223159 12.52138294
   5.83170595  5.00223159 12.52138294
   8.81351288  5.08848395 12.50031969
   4.40675643  2.54424197 12.20130049
   3.99190879  2.54607294 13.98549625
   4.82160408  2.54607294 13.98549625
 


--------------------------------------------------------------------------------------------------------


 k-point   1 :   0.0000 0.0000 0.0000  plane waves:   37827
 k-point   2 :   0.1250-0.0000 0.0000  plane waves:   37876
 k-point   3 :   0.0000 0.1250 0.0000  plane waves:   37876
 k-point   4 :   0.2500-0.0000 0.0000  plane waves:   37924
 k-point   5 :   0.0000 0.2500 0.0000  plane waves:   37924
 k-point   6 :   0.3750 0.0000 0.0000  plane waves:   37904
 k-point   7 :   0.0000 0.3750 0.0000  plane waves:   37904
 k-point   8 :   0.5000-0.0000 0.0000  plane waves:   37912
 k-point   9 :   0.0000 0.5000 0.0000  plane waves:   37912
 k-point  10 :   0.2500 0.1250 0.0000  plane waves:   37858
 k-point  11 :   0.1250 0.2500 0.0000  plane waves:   37858
 k-point  12 :   0.3750 0.1250 0.0000  plane waves:   37928
 k-point  13 :   0.2500 0.3750 0.0000  plane waves:   37928
 k-point  14 :  -0.1250 0.2500 0.0000  plane waves:   37928
 k-point  15 :   0.5000 0.1250 0.0000  plane waves:   37924
 k-point  16 :   0.3750 0.5000 0.0000  plane waves:   37924
 k-point  17 :  -0.1250 0.3750 0.0000  plane waves:   37924
 k-point  18 :   0.5000 0.2500 0.0000  plane waves:   37926
 k-point  19 :   0.2500 0.5000 0.0000  plane waves:   37926
 k-point  20 :  -0.3750 0.2500 0.0000  plane waves:   37916
 k-point  21 :  -0.2500 0.3750 0.0000  plane waves:   37916

 maximum and minimum number of plane-waves per node :     37928    37827

 maximum number of plane-waves:     37928
 maximum index in each direction: 
   IXMAX=   16   IYMAX=   16   IZMAX=   40
   IXMIN=  -16   IYMIN=  -16   IZMIN=  -40


 serial   3D FFT for wavefunctions
 parallel 3D FFT for charge:
    minimum data exchange during FFTs selected (reduces bandwidth)


 total amount of memory used by VASP MPI-rank0   183879. kBytes
=======================================================================

   base      :      30000. kBytes
   nonlr-proj:      14318. kBytes
   fftplans  :       4330. kBytes
   grid      :      17879. kBytes
   one-center:        590. kBytes
   wavefun   :     116762. kBytes
 
     INWAV:  cpu time    0.0000: real time    0.0000
 initial charge density was supplied:
 number of electron     392.0000029 magnetization 
 keeping initial charge density in first step


--------------------------------------------------------------------------------------------------------


 Maximum index for non-local projection operator         3036
 Maximum index for augmentation-charges          858 (set IRDMAX)


--------------------------------------------------------------------------------------------------------


 First call to EWALD:  gamma=   0.155
 Maximum number of real-space cells 4x 4x 2
 Maximum number of reciprocal cells 2x 2x 5

    FEWALD:  cpu time    0.0013: real time    0.0013


--------------------------------------- Iteration      1(   1)  ---------------------------------------


    POTLOK:  cpu time    0.0418: real time    0.0422
    SETDIJ:  cpu time    0.0048: real time    0.0049
     EDDAV:  cpu time   14.9551: real time   14.9566
 BZINTS: Fermi energy:   11.603808;  392.000000 electrons
         Band energy: 0.160344E+04;  BLOECHL correction:   -0.010986
       DOS:  cpu time    0.0300: real time    0.0301
    --------------------------------------------
      LOOP:  cpu time   15.0318: real time   15.0338

 eigenvalue-minimisations  : 10584
 total energy-change (2. order) : 0.2651479E+04  (-0.1749352E+05)
 number of electron     392.0000029 magnetization 
 augmentation part      392.0000029 magnetization 

 Free energy of the ion-electron system (eV)
  ---------------------------------------------------
  alpha Z        PSCENC =       990.53442829
  Ewald energy   TEWEN  =     94940.78423508
  -Hartree energ DENC   =   -128745.67828765
  -exchange      EXHF   =         0.00000000
  -V(xc)+E(xc)   XCENC  =       476.61779767
  PAW double counting   =     35412.45011761   -34635.39151748
  entropy T*S    EENTRO =         0.00000000
  eigenvalues    EBANDS =      1603.43556991
  atomic energy  EATOM  =     32608.72669704
  Solvation  Ediel_sol  =         0.00000000
  ---------------------------------------------------
  free energy    TOTEN  =      2651.47904047 eV

  energy without entropy =     2651.47904047  energy(sigma->0) =     2651.47904047


--------------------------------------------------------------------------------------------------------




--------------------------------------- Iteration      1(   2)  ---------------------------------------


     EDDAV:  cpu time   15.9566: real time   15.9568
 BZINTS: Fermi energy:    1.747975;  392.000000 electrons
         Band energy:-0.102226E+04;  BLOECHL correction:   -0.057427
       DOS:  cpu time    0.0279: real time    0.0279
    --------------------------------------------
      LOOP:  cpu time   15.9844: real time   15.9847

 eigenvalue-minimisations  : 11480
 total energy-change (2. order) :-0.2625696E+04  (-0.2396570E+04)
 number of electron     392.0000029 magnetization 
 augmentation part      392.0000029 magnetization 

 Free energy of the ion-electron system (eV)
  ---------------------------------------------------
  alpha Z        PSCENC =       990.53442829
  Ewald energy   TEWEN  =     94940.78423508
  -Hartree energ DENC   =   -128745.67828765
  -exchange      EXHF   =         0.00000000
  -V(xc)+E(xc)   XCENC  =       476.61779767
  PAW double counting   =     35412.45011761   -34635.39151748
  entropy T*S    EENTRO =         0.00000000
  eigenvalues    EBANDS =     -1022.26010437
  atomic energy  EATOM  =     32608.72669704
  Solvation  Ediel_sol  =         0.00000000
  ---------------------------------------------------
  free energy    TOTEN  =        25.78336618 eV

  energy without entropy =       25.78336618  energy(sigma->0) =       25.78336618


--------------------------------------------------------------------------------------------------------




--------------------------------------- Iteration      1(   3)  ---------------------------------------


     EDDAV:  cpu time   16.5916: real time   16.5918
 BZINTS: Fermi energy:    0.780628;  392.000000 electrons
         Band energy:-0.116601E+04;  BLOECHL correction:   -0.031747
       DOS:  cpu time    0.0296: real time    0.0295
    --------------------------------------------
      LOOP:  cpu time   16.6212: real time   16.6213

 eigenvalue-minimisations  : 12012
 total energy-change (2. order) :-0.1437542E+03  (-0.1363751E+03)
 number of electron     392.0000029 magnetization 
 augmentation part      392.0000029 magnetization 

 Free energy of the ion-electron system (eV)
  ---------------------------------------------------
  alpha Z        PSCENC =       990.53442829
  Ewald energy   TEWEN  =     94940.78423508
  -Hartree energ DENC   =   -128745.67828765
  -exchange      EXHF   =         0.00000000
  -V(xc)+E(xc)   XCENC  =       476.61779767
  PAW double counting   =     35412.45011761   -34635.39151748
  entropy T*S    EENTRO =         0.00000000
  eigenvalues    EBANDS =     -1166.01431601
  atomic energy  EATOM  =     32608.72669704
  Solvation  Ediel_sol  =         0.00000000
  ---------------------------------------------------
  free energy    TOTEN  =      -117.97084545 eV

  energy without entropy =     -117.97084545  energy(sigma->0) =     -117.97084545


--------------------------------------------------------------------------------------------------------




--------------------------------------- Iteration      1(   4)  ---------------------------------------


     EDDAV:  cpu time   16.6973: real time   16.6975
 BZINTS: Fermi energy:    0.749119;  392.000000 electrons
         Band energy:-0.116961E+04;  BLOECHL correction:   -0.031221
       DOS:  cpu time    0.0282: real time    0.0282
    --------------------------------------------
      LOOP:  cpu time   16.7255: real time   16.7257

 eigenvalue-minimisations  : 12124
 total energy-change (2. order) :-0.3598374E+01  (-0.3585241E+01)
 number of electron     392.0000029 magnetization 
 augmentation part      392.0000029 magnetization 

 Free energy of the ion-electron system (eV)
  ---------------------------------------------------
  alpha Z        PSCENC =       990.53442829
  Ewald energy   TEWEN  =     94940.78423508
  -Hartree energ DENC   =   -128745.67828765
  -exchange      EXHF   =         0.00000000
  -V(xc)+E(xc)   XCENC  =       476.61779767
  PAW double counting   =     35412.45011761   -34635.39151748
  entropy T*S    EENTRO =         0.00000000
  eigenvalues    EBANDS =     -1169.61269004
  atomic energy  EATOM  =     32608.72669704
  Solvation  Ediel_sol  =         0.00000000
  ---------------------------------------------------
  free energy    TOTEN  =      -121.56921948 eV

  energy without entropy =     -121.56921948  energy(sigma->0) =     -121.56921948


--------------------------------------------------------------------------------------------------------




--------------------------------------- Iteration      1(   5)  ---------------------------------------


     EDDAV:  cpu time   18.0522: real time   18.0524
 BZINTS: Fermi energy:    0.748297;  392.000000 electrons
         Band energy:-0.116972E+04;  BLOECHL correction:   -0.031212
       DOS:  cpu time    0.0296: real time    0.0296
    --------------------------------------------
      LOOP:  cpu time   18.0817: real time   18.0819

 eigenvalue-minimisations  : 13328
 total energy-change (2. order) :-0.1035112E+00  (-0.1034801E+00)
 number of electron     392.0000029 magnetization 
 augmentation part      392.0000029 magnetization 

 Free energy of the ion-electron system (eV)
  ---------------------------------------------------
  alpha Z        PSCENC =       990.53442829
  Ewald energy   TEWEN  =     94940.78423508
  -Hartree energ DENC   =   -128745.67828765
  -exchange      EXHF   =         0.00000000
  -V(xc)+E(xc)   XCENC  =       476.61779767
  PAW double counting   =     35412.45011761   -34635.39151748
  entropy T*S    EENTRO =         0.00000000
  eigenvalues    EBANDS =     -1169.71620126
  atomic energy  EATOM  =     32608.72669704
  Solvation  Ediel_sol  =         0.00000000
  ---------------------------------------------------
  free energy    TOTEN  =      -121.67273070 eV

  energy without entropy =     -121.67273070  energy(sigma->0) =     -121.67273070


--------------------------------------------------------------------------------------------------------




--------------------------------------- Iteration      1(   6)  ---------------------------------------


    EDDIAG:  cpu time    2.9440: real time    2.9442
  RMM-DIIS:  cpu time    8.5576: real time    8.5577
    ORTHCH:  cpu time    0.5529: real time    0.5529
 BZINTS: Fermi energy:    0.748282;  392.000000 electrons
         Band energy:-0.116972E+04;  BLOECHL correction:   -0.031211
       DOS:  cpu time    0.0295: real time    0.0295
    --------------------------------------------
      LOOP:  cpu time   12.0839: real time   12.0843

 eigenvalue-minimisations  : 10935
 total energy-change (2. order) :-0.3351716E-02  (-0.3353168E-02)
 number of electron     392.0000029 magnetization 
 augmentation part      392.0000029 magnetization 

 Free energy of the ion-electron system (eV)
  ---------------------------------------------------
  alpha Z        PSCENC =       990.53442829
  Ewald energy   TEWEN  =     94940.78423508
  -Hartree energ DENC   =   -128745.67828765
  -exchange      EXHF   =         0.00000000
  -V(xc)+E(xc)   XCENC  =       476.61779767
  PAW double counting   =     35412.45011761   -34635.39151748
  entropy T*S    EENTRO =         0.00000000
  eigenvalues    EBANDS =     -1169.71955298
  atomic energy  EATOM  =     32608.72669704
  Solvation  Ediel_sol  =         0.00000000
  ---------------------------------------------------
  free energy    TOTEN  =      -121.67608242 eV

  energy without entropy =     -121.67608242  energy(sigma->0) =     -121.67608242


--------------------------------------------------------------------------------------------------------




--------------------------------------- Iteration      1(   7)  ---------------------------------------


    EDDIAG:  cpu time    2.9395: real time    2.9397
  RMM-DIIS:  cpu time   12.0990: real time   12.0990
    ORTHCH:  cpu time    0.5528: real time    0.5528
 BZINTS: Fermi energy:    0.748277;  392.000000 electrons
         Band energy:-0.116972E+04;  BLOECHL correction:   -0.031210
       DOS:  cpu time    0.0288: real time    0.0288
    --------------------------------------------
      LOOP:  cpu time   15.6200: real time   15.6203

 eigenvalue-minimisations  : 15568
 total energy-change (2. order) :-0.1814736E-02  (-0.1741378E-02)
 number of electron     392.0000029 magnetization 
 augmentation part      392.0000029 magnetization 

 Free energy of the ion-electron system (eV)
  ---------------------------------------------------
  alpha Z        PSCENC =       990.53442829
  Ewald energy   TEWEN  =     94940.78423508
  -Hartree energ DENC   =   -128745.67828765
  -exchange      EXHF   =         0.00000000
  -V(xc)+E(xc)   XCENC  =       476.61779767
  PAW double counting   =     35412.45011761   -34635.39151748
  entropy T*S    EENTRO =         0.00000000
  eigenvalues    EBANDS =     -1169.72136772
  atomic energy  EATOM  =     32608.72669704
  Solvation  Ediel_sol  =         0.00000000
  ---------------------------------------------------
  free energy    TOTEN  =      -121.67789716 eV

  energy without entropy =     -121.67789716  energy(sigma->0) =     -121.67789716


--------------------------------------------------------------------------------------------------------




--------------------------------------- Iteration      1(   8)  ---------------------------------------


    EDDIAG:  cpu time    2.9417: real time    2.9417
  RMM-DIIS:  cpu time   11.0648: real time   11.0648
    ORTHCH:  cpu time    0.5522: real time    0.5522
 BZINTS: Fermi energy:    0.748277;  392.000000 electrons
         Band energy:-0.116972E+04;  BLOECHL correction:   -0.031210
       DOS:  cpu time    0.0301: real time    0.0301
    --------------------------------------------
      LOOP:  cpu time   14.5888: real time   14.5890

 eigenvalue-minimisations  : 14235
 total energy-change (2. order) :-0.1830676E-03  (-0.1808765E-03)
 number of electron     392.0000029 magnetization 
 augmentation part      392.0000029 magnetization 

 Free energy of the ion-electron system (eV)
  ---------------------------------------------------
  alpha Z        PSCENC =       990.53442829
  Ewald energy   TEWEN  =     94940.78423508
  -Hartree energ DENC   =   -128745.67828765
  -exchange      EXHF   =         0.00000000
  -V(xc)+E(xc)   XCENC  =       476.61779767
  PAW double counting   =     35412.45011761   -34635.39151748
  entropy T*S    EENTRO =         0.00000000
  eigenvalues    EBANDS =     -1169.72155078
  atomic energy  EATOM  =     32608.72669704
  Solvation  Ediel_sol  =         0.00000000
  ---------------------------------------------------
  free energy    TOTEN  =      -121.67808022 eV

  energy without entropy =     -121.67808022  energy(sigma->0) =     -121.67808022


--------------------------------------------------------------------------------------------------------




--------------------------------------- Iteration      1(   9)  ---------------------------------------


    EDDIAG:  cpu time    2.9403: real time    2.9405
  RMM-DIIS:  cpu time   10.3131: real time   10.3131
    ORTHCH:  cpu time    0.5525: real time    0.5526
 BZINTS: Fermi energy:    0.748277;  392.000000 electrons
         Band energy:-0.116972E+04;  BLOECHL correction:   -0.031210
       DOS:  cpu time    0.0289: real time    0.0289
    --------------------------------------------
      LOOP:  cpu time   13.8348: real time   13.8350

 eigenvalue-minimisations  : 12308
 total energy-change (2. order) :-0.2969867E-04  (-0.2947624E-04)
 number of electron     392.0000029 magnetization 
 augmentation part      392.0000029 magnetization 

 Free energy of the ion-electron system (eV)
  ---------------------------------------------------
  alpha Z        PSCENC =       990.53442829
  Ewald energy   TEWEN  =     94940.78423508
  -Hartree energ DENC   =   -128745.67828765
  -exchange      EXHF   =         0.00000000
  -V(xc)+E(xc)   XCENC  =       476.61779767
  PAW double counting   =     35412.45011761   -34635.39151748
  entropy T*S    EENTRO =         0.00000000
  eigenvalues    EBANDS =     -1169.72158048
  atomic energy  EATOM  =     32608.72669704
  Solvation  Ediel_sol  =         0.00000000
  ---------------------------------------------------
  free energy    TOTEN  =      -121.67810992 eV

  energy without entropy =     -121.67810992  energy(sigma->0) =     -121.67810992


--------------------------------------------------------------------------------------------------------




--------------------------------------- Iteration      1(  10)  ---------------------------------------


    EDDIAG:  cpu time    2.9420: real time    2.9421
  RMM-DIIS:  cpu time    6.8606: real time    6.8607
    ORTHCH:  cpu time    0.5529: real time    0.5529
 BZINTS: Fermi energy:    0.748277;  392.000000 electrons
         Band energy:-0.116972E+04;  BLOECHL correction:   -0.031210
       DOS:  cpu time    0.0295: real time    0.0295
    --------------------------------------------
      LOOP:  cpu time   10.3850: real time   10.3852

 eigenvalue-minimisations  :  7550
 total energy-change (2. order) :-0.3130015E-05  (-0.3052757E-05)
 number of electron     392.0000029 magnetization 
 augmentation part      392.0000029 magnetization 

 Free energy of the ion-electron system (eV)
  ---------------------------------------------------
  alpha Z        PSCENC =       990.53442829
  Ewald energy   TEWEN  =     94940.78423508
  -Hartree energ DENC   =   -128745.67828765
  -exchange      EXHF   =         0.00000000
  -V(xc)+E(xc)   XCENC  =       476.61779767
  PAW double counting   =     35412.45011761   -34635.39151748
  entropy T*S    EENTRO =         0.00000000
  eigenvalues    EBANDS =     -1169.72158361
  atomic energy  EATOM  =     32608.72669704
  Solvation  Ediel_sol  =         0.00000000
  ---------------------------------------------------
  free energy    TOTEN  =      -121.67811305 eV

  energy without entropy =     -121.67811305  energy(sigma->0) =     -121.67811305


--------------------------------------------------------------------------------------------------------




 average (electrostatic) potential at core
  the test charge radii are     1.2098  1.2064  0.5201
  (the norm of the test charge is              1.0000)
       1 -72.2869       2 -72.2760       3 -72.2759       4 -72.2728       5 -72.2717
       6 -72.2725       7 -72.2736       8 -72.2734       9 -72.2715      10 -72.6279
      11 -72.5805      12 -72.6277      13 -72.5793      14 -72.5790      15 -72.6077
      16 -72.6310      17 -72.6047      18 -72.6048      19 -72.5736      20 -72.8136
      21 -72.8135      22 -72.5713      23 -72.8162      24 -72.5711      25 -72.5685
      26 -72.5685      27 -72.5599      28 -72.2692      29 -72.3344      30 -72.3344
      31 -72.3503      32 -72.3502      33 -72.3424      34 -72.3423      35 -72.2444
      36 -45.7936      37 -37.4837      38 -37.4836
 
 
 
 E-fermi :   0.7483     XC(G=0):  -6.1286     alpha+bet : -5.7402

 Fermi energy:         0.7482767357

 k-point     1 :       0.0000    0.0000    0.0000
  band No.  band energies     occupation 
      1      -8.0765      2.00000
      2      -7.2328      2.00000
      3      -6.7253      2.00000
      4      -5.9362      2.00000
      5      -5.9131      2.00000
      6      -5.9120      2.00000
      7      -5.9117      2.00000
      8      -5.8888      2.00000
      9      -5.8658      2.00000
     10      -5.8655      2.00000
     11      -5.7380      2.00000
     12      -5.4381      2.00000
     13      -5.4358      2.00000
     14      -5.4353      2.00000
     15      -5.3774      2.00000
     16      -5.3745      2.00000
     17      -5.3736      2.00000
     18      -5.0521      2.00000
     19      -5.0520      2.00000
     20      -5.0391      2.00000
     21      -5.0260      2.00000
     22      -4.9970      2.00000
     23      -4.9969      2.00000
     24      -4.8669      2.00000
     25      -4.8647      2.00000
     26      -4.8616      2.00000
     27      -4.8381      2.00000
     28      -4.8374      2.00000
     29      -4.8280      2.00000
     30      -4.7109      2.00000
     31      -4.6968      2.00000
     32      -4.6956      2.00000
     33      -4.6861      2.00000
     34      -4.6860      2.00000
     35      -4.6770      2.00000
     36      -4.6756      2.00000
     37      -4.6627      2.00000
     38      -4.6436      2.00000
     39      -4.5672      2.00000
     40      -4.5666      2.00000
     41      -4.5331      2.00000
     42      -4.1896      2.00000
     43      -4.1895      2.00000
     44      -4.1672      2.00000
     45      -4.1510      2.00000
     46      -4.1504      2.00000
     47      -4.1281      2.00000
     48      -4.1269      2.00000
     49      -4.1049      2.00000
     50      -4.0808      2.00000
     51      -4.0804      2.00000
     52      -4.0261      2.00000
     53      -4.0184      2.00000
     54      -3.9772      2.00000
     55      -3.9398      2.00000
     56      -3.6303      2.00000
     57      -3.6173      2.00000
     58      -3.6162      2.00000
     59      -3.6064      2.00000
     60      -3.5967      2.00000
     61      -3.5956      2.00000
     62      -3.5929      2.00000
     63      -3.5377      2.00000
     64      -3.5376      2.00000
     65      -3.4778      2.00000
     66      -3.4778      2.00000
     67      -3.4515      2.00000
     68      -3.4431      2.00000
     69      -3.4425      2.00000
     70      -3.4159      2.00000
     71      -3.3965      2.00000
     72      -3.3949      2.00000
     73      -3.3431      2.00000
     74      -3.3427      2.00000
     75      -3.3425      2.00000
     76      -3.3404      2.00000
     77      -3.3294      2.00000
     78      -3.3294      2.00000
     79      -3.3258      2.00000
     80      -3.3256      2.00000
     81      -3.2742      2.00000
     82      -3.2716      2.00000
     83      -3.2525      2.00000
     84      -3.2274      2.00000
     85      -3.2272      2.00000
     86      -3.1891      2.00000
     87      -3.1888      2.00000
     88      -3.1815      2.00000
     89      -3.1650      2.00000
     90      -3.1103      2.00000
     91      -3.1102      2.00000
     92      -3.0409      2.00000
     93      -3.0391      2.00000
     94      -3.0025      2.00000
     95      -2.9684      2.00000
     96      -2.9178      2.00000
     97      -2.9176      2.00000
     98      -2.9091      2.00000
     99      -2.9075      2.00000
    100      -2.7628      2.00000
    101      -2.7555      2.00000
    102      -2.7505      2.00000
    103      -2.7171      2.00000
    104      -2.7122      2.00000
    105      -2.7079      2.00000
    106      -2.5695      2.00000
    107      -2.5683      2.00000
    108      -2.5625      2.00000
    109      -2.5175      2.00000
    110      -2.5174      2.00000
    111      -2.5126      2.00000
    112      -2.4584      2.00000
    113      -2.4557      2.00000
    114      -2.4553      2.00000
    115      -2.4223      2.00000
    116      -2.4125      2.00000
    117      -2.3096      2.00000
    118      -2.2939      2.00000
    119      -2.2797      2.00000
    120      -2.2343      2.00000
    121      -2.2333      2.00000
    122      -2.2089      2.00000
    123      -2.1863      2.00000
    124      -2.1827      2.00000
    125      -2.1534      2.00000
    126      -2.1523      2.00000
    127      -2.1390      2.00000
    128      -2.1389      2.00000
    129      -2.0242      2.00000
    130      -2.0102      2.00000
    131      -1.9928      2.00000
    132      -1.9883      2.00000
    133      -1.9869      2.00000
    134      -1.9734      2.00000
    135      -1.9629      2.00000
    136      -1.9617      2.00000
    137      -1.9560      2.00000
    138      -1.9392      2.00000
    139      -1.9373      2.00000
    140      -1.8363      2.00000
    141      -1.8343      2.00000
    142      -1.7942      2.00000
    143      -1.7587      2.00000
    144      -1.7554      2.00000
    145      -1.7462      2.00000
    146      -1.7296      2.00000
    147      -1.7295      2.00000
    148      -1.7005      2.00000
    149      -1.6990      2.00000
    150      -1.6979      2.00000
    151      -1.6744      2.00000
    152      -1.6494      2.00000
    153      -1.6487      2.00000
    154      -1.6419      2.00000
    155      -1.5920      2.00000
    156      -1.5748      2.00000
    157      -1.5735      2.00000
    158      -1.5515      2.00000
    159      -1.5366      2.00000
    160      -1.5331      2.00000
    161      -1.5318      2.00000
    162      -1.4909      2.00000
    163      -1.4895      2.00000
    164      -1.4881      2.00000
    165      -1.4791      2.00000
    166      -1.4725      2.00000
    167      -1.4658      2.00000
    168      -1.4638      2.00000
    169      -1.4432      2.00000
    170      -1.4265      2.00000
    171      -1.4113      2.00000
    172      -1.4112      2.00000
    173      -1.3908      2.00000
    174      -1.3897      2.00000
    175      -1.3851      2.00000
    176      -1.3850      2.00000
    177      -1.3687      2.00000
    178      -1.3364      2.00000
    179      -1.3362      2.00000
    180      -1.2980      2.00000
    181      -1.2972      2.00000
    182      -1.2905      2.00000
    183      -1.2570      2.00000
    184      -1.2383      2.00000
    185      -1.2361      2.00000
    186      -1.1333      2.00000
    187      -1.1323      2.00000
    188      -1.1191      2.00000
    189      -1.0981      2.00000
    190      -1.0974      2.00000
    191      -1.0791      2.00000
    192      -0.2402      2.00000
    193      -0.0936      2.00000
    194       0.0027      2.00000
    195       0.0819      2.00000
    196       0.1498      2.00000
    197       0.1518      2.00000
    198       0.2072      2.00000
    199       0.7689      0.00000
    200       0.8439      0.00000
    201       0.9992      0.00000
    202       1.0088      0.00000
    203       1.1306      0.00000
    204       1.7392      0.00000
    205       2.2844      0.00000
    206       2.3258      0.00000
    207       2.3274      0.00000
    208       2.5250      0.00000
    209       2.5259      0.00000
    210       3.3197      0.00000
    211       3.5286      0.00000
    212       3.5397      0.00000
    213       3.5414      0.00000
    214       3.5642      0.00000
    215       3.5790      0.00000
    216       3.7708      0.00000
    217       4.1380      0.00000
    218       4.8665      0.00000
    219       5.0634      0.00000
    220       5.1856      0.00000
    221       5.2852      0.00000
    222       5.3849      0.00000
    223       5.3864      0.00000
    224       5.4062      0.00000
    225       5.4287      0.00000
    226       5.4704      0.00000
    227       5.5346      0.00000
    228       5.5348      0.00000
    229       5.5734      0.00000
    230       5.8172      0.00000
    231       6.1855      0.00000
    232       6.5003      0.00000
    233       6.5190      0.00000
    234       6.8642      0.00000
    235       6.9294      0.00000
    236       6.9804      0.00000
    237       7.0015      0.00000
    238       7.0199      0.00000
    239       7.0655      0.00000
    240       7.0666      0.00000
    241       7.1234      0.00000
    242       7.1279      0.00000
    243       7.1412      0.00000
    244       7.2844      0.00000
    245       7.3559      0.00000
    246       7.3868      0.00000
    247       7.4165      0.00000
    248       7.4181      0.00000
    249       7.5023      0.00000
    250       7.5502      0.00000
    251       7.8814      0.00000
    252       7.9573      0.00000

 k-point     2 :       0.1250   -0.0000    0.0000
  band No.  band energies     occupation 
      1      -8.0263      2.00000
      2      -7.2158      2.00000
      3      -6.6911      2.00000
      4      -6.1453      2.00000
      5      -5.9712      2.00000
      6      -5.9679      2.00000
      7      -5.8801      2.00000
      8      -5.7936      2.00000
      9      -5.7723      2.00000
     10      -5.7648      2.00000
     11      -5.6965      2.00000
     12      -5.4672      2.00000
     13      -5.4161      2.00000
     14      -5.4117      2.00000
     15      -5.4030      2.00000
     16      -5.3512      2.00000
     17      -5.3489      2.00000
     18      -5.0912      2.00000
     19      -5.0413      2.00000
     20      -5.0397      2.00000
     21      -5.0068      2.00000
     22      -4.9801      2.00000
     23      -4.9770      2.00000
     24      -4.9282      2.00000
     25      -4.8766      2.00000
     26      -4.8732      2.00000
     27      -4.8118      2.00000
     28      -4.8034      2.00000
     29      -4.7685      2.00000
     30      -4.7668      2.00000
     31      -4.7639      2.00000
     32      -4.7343      2.00000
     33      -4.7308      2.00000
     34      -4.6815      2.00000
     35      -4.6550      2.00000
     36      -4.6512      2.00000
     37      -4.5605      2.00000
     38      -4.5540      2.00000
     39      -4.5412      2.00000
     40      -4.5259      2.00000
     41      -4.4981      2.00000
     42      -4.2499      2.00000
     43      -4.2469      2.00000
     44      -4.2217      2.00000
     45      -4.1970      2.00000
     46      -4.1826      2.00000
     47      -4.1657      2.00000
     48      -4.1471      2.00000
     49      -4.0777      2.00000
     50      -4.0604      2.00000
     51      -4.0219      2.00000
     52      -3.9924      2.00000
     53      -3.9800      2.00000
     54      -3.9666      2.00000
     55      -3.9383      2.00000
     56      -3.6704      2.00000
     57      -3.6544      2.00000
     58      -3.6369      2.00000
     59      -3.6340      2.00000
     60      -3.6181      2.00000
     61      -3.6018      2.00000
     62      -3.5980      2.00000
[...]
  0.000   0.000   0.000   0.000   0.000   0.000   0.000   0.000   0.000   0.000   0.000   0.000   0.000   0.000   0.000   0.000
  0.000   0.000   0.000   0.000   0.000   0.000   0.000   0.000   0.000   0.000   0.000   0.000   0.000   0.000   0.000   0.000
  0.000   0.000   0.000   0.000   0.000   0.000   0.000   0.000   0.000   0.000   1.000   0.000   0.000   0.000   0.000   0.000
  0.000   0.000   0.000   0.000   0.000   0.000   0.000   0.000   0.000   0.000   0.000   0.000   0.000   0.000   0.000   0.000
  0.000   0.000   0.000   0.000   0.000   0.000   0.000   0.000   0.000   0.000   0.000   0.000   0.000   0.000   0.000   0.000
  0.000   0.000   0.000   0.000   0.000   0.000   0.000   0.000   0.000   0.000   0.000   0.000   0.000   0.000   0.000   0.000
  0.000   0.000   0.000   0.000   0.000   0.000   0.000   0.000   0.000   0.000   0.000   0.000   0.000   0.000   0.000   0.000
  0.000   0.000   0.000   0.000   0.000   0.000   0.000   0.000   0.000   0.000   0.000   0.000   0.000   0.000   0.000   0.000
  0.000   0.000   0.000   0.000   0.000   0.000   0.000   0.000   0.000   0.000   0.000   0.000   0.000   0.000   0.000   0.000
  0.000   0.000   0.000   0.000   0.000   0.000   0.000   0.000   0.000   0.000   0.000   0.000   0.000   0.000   0.000   0.000


------------------------ aborting loop because EDIFF is reached ----------------------------------------





 total charge

# of ion       s       p       d       tot
------------------------------------------
    1        0.547   0.237   8.768   9.552
    2        0.542   0.241   8.764   9.548
    3        0.542   0.241   8.764   9.548
    4        0.541   0.241   8.766   9.548
    5        0.547   0.241   8.760   9.548
    6        0.541   0.241   8.766   9.548
    7        0.541   0.241   8.766   9.549
    8        0.541   0.241   8.766   9.549
    9        0.543   0.239   8.768   9.551
   10        0.525   0.307   8.767   9.599
   11        0.522   0.305   8.780   9.608
   12        0.525   0.307   8.767   9.599
   13        0.522   0.306   8.780   9.607
   14        0.522   0.306   8.780   9.607
   15        0.516   0.309   8.774   9.599
   16        0.526   0.307   8.766   9.599
   17        0.516   0.308   8.775   9.599
   18        0.516   0.308   8.775   9.599
   19        0.518   0.298   8.771   9.587
   20        0.562   0.332   8.735   9.630
   21        0.562   0.332   8.735   9.630
   22        0.508   0.307   8.776   9.591
   23        0.564   0.332   8.736   9.632
   24        0.508   0.307   8.776   9.591
   25        0.519   0.297   8.771   9.587
   26        0.519   0.297   8.771   9.587
   27        0.510   0.306   8.777   9.594
   28        0.538   0.227   8.758   9.523
   29        0.577   0.241   8.741   9.559
   30        0.577   0.241   8.741   9.559
   31        0.573   0.244   8.740   9.557
   32        0.573   0.244   8.740   9.557
   33        0.576   0.241   8.742   9.559
   34        0.576   0.241   8.742   9.559
   35        0.539   0.225   8.760   9.524
   36        0.395   0.512   3.311   4.219
   37        0.563   0.030   0.000   0.593
   38        0.563   0.030   0.000   0.593
--------------------------------------------------
tot         20.400  10.213 309.976 340.589
 
    CHARGE:  cpu time    0.6504: real time    0.6504
    FORLOC:  cpu time    0.0102: real time    0.0102
    FORNL :  cpu time    3.0111: real time    3.0112
    STRESS:  cpu time    9.0379: real time    9.0382
    FORCOR:  cpu time    0.0542: real time    0.0543
    FORHAR:  cpu time    0.0167: real time    0.0167
    OFIELD:  cpu time    0.0002: real time    0.0002

  FORCE on cell =-STRESS in cart. coord.  units (eV):
  Direction    XX          YY          ZZ          XY          YZ          ZX
  --------------------------------------------------------------------------------------
  Alpha Z   990.53443   990.53443   990.53443
  Ewald  117291.27488117273.18841************    -0.00033    -0.01523    -0.00016
  Hartree125815.06743125812.71907************     0.00000     0.01149    -0.00004
  E(xc)   -1754.38140 -1754.38728 -1762.74978     0.00000     0.04795    -0.00000
  Local  ************************255437.78405     0.00183     0.24866     0.00012
  n-local   -55.72372   -54.58214   -27.06842     4.79795    -0.11035     0.11510
  augment  2383.32830  2382.61536  2404.29069    -0.00134    -0.10225     0.00002
  Kinetic  5389.77179  5394.59073  5454.67568     1.32875    -0.17650     0.09294
  Fock        0.00000     0.00000     0.00000     0.00000     0.00000     0.00000
  -------------------------------------------------------------------------------------
  Total     -22.72009   -22.59169     2.43520    -0.00000    -0.09623    -0.00000
  in kB     -24.37885   -24.24108     2.61299    -0.00000    -0.10325    -0.00000
  external pressure =      -15.34 kB  Pullay stress =        0.00 kB


 VOLUME and BASIS-vectors are now :
 -----------------------------------------------------------------------------
  energy-cutoff  :      500.00
  volume of cell :     1493.16
      direct lattice vectors                 reciprocal lattice vectors
     8.813512802  0.000000000  0.000000000     0.113462137 -0.065507406  0.000000000
     4.406756909  7.632725690  0.000000000     0.000000000  0.131014796  0.000000000
     0.000000000  0.000000000 22.196203232     0.000000000  0.000000000  0.045052750

  length of vectors
     8.813512802  8.813512802 22.196203232     0.131014796  0.131014796  0.045052750


 FORCES acting on ions
    electron-ion (+dipol)            ewald-force                    non-local-force                 convergence-correction
 -----------------------------------------------------------------------------------------------
   -.198E-04 -.504E-01 0.246E+04   0.518E-04 -.165E-02 -.246E+04   -.197E-09 -.295E-02 -.749E+00   -.238E-03 0.479E-01 -.186E+00
   0.202E+00 -.347E+00 0.246E+04   -.231E+00 0.201E+00 -.246E+04   0.682E-01 0.120E+00 -.284E+00   -.408E-01 0.188E-01 -.180E+00
   -.202E+00 -.347E+00 0.246E+04   0.231E+00 0.201E+00 -.246E+04   -.682E-01 0.120E+00 -.284E+00   0.411E-01 0.207E-01 -.179E+00
   -.185E+00 0.348E+00 0.246E+04   0.597E-01 -.301E+00 -.246E+04   0.135E+00 -.231E-01 -.329E+00   -.148E-01 -.237E-01 -.213E+00
   0.746E-05 -.268E-01 0.246E+04   0.951E-04 -.103E-03 -.246E+04   0.542E-09 0.815E-02 0.105E+00   0.428E-02 0.132E-01 -.114E+00
   0.185E+00 0.348E+00 0.246E+04   -.598E-01 -.301E+00 -.246E+04   -.135E+00 -.231E-01 -.329E+00   0.132E-01 -.228E-01 -.212E+00
   -.379E+00 0.274E-01 0.246E+04   0.290E+00 0.100E+00 -.246E+04   0.908E-01 -.109E+00 -.293E+00   -.851E-02 -.874E-02 -.206E+00
   0.379E+00 0.274E-01 0.246E+04   -.291E+00 0.100E+00 -.246E+04   -.908E-01 -.109E+00 -.293E+00   0.103E-01 -.984E-02 -.206E+00
   0.197E-04 0.252E-01 0.246E+04   0.166E-03 0.178E-02 -.246E+04   0.540E-09 0.811E-02 -.461E+00   -.458E-02 -.345E-01 -.170E+00
   0.104E+01 0.591E+00 0.791E+03   -.668E+00 -.399E+00 -.791E+03   -.308E+00 -.180E+00 -.641E+00   -.617E-01 -.304E-02 0.342E-01
   0.146E-04 -.156E+00 0.792E+03   0.148E-03 0.162E+00 -.792E+03   0.572E-09 0.859E-02 -.115E+00   0.399E-02 -.492E-01 0.822E-01
   -.104E+01 0.591E+00 0.791E+03   0.668E+00 -.399E+00 -.791E+03   0.308E+00 -.180E+00 -.641E+00   0.602E-01 -.189E-02 0.341E-01
   -.126E+00 0.121E+00 0.792E+03   0.154E+00 -.795E-01 -.792E+03   0.408E-01 -.131E-01 -.114E+00   -.911E-01 -.341E-02 0.846E-01
   0.126E+00 0.121E+00 0.792E+03   -.154E+00 -.795E-01 -.792E+03   -.408E-01 -.131E-01 -.114E+00   0.986E-01 -.425E-02 0.838E-01
   0.323E-04 0.354E+01 0.796E+03   0.235E-03 -.363E+01 -.795E+03   0.132E-08 0.198E-01 -.550E+00   -.228E-02 0.606E-02 0.466E-01
   -.209E-04 -.128E+01 0.791E+03   0.162E-03 0.776E+00 -.791E+03   0.258E-07 0.387E+00 -.591E+00   -.724E-04 0.106E+00 0.436E-01
   0.304E+01 -.177E+01 0.796E+03   -.315E+01 0.182E+01 -.795E+03   0.299E-01 -.853E-02 -.520E+00   0.248E-01 -.196E-01 0.624E-01
   -.304E+01 -.177E+01 0.796E+03   0.315E+01 0.182E+01 -.795E+03   -.299E-01 -.853E-02 -.520E+00   -.244E-01 -.176E-01 0.630E-01
   -.421E-04 -.362E+01 -.889E+03   0.562E-04 0.364E+01 0.888E+03   0.107E-08 0.161E-01 0.607E+00   -.530E-03 -.191E-01 0.392E+00
   -.890E+01 -.508E+01 -.892E+03   0.998E+01 0.566E+01 0.893E+03   -.115E+01 -.620E+00 -.122E+01   0.604E-01 0.349E-01 0.620E+00
   0.890E+01 -.508E+01 -.892E+03   -.998E+01 0.566E+01 0.893E+03   0.115E+01 -.620E+00 -.122E+01   -.596E-01 0.352E-01 0.620E+00
   -.124E+02 0.708E+01 -.880E+03   0.120E+02 -.686E+01 0.879E+03   0.353E+00 -.212E+00 0.544E+00   0.251E-01 -.191E-01 0.397E+00
   -.763E-05 0.101E+02 -.892E+03   0.138E-03 -.114E+02 0.893E+03   0.913E-07 0.137E+01 -.120E+01   0.254E-03 -.883E-01 0.602E+00
   0.124E+02 0.708E+01 -.880E+03   -.120E+02 -.686E+01 0.879E+03   -.353E+00 -.212E+00 0.544E+00   -.253E-01 -.193E-01 0.397E+00
   0.324E+01 0.187E+01 -.889E+03   -.320E+01 -.188E+01 0.888E+03   -.377E-01 -.869E-02 0.595E+00   -.177E-01 0.207E-01 0.390E+00
   -.324E+01 0.187E+01 -.889E+03   0.320E+01 -.188E+01 0.888E+03   0.377E-01 -.869E-02 0.595E+00   0.181E-01 0.202E-01 0.390E+00
   0.993E-05 -.144E+02 -.880E+03   0.198E-03 0.139E+02 0.880E+03   0.286E-07 0.430E+00 0.547E+00   -.362E-03 0.376E-01 0.396E+00
   -.104E-04 0.292E+00 -.245E+04   0.278E-04 -.314E+00 0.245E+04   -.321E-09 -.483E-02 0.617E+00   0.123E-04 0.104E-01 0.275E+00
   0.115E+01 -.594E+01 -.247E+04   -.181E+00 0.731E+01 0.247E+04   -.112E+01 -.168E+01 -.139E+00   0.111E+00 0.235E+00 0.177E+00
   -.115E+01 -.594E+01 -.247E+04   0.181E+00 0.731E+01 0.247E+04   0.112E+01 -.168E+01 -.139E+00   -.111E+00 0.236E+00 0.177E+00
   -.364E+01 0.443E+01 -.246E+04   0.527E+01 -.439E+01 0.246E+04   -.196E+01 -.492E-01 -.678E-01   0.302E+00 0.150E-01 0.202E+00
   0.364E+01 0.443E+01 -.246E+04   -.527E+01 -.439E+01 0.246E+04   0.196E+01 -.492E-01 -.678E-01   -.302E+00 0.158E-01 0.202E+00
   -.656E+01 0.148E+01 -.247E+04   0.736E+01 -.289E+01 0.247E+04   -.978E+00 0.174E+01 -.117E+00   0.125E+00 -.254E+00 0.211E+00
   0.656E+01 0.148E+01 -.247E+04   -.736E+01 -.289E+01 0.247E+04   0.978E+00 0.174E+01 -.117E+00   -.123E+00 -.254E+00 0.211E+00
   0.339E-04 -.329E+00 -.246E+04   0.143E-03 0.333E+00 0.246E+04   0.260E-08 0.391E-01 0.637E+00   -.436E-02 -.258E-01 0.245E+00
   -.259E-04 -.135E-02 -.104E+04   0.527E-04 -.410E-01 0.104E+04   -.138E-08 -.208E-01 0.591E+00   0.727E-03 0.255E-02 0.152E+00
   0.144E+02 0.154E-01 -.261E+03   -.183E+02 -.198E-01 0.262E+03   0.389E+01 0.807E-03 -.101E+01   0.168E-02 0.565E-02 -.523E-01
   -.144E+02 0.154E-01 -.261E+03   0.183E+02 -.198E-01 0.262E+03   -.389E+01 0.807E-03 -.101E+01   -.160E-02 0.566E-02 -.524E-01
 -----------------------------------------------------------------------------------------------
   -.806E-03 -.169E+00 0.334E+01   -.107E-13 0.268E-12 -.841E-11   0.106E-07 0.159E+00 -.774E+01   0.638E-02 0.921E-02 0.482E+01
 
 
 POSITION                                       TOTAL-FORCE (eV/Angst)
 -----------------------------------------------------------------------------------
      0.00000      0.00000      5.28038        -0.000000     -0.007059     -0.162486
      2.93784      0.00000      5.28038        -0.001296     -0.006268     -0.063076
      5.87568      0.00000      5.28038         0.001296     -0.006268     -0.063076
      1.46892      2.54424      5.28038        -0.004505      0.001076     -0.065917
      4.40676      2.54424      5.28038        -0.000000     -0.005544     -0.100515
      7.34459      2.54424      5.28038         0.004505      0.001076     -0.065917
      2.93784      5.08848      5.28038        -0.007101      0.009758     -0.058263
      5.87568      5.08848      5.28038         0.007101      0.009758     -0.058263
      8.81351      5.08848      5.28038         0.000000      0.000627     -0.085048
      1.46892      0.84808      7.67911         0.007625      0.009459      0.110789
      4.40676      0.84808      7.67911        -0.000000     -0.033817      0.040642
      7.34459      0.84808      7.67911        -0.007625      0.009459      0.110789
      2.93784      3.39232      7.67911        -0.025922      0.024487      0.036927
      5.87568      3.39232      7.67911         0.025922      0.024487      0.036927
      8.81351      3.39232      7.67911        -0.000000     -0.062223      0.089226
      4.40676      5.93656      7.67911        -0.000000     -0.009661      0.109025
      7.34459      5.93656      7.67911        -0.051934      0.026091      0.095919
     10.28243      5.93656      7.67911         0.051934      0.026091      0.095919
      8.81351      1.69782     10.07545         0.000000      0.018382      0.043614
      2.94790      1.70197     10.06171        -0.006170     -0.002031     -0.076313
      5.86562      1.70197     10.06171         0.006170     -0.002031     -0.076313
     10.26824      4.24860     10.06503         0.004374     -0.010745      0.011081
      4.40676      4.22879     10.06171         0.000000      0.027218     -0.049786
      7.35878      4.24860     10.06503        -0.004374     -0.010745      0.011081
     11.74991      6.78381     10.07545        -0.010717     -0.003295      0.013516
      5.87712      6.78381     10.07545         0.010717     -0.003295      0.013516
      8.81351      6.76826     10.06503         0.000000      0.023654      0.009421
      0.00000      0.00000     12.47281        -0.000000     -0.016004     -0.020709
      2.99055      0.08121     12.52138        -0.036479     -0.078768     -0.033294
      5.82296      0.08121     12.52138         0.036479     -0.078768     -0.033294
      1.56560      2.54929     12.52138        -0.031557      0.010463      0.007980
      7.24791      2.54929     12.52138         0.031557      0.010463      0.007980
      2.98181      5.00223     12.52138        -0.055875      0.071696     -0.056582
      5.83171      5.00223     12.52138         0.055875      0.071696     -0.056582
      8.81351      5.08848     12.50032         0.000000      0.017080     -0.004644
      4.40676      2.54424     12.20130        -0.000000     -0.060574      0.301896
      3.99191      2.54607     13.98550         0.006318      0.002036     -0.008085
      4.82160      2.54607     13.98550        -0.006318      0.002036     -0.008085
 -----------------------------------------------------------------------------------
    total drift:                                0.005577     -0.000750      0.418508


--------------------------------------------------------------------------------------------------------



  FREE ENERGIE OF THE ION-ELECTRON SYSTEM (eV)
  ---------------------------------------------------
  free  energy   TOTEN  =      -121.67811305 eV

  energy  without entropy=     -121.67811305  energy(sigma->0) =     -121.67811305
 


--------------------------------------------------------------------------------------------------------


    POTLOK:  cpu time    0.0539: real time    0.0539


--------------------------------------------------------------------------------------------------------


 stress matrix after NEB project (eV)
    -22.72009     -0.00000     -0.00000
     -0.00000    -22.59169     -0.09623
     -0.00000     -0.09623      2.43520
  FORCES: max atom, RMS     0.010461    0.002400
  FORCE total and by dimension    0.014793    0.008085
  Stress total and by dimension   32.133089   22.720086
     LOOP+:  cpu time  161.8752: real time  161.8873
 -----------------------------------------------------------------------------
|                                                                             |
|           W    W    AA    RRRRR   N    N  II  N    N   GGGG   !!!           |
|           W    W   A  A   R    R  NN   N  II  NN   N  G    G  !!!           |
|           W    W  A    A  R    R  N N  N  II  N N  N  G       !!!           |
|           W WW W  AAAAAA  RRRRR   N  N N  II  N  N N  G  GGG   !            |
|           WW  WW  A    A  R   R   N   NN  II  N   NN  G    G                |
|           W    W  A    A  R    R  N    N  II  N    N   GGGG   !!!           |
|                                                                             |
|     Tetrahedron method does not include variations of the Fermi             |
|     occupations, so forces and stress will be inaccurate. We suggest        |
|     using a different smearing scheme ISMEAR = 1 or 2 for metals in         |
|     relaxations.                                                            |
|                                                                             |
 -----------------------------------------------------------------------------

    4ORBIT:  cpu time    0.0000: real time    0.0000



 total charge

# of ion       s       p       d       tot
------------------------------------------
    1        0.547   0.237   8.768   9.552
    2        0.542   0.241   8.764   9.548
    3        0.542   0.241   8.764   9.548
    4        0.541   0.241   8.766   9.548
    5        0.547   0.241   8.760   9.548
    6        0.541   0.241   8.766   9.548
    7        0.541   0.241   8.766   9.549
    8        0.541   0.241   8.766   9.549
    9        0.543   0.239   8.768   9.551
   10        0.525   0.307   8.767   9.599
   11        0.522   0.305   8.780   9.608
   12        0.525   0.307   8.767   9.599
   13        0.522   0.306   8.780   9.607
   14        0.522   0.306   8.780   9.607
   15        0.516   0.309   8.774   9.599
   16        0.526   0.307   8.766   9.599
   17        0.516   0.308   8.775   9.599
   18        0.516   0.308   8.775   9.599
   19        0.518   0.298   8.771   9.587
   20        0.562   0.332   8.735   9.630
   21        0.562   0.332   8.735   9.630
   22        0.508   0.307   8.776   9.591
   23        0.564   0.332   8.736   9.632
   24        0.508   0.307   8.776   9.591
   25        0.519   0.297   8.771   9.587
   26        0.519   0.297   8.771   9.587
   27        0.510   0.306   8.777   9.594
   28        0.538   0.227   8.758   9.523
   29        0.577   0.241   8.741   9.559
   30        0.577   0.241   8.741   9.559
   31        0.573   0.244   8.740   9.557
   32        0.573   0.244   8.740   9.557
   33        0.576   0.241   8.742   9.559
   34        0.576   0.241   8.742   9.559
   35        0.539   0.225   8.760   9.524
   36        0.395   0.512   3.311   4.219
   37        0.563   0.030   0.000   0.593
   38        0.563   0.030   0.000   0.593
--------------------------------------------------
tot         20.400  10.213 309.976 340.589
 
 BZINTS: Fermi energy:    0.748277;  392.000000 electrons
         Band energy:-0.116972E+04;  BLOECHL correction:   -0.031210

 total amount of memory used by VASP MPI-rank0   183879. kBytes
=======================================================================

   base      :      30000. kBytes
   nonlr-proj:      14318. kBytes
   fftplans  :       4330. kBytes
   grid      :      17879. kBytes
   one-center:        590. kBytes
   wavefun   :     116762. kBytes
 
  
  
 General timing and accounting informations for this job:
 ========================================================
  
                  Total CPU time used (sec):      175.589
                            User time (sec):      169.456
                          System time (sec):        6.132
                         Elapsed time (sec):      176.338
  
                   Maximum memory used (kb):      458632.
                   Average memory used (kb):          N/A
  
                          Minor page faults:        98875
                          Major page faults:            0
                 Voluntary context switches:         6880
