 vasp.6.2.0 18Jan21 (build Jun 12 2021 23:27:24) complex                        
  
 executed on             LinuxIFC date 2022.05.28  02:55:08
 running on   28 total cores
 distrk:  each k-point on   28 cores,    1 groups
 distr:  one band on NCORE=   1 cores,   28 groups


--------------------------------------------------------------------------------------------------------


 INCAR:
   ISMEAR = -5
   SIGMA = 0.1
   ISPIN = 1
   EDIFF = 1.d-5
   EDIFFG = -0.01
   NSW = 0
   NELM = 150
   ENCUT = 500
   ISIF = 2
   IBRION = 2
   LREAL = Auto
   ALGO = Fast
   ICHARG = 11
   LORBIT = 10
   LCHARG = .F.
   LWAVE = .F.

 POTCAR:    PAW_PBE Cu 22Jun2005                  
 POTCAR:    PAW_PBE Pt 04Feb2005                  
 POTCAR:    PAW_PBE O 08Apr2002                   
 POTCAR:    PAW_PBE H 15Jun2001                   
 -----------------------------------------------------------------------------
|                                                                             |
|           W    W    AA    RRRRR   N    N  II  N    N   GGGG   !!!           |
|           W    W   A  A   R    R  NN   N  II  NN   N  G    G  !!!           |
|           W    W  A    A  R    R  N N  N  II  N N  N  G       !!!           |
|           W WW W  AAAAAA  RRRRR   N  N N  II  N  N N  G  GGG   !            |
|           WW  WW  A    A  R   R   N   NN  II  N   NN  G    G                |
|           W    W  A    A  R    R  N    N  II  N    N   GGGG   !!!           |
|                                                                             |
|     For optimal performance we recommend to set                             |
|       NCORE = 2 up to number-of-cores-per-socket                            |
|     NCORE specifies how many cores store one orbital (NPAR=cpu/NCORE).      |
|     This setting can greatly improve the performance of VASP for DFT.       |
|     The default, NCORE=1 might be grossly inefficient on modern             |
|     multi-core architectures or massively parallel machines. Do your        |
|     own testing! More info at https://www.vasp.at/wiki/index.php/NCORE      |
|     Unfortunately you need to use the default for GW and RPA                |
|     calculations (for HF NCORE is supported but not extensively tested      |
|     yet).                                                                   |
|                                                                             |
 -----------------------------------------------------------------------------

 POTCAR:    PAW_PBE Cu 22Jun2005                  
   VRHFIN =Cu: d10 p1                                                                               
   LEXCH  = PE                                                                                      
   EATOM  =  1390.9808 eV,  102.2342 Ry                                                             
                                                                                                    
   TITEL  = PAW_PBE Cu 22Jun2005                                                                    
   LULTRA =        F    use ultrasoft PP ?                                                          
   IUNSCR =        1    unscreen: 0-lin 1-nonlin 2-no                                               
   RPACOR =    2.000    partial core radius                                                         
   POMASS =   63.546; ZVAL   =   11.000    mass and valenz                                          
   RCORE  =    2.300    outmost cutoff radius                                                       
   RWIGS  =    2.200; RWIGS  =    1.164    wigner-seitz radius (au A)                               
   ENMAX  =  295.446; ENMIN  =  221.585 eV                                                          
   ICORE  =        3    local potential                                                             
   LCOR   =        T    correct aug charges                                                         
   LPAW   =        T    paw PP                                                                      
   EAUG   =  586.980                                                                                
   DEXC   =    0.000                                                                                
   RMAX   =    2.344    core radius for proj-oper                                                   
   RAUG   =    1.300    factor for augmentation sphere                                              
   RDEP   =    2.302    radius for radial grids                                                     
   RDEPT  =    1.771    core radius for aug-charge                                                  
                                                                                                    
   Atomic configuration                                                                             
    9 entries                                                                                       
     n  l   j            E        occ.                                                              
     1  0  0.50     -8850.2468   2.0000                                                             
     2  0  0.50     -1062.3498   2.0000                                                             
     2  1  1.50      -916.8226   6.0000                                                             
     3  0  0.50      -114.6929   2.0000                                                             
     3  1  1.50       -72.1325   6.0000                                                             
     3  2  2.50        -5.0394  10.0000                                                             
     4  0  0.50        -4.6097   1.0000                                                             
     4  1  0.50        -4.0817   0.0000                                                             
     4  3  2.50        -1.3606   0.0000                                                             
   Description                                                                                      
     l       E           TYP  RCUT    TYP  RCUT                                                     
     2     -5.0393973     23  2.200                                                                 
     2     10.8846608     23  2.200                                                                 
     0     -4.6097109     23  2.200                                                                 
     0      8.2520465     23  2.200                                                                 
     1     -2.7211652     23  2.200                                                                 
     1     21.7055443     23  2.200                                                                 
     3      2.7211652     23  2.300                                                                 
  local pseudopotential read in
  partial core-charges read in
  partial kinetic energy density read in
  atomic valenz-charges read in
  non local Contribution for L=           2  read in
    real space projection operators read in
  non local Contribution for L=           2  read in
    real space projection operators read in
  non local Contribution for L=           0  read in
    real space projection operators read in
  non local Contribution for L=           0  read in
    real space projection operators read in
  non local Contribution for L=           1  read in
    real space projection operators read in
  non local Contribution for L=           1  read in
    real space projection operators read in
    PAW grid and wavefunctions read in
 
   number of l-projection  operators is LMAX  =           6
   number of lm-projection operators is LMMAX =          18
 
 POTCAR:    PAW_PBE Pt 04Feb2005                  
   VRHFIN =Pt: s1d9                                                                                 
   LEXCH  = PE                                                                                      
   EATOM  =   729.1176 eV,   53.5886 Ry                                                             
                                                                                                    
   TITEL  = PAW_PBE Pt 04Feb2005                                                                    
   LULTRA =        F    use ultrasoft PP ?                                                          
   IUNSCR =        1    unscreen: 0-lin 1-nonlin 2-no                                               
   RPACOR =    2.330    partial core radius                                                         
   POMASS =  195.080; ZVAL   =   10.000    mass and valenz                                          
   RCORE  =    2.600    outmost cutoff radius                                                       
   RWIGS  =    2.750; RWIGS  =    1.455    wigner-seitz radius (au A)                               
   ENMAX  =  230.283; ENMIN  =  172.712 eV                                                          
   ICORE  =        3    local potential                                                             
   LCOR   =        T    correct aug charges                                                         
   LPAW   =        T    paw PP                                                                      
   EAUG   =  358.966                                                                                
   DEXC   =    0.000                                                                                
   RMAX   =    2.658    core radius for proj-oper                                                   
   RAUG   =    1.300    factor for augmentation sphere                                              
   RDEP   =    2.761    radius for radial grids                                                     
   RDEPT  =    2.203    core radius for aug-charge                                                  
                                                                                                    
   Atomic configuration                                                                             
   16 entries                                                                                       
     n  l   j            E        occ.                                                              
     1  0  0.50    -78401.1885   2.0000                                                             
     2  0  0.50    -13770.7750   2.0000                                                             
     2  1  1.50    -11931.0468   6.0000                                                             
     3  0  0.50     -3234.7234   2.0000                                                             
     3  1  1.50     -2699.2216   6.0000                                                             
     3  2  2.50     -2119.5714  10.0000                                                             
     4  0  0.50      -695.1528   2.0000                                                             
     4  1  1.50      -519.6034   6.0000                                                             
     4  2  2.50      -306.6786  10.0000                                                             
     4  3  3.50       -70.1041  14.0000                                                             
     5  0  0.50      -101.7747   2.0000                                                             
     5  1  1.50       -55.9873   6.0000                                                             
     5  2  2.50        -6.1423   9.0000                                                             
     6  0  0.50        -5.6573   1.0000                                                             
     6  1  1.50        -6.8029   0.0000                                                             
     5  3  2.50        -1.3606   0.0000                                                             
   Description                                                                                      
     l       E           TYP  RCUT    TYP  RCUT                                                     
     2     -6.1423404     23  2.500                                                                 
     2     -7.5029230     23  2.500                                                                 
     0     -5.6573207     23  2.500                                                                 
     0      0.7416693     23  2.500                                                                 
     1     -2.7211652     23  2.600                                                                 
     1     20.4087390     23  2.600                                                                 
     3     -1.3605826     23  2.500                                                                 
  local pseudopotential read in
  partial core-charges read in
  partial kinetic energy density read in
  atomic valenz-charges read in
  non local Contribution for L=           2  read in
    real space projection operators read in
  non local Contribution for L=           2  read in
    real space projection operators read in
  non local Contribution for L=           0  read in
    real space projection operators read in
  non local Contribution for L=           0  read in
    real space projection operators read in
  non local Contribution for L=           1  read in
    real space projection operators read in
  non local Contribution for L=           1  read in
    real space projection operators read in
    PAW grid and wavefunctions read in
 
   number of l-projection  operators is LMAX  =           6
   number of lm-projection operators is LMMAX =          18
 
 POTCAR:    PAW_PBE O 08Apr2002                   
   VRHFIN =O: s2p4                                                                                  
   LEXCH  = PE                                                                                      
   EATOM  =   432.3788 eV,   31.7789 Ry                                                             
                                                                                                    
   TITEL  = PAW_PBE O 08Apr2002                                                                     
   LULTRA =        F    use ultrasoft PP ?                                                          
   IUNSCR =        1    unscreen: 0-lin 1-nonlin 2-no                                               
   RPACOR =    1.200    partial core radius                                                         
   POMASS =   16.000; ZVAL   =    6.000    mass and valenz                                          
   RCORE  =    1.520    outmost cutoff radius                                                       
   RWIGS  =    1.550; RWIGS  =    0.820    wigner-seitz radius (au A)                               
   ENMAX  =  400.000; ENMIN  =  300.000 eV                                                          
   ICORE  =        2    local potential                                                             
   LCOR   =        T    correct aug charges                                                         
   LPAW   =        T    paw PP                                                                      
   EAUG   =  605.392                                                                                
   DEXC   =    0.000                                                                                
   RMAX   =    1.553    core radius for proj-oper                                                   
   RAUG   =    1.300    factor for augmentation sphere                                              
   RDEP   =    1.550    radius for radial grids                                                     
   RDEPT  =    1.329    core radius for aug-charge                                                  
                                                                                                    
   Atomic configuration                                                                             
    4 entries                                                                                       
     n  l   j            E        occ.                                                              
     1  0  0.50      -514.6923   2.0000                                                             
     2  0  0.50       -23.9615   2.0000                                                             
     2  1  0.50        -9.0305   4.0000                                                             
     3  2  1.50        -9.5241   0.0000                                                             
   Description                                                                                      
     l       E           TYP  RCUT    TYP  RCUT                                                     
     0    -23.9615318     23  1.200                                                                 
     0     -9.5240782     23  1.200                                                                 
     1     -9.0304911     23  1.520                                                                 
     1      8.1634956     23  1.520                                                                 
     2     -9.5240782      7  1.500                                                                 
  local pseudopotential read in
  partial core-charges read in
  partial kinetic energy density read in
  kinetic energy density of atom read in
  atomic valenz-charges read in
  non local Contribution for L=           0  read in
    real space projection operators read in
  non local Contribution for L=           0  read in
    real space projection operators read in
  non local Contribution for L=           1  read in
    real space projection operators read in
  non local Contribution for L=           1  read in
    real space projection operators read in
    PAW grid and wavefunctions read in
 
   number of l-projection  operators is LMAX  =           4
   number of lm-projection operators is LMMAX =           8
 
 POTCAR:    PAW_PBE H 15Jun2001                   
   VRHFIN =H: ultrasoft test                                                                        
   LEXCH  = PE                                                                                      
   EATOM  =    12.4884 eV,    0.9179 Ry                                                             
                                                                                                    
   TITEL  = PAW_PBE H 15Jun2001                                                                     
   LULTRA =        F    use ultrasoft PP ?                                                          
   IUNSCR =        0    unscreen: 0-lin 1-nonlin 2-no                                               
   RPACOR =    0.000    partial core radius                                                         
   POMASS =    1.000; ZVAL   =    1.000    mass and valenz                                          
   RCORE  =    1.100    outmost cutoff radius                                                       
   RWIGS  =    0.700; RWIGS  =    0.370    wigner-seitz radius (au A)                               
   ENMAX  =  250.000; ENMIN  =  200.000 eV                                                          
   RCLOC  =    0.701    cutoff for local pot                                                        
   LCOR   =        T    correct aug charges                                                         
   LPAW   =        T    paw PP                                                                      
   EAUG   =  400.000                                                                                
   RMAX   =    1.123    core radius for proj-oper                                                   
   RAUG   =    1.200    factor for augmentation sphere                                              
   RDEP   =    1.112    radius for radial grids                                                     
   RDEPT  =    0.926    core radius for aug-charge                                                  
                                                                                                    
   Atomic configuration                                                                             
    2 entries                                                                                       
     n  l   j            E        occ.                                                              
     1  0  0.50        -6.4927   1.0000                                                             
     2  1  0.50        -3.4015   0.0000                                                             
   Description                                                                                      
     l       E           TYP  RCUT    TYP  RCUT                                                     
     0     -6.4927494     23  1.100                                                                 
     0      6.8029130     23  1.100                                                                 
     1     -4.0817478     23  1.100                                                                 
  local pseudopotential read in
  atomic valenz-charges read in
  non local Contribution for L=           0  read in
    real space projection operators read in
  non local Contribution for L=           0  read in
    real space projection operators read in
  non local Contribution for L=           1  read in
    real space projection operators read in
    PAW grid and wavefunctions read in
 
   number of l-projection  operators is LMAX  =           3
   number of lm-projection operators is LMMAX =           5
 
 Optimization of the real space projectors (new method)

 maximal supplied QI-value         = 16.25
 optimisation between [QCUT,QGAM] = [ 11.38, 22.75] = [ 36.24,144.96] Ry 
 Optimized for a Real-space Cutoff    1.52 Angstroem

   l    n(q)    QCUT    max X(q) W(low)/X(q) W(high)/X(q)  e(spline) 
   2      9    11.376     4.610    0.21E-03    0.10E-03    0.26E-06
   2      9    11.376     8.522    0.33E-03    0.16E-03    0.37E-06
   0     10    11.376    51.609    0.62E-04    0.20E-04    0.13E-06
   0     10    11.376    27.747    0.54E-04    0.20E-04    0.13E-06
   1     10    11.376    20.408    0.13E-04    0.99E-04    0.19E-06
   1     10    11.376    13.425    0.12E-04    0.87E-04    0.17E-06
 Optimization of the real space projectors (new method)

 maximal supplied QI-value         = 14.36
 optimisation between [QCUT,QGAM] = [ 11.35, 22.84] = [ 36.05,146.02] Ry 
 Optimized for a Real-space Cutoff    1.47 Angstroem

   l    n(q)    QCUT    max X(q) W(low)/X(q) W(high)/X(q)  e(spline) 
   2      9    11.346    66.195    0.31E-03    0.12E-04    0.29E-06
   2      9    11.346    64.643    0.32E-03    0.12E-04    0.29E-06
   0     10    11.346    95.520    0.90E-04    0.16E-04    0.19E-06
   0     10    11.346    63.403    0.87E-04    0.15E-04    0.19E-06
   1     10    11.346    19.961    0.17E-03    0.21E-03    0.11E-06
   1     10    11.346    13.289    0.14E-03    0.18E-03    0.89E-07
 Optimization of the real space projectors (new method)

 maximal supplied QI-value         = 24.76
 optimisation between [QCUT,QGAM] = [ 11.39, 22.77] = [ 36.31,145.25] Ry 
 Optimized for a Real-space Cutoff    1.00 Angstroem

   l    n(q)    QCUT    max X(q) W(low)/X(q) W(high)/X(q)  e(spline) 
   0      7    11.387    20.381    0.39E-03    0.13E-02    0.15E-06
   0      7    11.387    15.268    0.42E-03    0.14E-02    0.17E-06
   1      6    11.387     5.964    0.41E-03    0.11E-02    0.17E-06
   1      6    11.387     5.382    0.39E-03    0.87E-03    0.15E-06
 Optimization of the real space projectors (new method)

 maximal supplied QI-value         = 34.20
 optimisation between [QCUT,QGAM] = [ 11.29, 22.57] = [ 35.68,142.71] Ry 
 Optimized for a Real-space Cutoff    1.16 Angstroem

   l    n(q)    QCUT    max X(q) W(low)/X(q) W(high)/X(q)  e(spline) 
   0      8    11.287    19.460    0.40E-03    0.73E-03    0.16E-06
   0      8    11.287    12.209    0.38E-03    0.70E-03    0.15E-06
   1      7    11.287     4.655    0.22E-03    0.25E-04    0.22E-06
  PAW_PBE Cu 22Jun2005                  :
 energy of atom  1       EATOM=-1390.9808
 kinetic energy error for atom=    0.0043 (will be added to EATOM!!)
  PAW_PBE Pt 04Feb2005                  :
 energy of atom  2       EATOM= -729.1176
 kinetic energy error for atom=    0.0039 (will be added to EATOM!!)
  PAW_PBE O 08Apr2002                   :
 energy of atom  3       EATOM= -432.3788
 kinetic energy error for atom=    0.0224 (will be added to EATOM!!)
  PAW_PBE H 15Jun2001                   :
 energy of atom  4       EATOM=  -12.4884
 kinetic energy error for atom=    0.0020 (will be added to EATOM!!)
 
 
 POSCAR: Cu-Pt-OOH
  positions in direct lattice
  velocities in cartesian coordinates
 exchange correlation table for  LEXCH =        8
   RHO(1)=    0.500       N(1)  =     2000
   RHO(2)=  100.500       N(2)  =     4000

 VTST: version 3.2, (02/03/18)

 CHAIN: initializing optimizer
 
 OPT: Using VASP Conjugate-Gradient optimizer
 CHAIN: Read ICHAIN            0
 
 POSCAR: Cu-Pt-OOH
  positions in direct lattice
  velocities in cartesian coordinates
 


--------------------------------------------------------------------------------------------------------


 ion  position               nearest neighbor table
   1  0.000  0.000  0.212-   7 2.57   3 2.57   4 2.57   2 2.57   6 2.57   8 2.57  12 2.57  10 2.57
                            16 2.57
   2  0.333  0.000  0.212-   8 2.57   9 2.57   5 2.57   1 2.57   3 2.57  11 2.57   4 2.57  10 2.57
                            17 2.57
   3  0.667  0.000  0.212-   1 2.57   7 2.57   6 2.57   9 2.57   2 2.57  12 2.57   5 2.57  18 2.57
                            11 2.57
   4  0.000  0.333  0.212-   5 2.57   6 2.57   1 2.57   7 2.57   2 2.57  13 2.57   9 2.57  10 2.57
                            15 2.57
   5  0.333  0.333  0.212-   4 2.57   2 2.57   7 2.57  13 2.57   8 2.57   6 2.57   3 2.57  11 2.57
                            14 2.57
   6  0.667  0.333  0.212-   4 2.57   9 2.57  15 2.57   3 2.57   1 2.57   8 2.57  14 2.57   5 2.57
                            12 2.57
   7  0.000  0.667  0.212-   1 2.57   3 2.57  16 2.57  18 2.57   4 2.57   5 2.57   8 2.57   9 2.57
                            13 2.57
   8  0.333  0.667  0.212-   9 2.57   2 2.57  17 2.57   6 2.57   1 2.57   7 2.57   5 2.57  14 2.57
                            16 2.57
   9  0.667  0.667  0.212-   8 2.57   6 2.57   2 2.57  17 2.57   3 2.57   7 2.57   4 2.57  15 2.57
                            18 2.57
  10  0.111  0.111  0.294-  20 2.53  26 2.56  19 2.56  11 2.57  12 2.57  13 2.57   1 2.57   2 2.57
                             4 2.57  15 2.57  16 2.57  17 2.57
  11  0.444  0.111  0.294-  20 2.55  21 2.55  27 2.56  10 2.57  13 2.57   2 2.57  17 2.57  14 2.57
                            12 2.57   5 2.57   3 2.57  18 2.57
  12  0.778  0.111  0.294-  21 2.53  19 2.56  25 2.56  15 2.57  10 2.57  14 2.57  18 2.57   3 2.57
                             1 2.57  16 2.57  11 2.57   6 2.57
  13  0.111  0.444  0.294-  23 2.55  20 2.55  22 2.56  16 2.57  18 2.57  10 2.57  11 2.57  14 2.57
                             5 2.57   4 2.57   7 2.57  15 2.57
  14  0.444  0.444  0.294-  21 2.55  23 2.55  24 2.56  15 2.57  17 2.57  12 2.57  16 2.57  13 2.57
                            11 2.57   6 2.57   8 2.57   5 2.57
  15  0.778  0.444  0.294-  19 2.56  24 2.56  22 2.56  14 2.57  17 2.57  12 2.57   6 2.57  18 2.57
                            10 2.57   9 2.57  13 2.57   4 2.57
  16  0.111  0.778  0.294-  23 2.53  25 2.56  26 2.56  18 2.57  13 2.57   7 2.57  14 2.57  17 2.57
                            12 2.57  10 2.57   8 2.57   1 2.57
  17  0.444  0.778  0.294-  26 2.56  27 2.56  24 2.56  14 2.57  15 2.57   8 2.57   9 2.57  11 2.57
                            16 2.57  18 2.57  10 2.57   2 2.57
  18  0.778  0.778  0.294-  25 2.56  22 2.56  27 2.56  16 2.57  13 2.57   7 2.57  15 2.57  12 2.57
                            17 2.57   9 2.57   3 2.57  11 2.57
  19  0.888  0.223  0.376-  28 2.54  32 2.55  31 2.55  21 2.55  20 2.55  15 2.56  12 2.56  10 2.56
                            22 2.56  24 2.56  25 2.58  26 2.58
  20  0.221  0.221  0.376-  10 2.53  11 2.55  13 2.55  26 2.55  19 2.55  27 2.57  22 2.57  29 2.59
                            31 2.59  36 2.60  23 2.60  21 2.60
  21  0.558  0.221  0.376-  12 2.53  14 2.55  11 2.55  19 2.55  25 2.55  24 2.57  27 2.57  32 2.59
                            30 2.59  36 2.60  20 2.60  23 2.60
  22  0.889  0.556  0.376-  35 2.54  18 2.56  15 2.56  13 2.56  19 2.56  25 2.56  24 2.56  27 2.56
                            31 2.57  33 2.57  23 2.57  20 2.57
  23  0.221  0.558  0.376-  16 2.53  13 2.55  14 2.55  25 2.55  26 2.55  22 2.57  24 2.57  33 2.59
                            34 2.59  36 2.60  20 2.60  21 2.60
  24  0.556  0.556  0.376-  35 2.54  15 2.56  17 2.56  14 2.56  19 2.56  26 2.56  22 2.56  27 2.56
                            32 2.57  34 2.57  21 2.57  23 2.57
  25  0.888  0.888  0.376-  28 2.54  33 2.55  30 2.55  21 2.55  23 2.55  18 2.56  16 2.56  12 2.56
                            22 2.56  27 2.56  19 2.58  26 2.58
  26  0.223  0.888  0.376-  28 2.54  29 2.55  34 2.55  20 2.55  23 2.55  17 2.56  10 2.56  16 2.56
                            27 2.56  24 2.56  25 2.58  19 2.58
  27  0.556  0.889  0.376-  35 2.54  17 2.56  18 2.56  11 2.56  26 2.56  25 2.56  24 2.56  22 2.56
                            29 2.57  30 2.57  20 2.57  21 2.57
  28  0.000  0.000  0.458-  25 2.54  19 2.54  26 2.54  33 2.55  30 2.55  31 2.55  29 2.55  32 2.55
                            34 2.55
  29  0.333  0.997  0.459-  34 2.52  26 2.55  28 2.55  35 2.56  27 2.57  31 2.59  20 2.59  36 2.59
                            30 2.59
  30  0.670  0.997  0.459-  33 2.52  25 2.55  28 2.55  35 2.56  27 2.57  32 2.59  21 2.59  36 2.59
                            29 2.59
  31  0.997  0.333  0.459-  38 2.26  32 2.52  19 2.55  28 2.55  35 2.56  22 2.57  29 2.59  20 2.59
                            36 2.59  33 2.59
  32  0.670  0.333  0.459-  31 2.52  19 2.55  28 2.55  35 2.56  24 2.57  30 2.59  21 2.59  36 2.59
                            34 2.59
  33  0.997  0.670  0.459-  30 2.52  25 2.55  28 2.55  35 2.56  22 2.57  34 2.59  23 2.59  36 2.59
                            31 2.59
  34  0.333  0.670  0.459-  29 2.52  26 2.55  28 2.55  35 2.56  24 2.57  33 2.59  23 2.59  36 2.59
                            32 2.59
  35  0.667  0.667  0.458-  24 2.54  27 2.54  22 2.54  34 2.56  32 2.56  29 2.56  30 2.56  33 2.56
                            31 2.56
  36  0.333  0.333  0.459-  37 2.08  31 2.59  29 2.59  33 2.59  34 2.59  32 2.59  30 2.59  23 2.60
                            20 2.60  21 2.60
  37  0.256  0.364  0.538-  38 1.49  36 2.08
  38  0.072  0.347  0.544-  39 0.98  37 1.49  31 2.26
  39  0.129  0.213  0.560-  38 0.98
 
  LATTYP: Found a hexagonal cell.
 ALAT       =     7.6967864036
 C/A-ratio  =     3.2973366172
  
  Lattice vectors:
  
 A1 = (  -3.8483927580,  -6.6656128093,   0.0000000000)
 A2 = (   7.6967864037,   0.0000000000,   0.0000000000)
 A3 = (   0.0000000000,   0.0000000000,  25.3788956434)


Analysis of symmetry for initial positions (statically):
=====================================================================
 Subroutine PRICEL returns:
 Original cell was already a primitive cell.
 

 Routine SETGRP: Setting up the symmetry group for a 
 hexagonal supercell.


 Subroutine GETGRP returns: Found  1 space group operations
 (whereof  1 operations were pure point group operations)
 out of a pool of 24 trial point group operations.


The static configuration has the point symmetry C_1 .


Analysis of symmetry for dynamics (positions and initial velocities):
=====================================================================
 Subroutine PRICEL returns:
 Original cell was already a primitive cell.
 

 Routine SETGRP: Setting up the symmetry group for a 
 hexagonal supercell.


 Subroutine GETGRP returns: Found  1 space group operations
 (whereof  1 operations were pure point group operations)
 out of a pool of 24 trial point group operations.


The dynamic configuration has the point symmetry C_1 .


Analysis of constrained symmetry for selective dynamics:
=====================================================================
 Subroutine PRICEL returns:
 Original cell was already a primitive cell.
 

 Routine SETGRP: Setting up the symmetry group for a 
 hexagonal supercell.


 Subroutine GETGRP returns: Found  1 space group operations
 (whereof  1 operations were pure point group operations)
 out of a pool of 24 trial point group operations.


The constrained configuration has the point symmetry C_1 .


 Subroutine INISYM returns: Found  1 space group operations
 (whereof  1 operations are pure point group operations),
 and found     1 'primitive' translations


----------------------------------------------------------------------------------------

                                     Primitive cell                                     

  volume of cell :    1302.0337

  direct lattice vectors                    reciprocal lattice vectors
     7.696786404  0.000000000  0.000000000     0.129924354 -0.075011849  0.000000000
     3.848392758  6.665612809  0.000000000     0.000000000  0.150023716  0.000000000
     0.000000000  0.000000000 25.378895643     0.000000000  0.000000000  0.039402818

  length of vectors
     7.696786404  7.696786404 25.378895643     0.150023716  0.150023716  0.039402818

  position of ions in fractional coordinates (direct lattice)
     0.000000000  0.000000000  0.211654586
     0.333333343  0.000000000  0.211654586
     0.666666687  0.000000000  0.211654586
     1.000000000  0.333333343  0.211654586
     0.333333313  0.333333343  0.211654586
     0.666666687  0.333333343  0.211654586
     1.000000000  0.666666687  0.211654586
     0.333333373  0.666666687  0.211654586
     0.666666627  0.666666687  0.211654586
     0.111111119  0.111111112  0.294195619
     0.444444418  0.111111112  0.294195619
     0.777777791  0.111111112  0.294195619
     0.111111119  0.444444448  0.294195619
     0.444444478  0.444444448  0.294195619
     0.777777731  0.444444448  0.294195619
     0.111111112  0.777777731  0.294195619
     0.444444478  0.777777731  0.294195619
     0.777777851  0.777777731  0.294195619
     0.888472040  0.223055935  0.376410024
     0.220847656  0.220847641  0.375506934
     0.558304748  0.220847641  0.375506934
     0.888517119  0.555741411  0.376330143
     0.220847626  0.558304688  0.375506934
     0.555741471  0.555741411  0.376330143
     0.888472040  0.888472040  0.376410024
     0.223055950  0.888472040  0.376410024
     0.555741411  0.888517119  0.376330143
     0.000000000  0.000000000  0.457701172
     0.333061897  0.997189968  0.458835068
     0.669748166  0.997189968  0.458835068
     0.997189968  0.333061897  0.458835068
     0.669748166  0.333061897  0.458835068
     0.997189968  0.669748166  0.458835068
     0.333061927  0.669748166  0.458835068
     0.666666627  0.666666687  0.457663711
     0.333333313  0.333333343  0.459046960
     0.256148499  0.363651153  0.538340659
     0.072104536  0.346729244  0.544312992
     0.128997113  0.213116842  0.560471539

  ion indices of the primitive-cell ions
   primitive index   ion index
                 1           1
                 2           2
                 3           3
                 4           4
                 5           5
                 6           6
                 7           7
                 8           8
                 9           9
                10          10
                11          11
                12          12
                13          13
                14          14
                15          15
                16          16
                17          17
                18          18
                19          19
                20          20
                21          21
                22          22
                23          23
                24          24
                25          25
                26          26
                27          27
                28          28
                29          29
                30          30
                31          31
                32          32
                33          33
                34          34
                35          35
                36          36
                37          37
                38          38
                39          39

----------------------------------------------------------------------------------------

 
 
 KPOINTS: Automatic mesh                          

Automatic generation of k-mesh.
 Grid dimensions read from file:
 generate k-points for:    8    8    1

 Generating k-lattice:

  Cartesian coordinates                     Fractional coordinates (reciprocal lattice)
     0.016240544 -0.009376481  0.000000000     0.125000000 -0.000000000  0.000000000
     0.000000000  0.018752964  0.000000000     0.000000000  0.125000000  0.000000000
     0.000000000  0.000000000  0.039402818     0.000000000  0.000000000  1.000000000

  Length of vectors
     0.018752964  0.018752964  0.039402818

  Shift w.r.t. Gamma in fractional coordinates (k-lattice)
     0.000000000  0.000000000  0.000000000

 TETIRR: Found    192 inequivalent tetrahedra from      384
 
 Subroutine IBZKPT returns following result:
 ===========================================
 
 Found     34 irreducible k-points:
 
 Following reciprocal coordinates:
            Coordinates               Weight
  0.000000  0.000000  0.000000      1.000000
  0.125000  0.000000  0.000000      2.000000
  0.125000  0.125000  0.000000      2.000000
  0.000000  0.125000  0.000000      2.000000
  0.250000  0.000000  0.000000      2.000000
  0.250000  0.250000  0.000000      2.000000
  0.000000  0.250000  0.000000      2.000000
  0.375000  0.000000  0.000000      2.000000
  0.375000  0.375000  0.000000      2.000000
  0.000000  0.375000  0.000000      2.000000
  0.500000  0.000000  0.000000      1.000000
  0.500000  0.500000  0.000000      1.000000
  0.000000  0.500000  0.000000      1.000000
  0.250000  0.125000  0.000000      2.000000
  0.125000  0.250000  0.000000      2.000000
 -0.125000  0.125000  0.000000      2.000000
  0.375000  0.125000  0.000000      2.000000
  0.250000  0.375000  0.000000      2.000000
 -0.125000  0.250000  0.000000      2.000000
  0.250000 -0.125000  0.000000      2.000000
 -0.125000 -0.375000  0.000000      2.000000
 -0.375000 -0.250000  0.000000      2.000000
  0.500000  0.125000  0.000000      2.000000
  0.375000  0.500000  0.000000      2.000000
 -0.125000  0.375000  0.000000      2.000000
  0.375000 -0.125000  0.000000      2.000000
 -0.125000  0.500000  0.000000      2.000000
  0.500000 -0.375000  0.000000      2.000000
  0.500000  0.250000  0.000000      2.000000
  0.250000  0.500000  0.000000      2.000000
 -0.250000  0.250000  0.000000      2.000000
 -0.375000  0.250000  0.000000      2.000000
  0.375000 -0.375000  0.000000      2.000000
 -0.250000  0.375000  0.000000      2.000000
 
 Following cartesian coordinates:
            Coordinates               Weight
  0.000000  0.000000  0.000000      1.000000
  0.016241 -0.009376  0.000000      2.000000
  0.016241  0.009376  0.000000      2.000000
  0.000000  0.018753  0.000000      2.000000
  0.032481 -0.018753  0.000000      2.000000
  0.032481  0.018753  0.000000      2.000000
  0.000000  0.037506  0.000000      2.000000
  0.048722 -0.028129  0.000000      2.000000
  0.048722  0.028129  0.000000      2.000000
  0.000000  0.056259  0.000000      2.000000
  0.064962 -0.037506  0.000000      1.000000
  0.064962  0.037506  0.000000      1.000000
  0.000000  0.075012  0.000000      1.000000
  0.032481  0.000000  0.000000      2.000000
  0.016241  0.028129  0.000000      2.000000
 -0.016241  0.028129  0.000000      2.000000
  0.048722 -0.009376  0.000000      2.000000
  0.032481  0.037506  0.000000      2.000000
 -0.016241  0.046882  0.000000      2.000000
  0.032481 -0.037506  0.000000      2.000000
 -0.016241 -0.046882  0.000000      2.000000
 -0.048722 -0.009376  0.000000      2.000000
  0.064962 -0.018753  0.000000      2.000000
  0.048722  0.046882  0.000000      2.000000
 -0.016241  0.065635  0.000000      2.000000
  0.048722 -0.046882  0.000000      2.000000
 -0.016241  0.084388  0.000000      2.000000
  0.064962 -0.093765  0.000000      2.000000
  0.064962  0.000000  0.000000      2.000000
  0.032481  0.056259  0.000000      2.000000
 -0.032481  0.056259  0.000000      2.000000
 -0.048722  0.065635  0.000000      2.000000
  0.048722 -0.084388  0.000000      2.000000
 -0.032481  0.075012  0.000000      2.000000
 


--------------------------------------------------------------------------------------------------------




 Dimension of arrays:
   k-points           NKPTS =     34   k-points in BZ     NKDIM =     34   number of bands    NBANDS=    252
   number of dos      NEDOS =    301   number of ions     NIONS =     39
   non local maximal  LDIM  =      6   non local SUM 2l+1 LMDIM =     18
   total plane-waves  NPLWV = 246960
   max r-space proj   IRMAX =   2832   max aug-charges    IRDMAX=  11686
   dimension x,y,z NGX =    42 NGY =   42 NGZ =  140
   dimension x,y,z NGXF=    84 NGYF=   84 NGZF=  280
   support grid    NGXF=    84 NGYF=   84 NGZF=  280
   ions per type =              35   1   2   1
   NGX,Y,Z   is equivalent  to a cutoff of   9.07,  9.07,  9.17 a.u.
   NGXF,Y,Z  is equivalent  to a cutoff of  18.14, 18.14, 18.34 a.u.

 SYSTEM =  unknown system                          
 POSCAR =  Cu-Pt-OOH                               

 Startparameter for this run:
   NWRITE =      2    write-flag & timer
   PREC   = normal    normal or accurate (medium, high low for compatibility)
   ISTART =      0    job   : 0-new  1-cont  2-samecut
   ICHARG =     11    charge: 1-file 2-atom 10-const
   ISPIN  =      1    spin polarized calculation?
   LNONCOLLINEAR =      F non collinear calculations
   LSORBIT =      F    spin-orbit coupling
   INIWAV =      1    electr: 0-lowe 1-rand  2-diag
   LASPH  =      F    aspherical Exc in radial PAW
   METAGGA=      F    non-selfconsistent MetaGGA calc.

 Electronic Relaxation 1
   ENCUT  =  500.0 eV  36.75 Ry    6.06 a.u.  14.03 14.03 46.27*2*pi/ulx,y,z
   ENINI  =  500.0     initial cutoff
   ENAUG  =  605.4 eV  augmentation charge cutoff
   NELM   =    150;   NELMIN=  2; NELMDL= -5     # of ELM steps 
   EDIFF  = 0.1E-04   stopping-criterion for ELM
   LREAL  =      T    real-space projection
   NLSPLINE    = F    spline interpolate recip. space projectors
   LCOMPAT=      F    compatible to vasp.4.4
   GGA_COMPAT  = T    GGA compatible to vasp.4.4-vasp.4.6
   LMAXPAW     = -100 max onsite density
   LMAXMIX     =    2 max onsite mixed and CHGCAR
   VOSKOWN=      0    Vosko Wilk Nusair interpolation
   ROPT   =   -0.00050  -0.00050  -0.00050  -0.00050
 Ionic relaxation
   EDIFFG = -.1E-01   stopping-criterion for IOM
   NSW    =      0    number of steps for IOM
   NBLOCK =      1;   KBLOCK =      1    inner block; outer block 
   IBRION =     -1    ionic relax: 0-MD 1-quasi-New 2-CG
   NFREE  =      1    steps in history (QN), initial steepest desc. (CG)
   ISIF   =      2    stress and relaxation
   IWAVPR =     10    prediction:  0-non 1-charg 2-wave 3-comb
   ISYM   =      2    0-nonsym 1-usesym 2-fastsym
   LCORR  =      T    Harris-Foulkes like correction to forces

   POTIM  = 0.5000    time-step for ionic-motion
   TEIN   =    0.0    initial temperature
   TEBEG  =    0.0;   TEEND  =   0.0 temperature during run
   SMASS  =  -3.00    Nose mass-parameter (am)
   estimated Nose-frequenzy (Omega)   =  0.10E-29 period in steps = 0.13E+47 mass=  -0.135E-26a.u.
   SCALEE = 1.0000    scale energy and forces
   NPACO  =    256;   APACO  = 16.0  distance and # of slots for P.C.
   PSTRESS=    0.0 pullay stress

  Mass of Ions in am
   POMASS =  63.55195.08 16.00  1.00
  Ionic Valenz
   ZVAL   =  11.00 10.00  6.00  1.00
  Atomic Wigner-Seitz radii
   RWIGS  =  -1.00 -1.00 -1.00 -1.00
  virtual crystal weights 
   VCA    =   1.00  1.00  1.00  1.00
   NELECT =     408.0000    total number of electrons
   NUPDOWN=      -1.0000    fix difference up-down

 DOS related values:
   EMIN   =  10.00;   EMAX   =-10.00  energy-range for DOS
   EFERMI =   0.00
   ISMEAR =    -5;   SIGMA  =   0.10  broadening in eV -4-tet -1-fermi 0-gaus

 Electronic relaxation 2 (details)
   IALGO  =     68    algorithm
   LDIAG  =      T    sub-space diagonalisation (order eigenvalues)
   LSUBROT=      F    optimize rotation matrix (better conditioning)
   TURBO    =      0    0=normal 1=particle mesh
   IRESTART =      0    0=no restart 2=restart with 2 vectors
   NREBOOT  =      0    no. of reboots
   NMIN     =      0    reboot dimension
   EREF     =   0.00    reference energy to select bands
   IMIX   =      4    mixing-type and parameters
     AMIX     =   0.40;   BMIX     =  1.00
     AMIX_MAG =   1.60;   BMIX_MAG =  1.00
     AMIN     =   0.10
     WC   =   100.;   INIMIX=   1;  MIXPRE=   1;  MAXMIX= -45

 Intra band minimization:
   WEIMIN = 0.0000     energy-eigenvalue tresh-hold
   EBREAK =  0.99E-08  absolut break condition
   DEPER  =   0.30     relativ break condition  

   TIME   =   0.40     timestep for ELM

  volume/ion in A,a.u.               =      33.39       225.30
  Fermi-wavevector in a.u.,A,eV,Ry     =   1.111956  2.101292 16.822861  1.236445
  Thomas-Fermi vector in A             =   2.248525
 
 Write flags
   LWAVE        =      F    write WAVECAR
   LDOWNSAMPLE  =      F    k-point downsampling of WAVECAR
   LCHARG       =      F    write CHGCAR
   LVTOT        =      F    write LOCPOT, total local potential
   LVHAR        =      F    write LOCPOT, Hartree potential only
   LELF         =      F    write electronic localiz. function (ELF)
   LORBIT       =     10    0 simple, 1 ext, 2 COOP (PROOUT), +10 PAW based schemes


 Dipole corrections
   LMONO  =      F    monopole corrections only (constant potential shift)
   LDIPOL =      F    correct potential (dipole corrections)
   IDIPOL =      0    1-x, 2-y, 3-z, 4-all directions 
   EPSILON=  1.0000000 bulk dielectric constant

 Exchange correlation treatment:
   GGA     =    --    GGA type
   LEXCH   =     8    internal setting for exchange type
   VOSKOWN=      0    Vosko Wilk Nusair interpolation
   LHFCALC =     F    Hartree Fock is set to
   LHFONE  =     F    Hartree Fock one center treatment
   AEXX    =    0.0000 exact exchange contribution

 Linear response parameters
   LEPSILON=     F    determine dielectric tensor
   LRPA    =     F    only Hartree local field effects (RPA)
   LNABLA  =     F    use nabla operator in PAW spheres
   LVEL    =     F    velocity operator in full k-point grid
   LINTERFAST=   F  fast interpolation
   KINTER  =     0    interpolate to denser k-point grid
   CSHIFT  =0.1000    complex shift for real part using Kramers Kronig
   OMEGAMAX=  -1.0    maximum frequency
   DEG_THRESHOLD= 0.2000000E-02 threshold for treating states as degnerate
   RTIME   =   -0.100 relaxation time in fs
  (WPLASMAI=    0.000 imaginary part of plasma frequency in eV, 0.658/RTIME)
   DFIELD  = 0.0000000 0.0000000 0.0000000 field for delta impulse in time
 
 Orbital magnetization related:
   ORBITALMAG=     F  switch on orbital magnetization
   LCHIMAG   =     F  perturbation theory with respect to B field
   DQ        =  0.001000  dq finite difference perturbation B field
   LLRAUG    =     F  two centre corrections for induced B field



--------------------------------------------------------------------------------------------------------


 Static calculation
 charge density and potential remain constant during run
 non-spin polarized calculation
 RMM-DIIS sequential band-by-band and
  variant of blocked Davidson during initial phase
 perform sub-space diagonalisation
    before iterative eigenvector-optimisation
 no mixing
 using additional bands           48
 real space projection scheme for non local part
 use partial core corrections
 calculate Harris-corrections to forces 
   (improved forces if not selfconsistent)
 use gradient corrections 
 WARNING: stress and forces are not correct
  (second derivative of E(xc) not defined)
 use of overlap-Matrix (Vanderbilt PP)
 Fermi weights with tetrahedron method with Bloechl corrections


--------------------------------------------------------------------------------------------------------


  energy-cutoff  :      500.00
  volume of cell :     1302.03
      direct lattice vectors                 reciprocal lattice vectors
     7.696786404  0.000000000  0.000000000     0.129924354 -0.075011849  0.000000000
     3.848392758  6.665612809  0.000000000     0.000000000  0.150023716  0.000000000
     0.000000000  0.000000000 25.378895643     0.000000000  0.000000000  0.039402818

  length of vectors
     7.696786404  7.696786404 25.378895643     0.150023716  0.150023716  0.039402818


 
 k-points in units of 2pi/SCALE and weight: Automatic mesh                          
   0.00000000  0.00000000  0.00000000       0.016
   0.01624054 -0.00937648  0.00000000       0.031
   0.01624054  0.00937648  0.00000000       0.031
   0.00000000  0.01875296  0.00000000       0.031
   0.03248109 -0.01875296  0.00000000       0.031
   0.03248109  0.01875297  0.00000000       0.031
   0.00000000  0.03750593  0.00000000       0.031
   0.04872163 -0.02812944  0.00000000       0.031
   0.04872163  0.02812945  0.00000000       0.031
   0.00000000  0.05625889  0.00000000       0.031
   0.06496218 -0.03750592  0.00000000       0.016
   0.06496218  0.03750593  0.00000000       0.016
   0.00000000  0.07501186  0.00000000       0.016
   0.03248109  0.00000000  0.00000000       0.031
   0.01624054  0.02812945  0.00000000       0.031
  -0.01624054  0.02812945  0.00000000       0.031
   0.04872163 -0.00937648  0.00000000       0.031
   0.03248109  0.03750593  0.00000000       0.031
  -0.01624054  0.04688241  0.00000000       0.031
   0.03248109 -0.03750593  0.00000000       0.031
  -0.01624054 -0.04688241  0.00000000       0.031
  -0.04872163 -0.00937649  0.00000000       0.031
   0.06496218 -0.01875296  0.00000000       0.031
   0.04872163  0.04688241  0.00000000       0.031
  -0.01624054  0.06563537  0.00000000       0.031
   0.04872163 -0.04688241  0.00000000       0.031
  -0.01624054  0.08438834  0.00000000       0.031
   0.06496218 -0.09376482  0.00000000       0.031
   0.06496218  0.00000000  0.00000000       0.031
   0.03248109  0.05625890  0.00000000       0.031
  -0.03248109  0.05625889  0.00000000       0.031
  -0.04872163  0.06563537  0.00000000       0.031
   0.04872163 -0.08438834  0.00000000       0.031
  -0.03248109  0.07501186  0.00000000       0.031
 
 k-points in reciprocal lattice and weights: Automatic mesh                          
   0.00000000  0.00000000  0.00000000       0.016
   0.12500000  0.00000000  0.00000000       0.031
   0.12500000  0.12500000  0.00000000       0.031
   0.00000000  0.12500000  0.00000000       0.031
   0.25000000  0.00000000  0.00000000       0.031
   0.25000000  0.25000000  0.00000000       0.031
   0.00000000  0.25000000  0.00000000       0.031
   0.37500000  0.00000000  0.00000000       0.031
   0.37500000  0.37500000  0.00000000       0.031
   0.00000000  0.37500000  0.00000000       0.031
   0.50000000  0.00000000  0.00000000       0.016
   0.50000000  0.50000000  0.00000000       0.016
   0.00000000  0.50000000  0.00000000       0.016
   0.25000000  0.12500000  0.00000000       0.031
   0.12500000  0.25000000  0.00000000       0.031
  -0.12500000  0.12500000  0.00000000       0.031
   0.37500000  0.12500000  0.00000000       0.031
   0.25000000  0.37500000  0.00000000       0.031
  -0.12500000  0.25000000  0.00000000       0.031
   0.25000000 -0.12500000  0.00000000       0.031
  -0.12500000 -0.37500000  0.00000000       0.031
  -0.37500000 -0.25000000  0.00000000       0.031
   0.50000000  0.12500000  0.00000000       0.031
   0.37500000  0.50000000  0.00000000       0.031
  -0.12500000  0.37500000  0.00000000       0.031
   0.37500000 -0.12500000  0.00000000       0.031
  -0.12500000  0.50000000  0.00000000       0.031
   0.50000000 -0.37500000  0.00000000       0.031
   0.50000000  0.25000000  0.00000000       0.031
   0.25000000  0.50000000  0.00000000       0.031
  -0.25000000  0.25000000  0.00000000       0.031
  -0.37500000  0.25000000  0.00000000       0.031
   0.37500000 -0.37500000  0.00000000       0.031
  -0.25000000  0.37500000  0.00000000       0.031
 
 position of ions in fractional coordinates (direct lattice) 
   0.00000000  0.00000000  0.21165459
   0.33333334  0.00000000  0.21165459
   0.66666669  0.00000000  0.21165459
   0.00000000  0.33333334  0.21165459
   0.33333331  0.33333334  0.21165459
   0.66666669  0.33333334  0.21165459
   0.00000000  0.66666669  0.21165459
   0.33333337  0.66666669  0.21165459
   0.66666663  0.66666669  0.21165459
   0.11111112  0.11111111  0.29419562
   0.44444442  0.11111111  0.29419562
   0.77777779  0.11111111  0.29419562
   0.11111112  0.44444445  0.29419562
   0.44444448  0.44444445  0.29419562
   0.77777773  0.44444445  0.29419562
   0.11111111  0.77777773  0.29419562
   0.44444448  0.77777773  0.29419562
   0.77777785  0.77777773  0.29419562
   0.88847204  0.22305594  0.37641002
   0.22084766  0.22084764  0.37550693
   0.55830475  0.22084764  0.37550693
   0.88851712  0.55574141  0.37633014
   0.22084763  0.55830469  0.37550693
   0.55574147  0.55574141  0.37633014
   0.88847204  0.88847204  0.37641002
   0.22305595  0.88847204  0.37641002
   0.55574141  0.88851712  0.37633014
   0.00000000  0.00000000  0.45770117
   0.33306190  0.99718997  0.45883507
   0.66974817  0.99718997  0.45883507
   0.99718997  0.33306190  0.45883507
   0.66974817  0.33306190  0.45883507
   0.99718997  0.66974817  0.45883507
   0.33306193  0.66974817  0.45883507
   0.66666663  0.66666669  0.45766371
   0.33333331  0.33333334  0.45904696
   0.25614850  0.36365115  0.53834066
   0.07210454  0.34672924  0.54431299
   0.12899711  0.21311684  0.56047154
 
 position of ions in cartesian coordinates  (Angst):
   0.00000000  0.00000000  5.37155964
   2.56559554  0.00000000  5.37155964
   5.13119109  0.00000000  5.37155964
   1.28279762  2.22187100  5.37155964
   3.84839293  2.22187100  5.37155964
   6.41398872  2.22187100  5.37155964
   2.56559525  4.44374201  5.37155964
   5.13119102  4.44374201  5.37155964
   7.69678588  4.44374201  5.37155964
   1.28279775  0.74062365  7.46635991
   3.84839295  0.74062365  7.46635991
   6.41398873  0.74062365  7.46635991
   2.56559535  2.96249461  7.46635991
   5.13119101  2.96249461  7.46635991
   7.69678586  2.96249461  7.46635991
   3.84839268  5.18436521  7.46635991
   6.41398840  5.18436521  7.46635991
   8.97958418  5.18436521  7.46635991
   7.69678637  1.48680450  9.55287071
   2.54972570  1.47208486  9.52995130
   5.14706086  1.47208486  9.52995130
   8.97743770  3.70435706  9.55084343
   3.84839272  3.72144288  9.52995130
   6.41613461  3.70435706  9.55084343
  10.25756889  5.92221061  9.55287071
   5.13600337  5.92221061  9.55287071
   7.69678578  5.92251109  9.55084343
   0.00000000  0.00000000 11.61595027
   6.40108493  6.64688222 11.64472731
   8.99248722  6.64688222 11.64472731
   8.95691118  2.22006164 11.64472731
   6.43666157  2.22006164 11.64472731
  10.25261218  4.46428195 11.64472731
   5.14096050  4.46428195 11.64472731
   7.69678588  4.44374201 11.61499956
   3.84839293  2.22187100 11.65010488
   3.37099275  2.42395779 13.66249140
   1.88932353  2.31116289 13.81406262
   1.81302053  1.42055435 14.22414869
 


--------------------------------------------------------------------------------------------------------


 k-point   1 :   0.0000 0.0000 0.0000  plane waves:   33027
 k-point   2 :   0.1250 0.0000 0.0000  plane waves:   32999
 k-point   3 :   0.1250 0.1250 0.0000  plane waves:   32999
 k-point   4 :   0.0000 0.1250 0.0000  plane waves:   32999
 k-point   5 :   0.2500 0.0000 0.0000  plane waves:   33054
 k-point   6 :   0.2500 0.2500 0.0000  plane waves:   33054
 k-point   7 :   0.0000 0.2500 0.0000  plane waves:   33054
 k-point   8 :   0.3750 0.0000 0.0000  plane waves:   33036
 k-point   9 :   0.3750 0.3750 0.0000  plane waves:   33036
 k-point  10 :   0.0000 0.3750 0.0000  plane waves:   33036
 k-point  11 :   0.5000 0.0000 0.0000  plane waves:   33066
 k-point  12 :   0.5000 0.5000 0.0000  plane waves:   33066
 k-point  13 :   0.0000 0.5000 0.0000  plane waves:   33066
 k-point  14 :   0.2500 0.1250 0.0000  plane waves:   33058
 k-point  15 :   0.1250 0.2500 0.0000  plane waves:   33058
 k-point  16 :  -0.1250 0.1250 0.0000  plane waves:   33058
 k-point  17 :   0.3750 0.1250 0.0000  plane waves:   33072
 k-point  18 :   0.2500 0.3750 0.0000  plane waves:   33072
 k-point  19 :  -0.1250 0.2500 0.0000  plane waves:   33072
 k-point  20 :   0.2500-0.1250 0.0000  plane waves:   33072
 k-point  21 :  -0.1250-0.3750 0.0000  plane waves:   33072
 k-point  22 :  -0.3750-0.2500 0.0000  plane waves:   33072
 k-point  23 :   0.5000 0.1250 0.0000  plane waves:   33053
 k-point  24 :   0.3750 0.5000 0.0000  plane waves:   33053
 k-point  25 :  -0.1250 0.3750 0.0000  plane waves:   33053
 k-point  26 :   0.3750-0.1250 0.0000  plane waves:   33053
 k-point  27 :  -0.1250 0.5000 0.0000  plane waves:   33053
 k-point  28 :   0.5000-0.3750 0.0000  plane waves:   33053
 k-point  29 :   0.5000 0.2500 0.0000  plane waves:   33084
 k-point  30 :   0.2500 0.5000 0.0000  plane waves:   33084
 k-point  31 :  -0.2500 0.2500 0.0000  plane waves:   33084
 k-point  32 :  -0.3750 0.2500 0.0000  plane waves:   33108
 k-point  33 :   0.3750-0.3750 0.0000  plane waves:   33108
 k-point  34 :  -0.2500 0.3750 0.0000  plane waves:   33108

 maximum and minimum number of plane-waves per node :     33108    32999

 maximum number of plane-waves:     33108
 maximum index in each direction: 
   IXMAX=   14   IYMAX=   14   IZMAX=   46
   IXMIN=  -14   IYMIN=  -14   IZMIN=  -46


 serial   3D FFT for wavefunctions
 parallel 3D FFT for charge:
    minimum data exchange during FFTs selected (reduces bandwidth)


 total amount of memory used by VASP MPI-rank0   231883. kBytes
=======================================================================

   base      :      30000. kBytes
   nonlr-proj:      17403. kBytes
   fftplans  :       3394. kBytes
   grid      :      15015. kBytes
   one-center:        606. kBytes
   wavefun   :     165465. kBytes
 
     INWAV:  cpu time    0.0000: real time    0.0001
 initial charge density was supplied:
 number of electron     407.9999252 magnetization 
 keeping initial charge density in first step


--------------------------------------------------------------------------------------------------------


 Maximum index for non-local projection operator         2735
 Maximum index for augmentation-charges          550 (set IRDMAX)


--------------------------------------------------------------------------------------------------------


 First call to EWALD:  gamma=   0.162
 Maximum number of real-space cells 4x 4x 1
 Maximum number of reciprocal cells 2x 2x 6

    FEWALD:  cpu time    0.0012: real time    0.0013


--------------------------------------- Iteration      1(   1)  ---------------------------------------


    POTLOK:  cpu time    0.0313: real time    0.0317
    SETDIJ:  cpu time    0.0043: real time    0.0044
     EDDAV:  cpu time   22.0252: real time   22.0275
 BZINTS: Fermi energy:   13.064134;  408.000000 electrons
         Band energy: 0.236825E+04;  BLOECHL correction:   -0.048239
       DOS:  cpu time    0.0596: real time    0.0596
    --------------------------------------------
      LOOP:  cpu time   22.1204: real time   22.1232

 eigenvalue-minimisations  : 17136
 total energy-change (2. order) : 0.3683525E+04  (-0.1747364E+05)
 number of electron     407.9999252 magnetization 
 augmentation part      407.9999252 magnetization 

 Free energy of the ion-electron system (eV)
  ---------------------------------------------------
  alpha Z        PSCENC =       774.22901395
  Ewald energy   TEWEN  =    233631.25651657
  -Hartree energ DENC   =   -281254.26942943
  -exchange      EXHF   =         0.00000000
  -V(xc)+E(xc)   XCENC  =      1620.69344375
  PAW double counting   =     47454.21817080   -51201.34289063
  entropy T*S    EENTRO =         0.00000000
  eigenvalues    EBANDS =      2368.24835109
  atomic energy  EATOM  =     50290.49204959
  Solvation  Ediel_sol  =         0.00000000
  ---------------------------------------------------
  free energy    TOTEN  =      3683.52522569 eV

  energy without entropy =     3683.52522569  energy(sigma->0) =     3683.52522569


--------------------------------------------------------------------------------------------------------




--------------------------------------- Iteration      1(   2)  ---------------------------------------


     EDDAV:  cpu time   22.0055: real time   22.0064
 BZINTS: Fermi energy:    2.888494;  408.000000 electrons
         Band energy:-0.944349E+03;  BLOECHL correction:   -0.021672
       DOS:  cpu time    0.0599: real time    0.0599
    --------------------------------------------
      LOOP:  cpu time   22.0655: real time   22.0663

 eigenvalue-minimisations  : 17136
 total energy-change (2. order) :-0.3312597E+04  (-0.3190547E+04)
 number of electron     407.9999252 magnetization 
 augmentation part      407.9999252 magnetization 

 Free energy of the ion-electron system (eV)
  ---------------------------------------------------
  alpha Z        PSCENC =       774.22901395
  Ewald energy   TEWEN  =    233631.25651657
  -Hartree energ DENC   =   -281254.26942943
  -exchange      EXHF   =         0.00000000
  -V(xc)+E(xc)   XCENC  =      1620.69344375
  PAW double counting   =     47454.21817080   -51201.34289063
  entropy T*S    EENTRO =         0.00000000
  eigenvalues    EBANDS =      -944.34888203
  atomic energy  EATOM  =     50290.49204959
  Solvation  Ediel_sol  =         0.00000000
  ---------------------------------------------------
  free energy    TOTEN  =       370.92799257 eV

  energy without entropy =      370.92799257  energy(sigma->0) =      370.92799257


--------------------------------------------------------------------------------------------------------




--------------------------------------- Iteration      1(   3)  ---------------------------------------


     EDDAV:  cpu time   26.3844: real time   26.3853
 BZINTS: Fermi energy:   -0.067149;  408.000000 electrons
         Band energy:-0.141502E+04;  BLOECHL correction:   -0.062215
       DOS:  cpu time    0.0566: real time    0.0566
    --------------------------------------------
      LOOP:  cpu time   26.4410: real time   26.4419

 eigenvalue-minimisations  : 21336
 total energy-change (2. order) :-0.4706664E+03  (-0.4456715E+03)
 number of electron     407.9999252 magnetization 
 augmentation part      407.9999252 magnetization 

 Free energy of the ion-electron system (eV)
  ---------------------------------------------------
  alpha Z        PSCENC =       774.22901395
  Ewald energy   TEWEN  =    233631.25651657
  -Hartree energ DENC   =   -281254.26942943
  -exchange      EXHF   =         0.00000000
  -V(xc)+E(xc)   XCENC  =      1620.69344375
  PAW double counting   =     47454.21817080   -51201.34289063
  entropy T*S    EENTRO =         0.00000000
  eigenvalues    EBANDS =     -1415.01523502
  atomic energy  EATOM  =     50290.49204959
  Solvation  Ediel_sol  =         0.00000000
  ---------------------------------------------------
  free energy    TOTEN  =       -99.73836043 eV

  energy without entropy =      -99.73836043  energy(sigma->0) =      -99.73836043


--------------------------------------------------------------------------------------------------------




--------------------------------------- Iteration      1(   4)  ---------------------------------------


     EDDAV:  cpu time   31.0400: real time   31.0408
 BZINTS: Fermi energy:   -0.558625;  408.000000 electrons
         Band energy:-0.145742E+04;  BLOECHL correction:   -0.051516
       DOS:  cpu time    0.0606: real time    0.0606
    --------------------------------------------
      LOOP:  cpu time   31.1006: real time   31.1015

 eigenvalue-minimisations  : 25984
 total energy-change (2. order) :-0.4240553E+02  (-0.4130947E+02)
 number of electron     407.9999252 magnetization 
 augmentation part      407.9999252 magnetization 

 Free energy of the ion-electron system (eV)
  ---------------------------------------------------
  alpha Z        PSCENC =       774.22901395
  Ewald energy   TEWEN  =    233631.25651657
  -Hartree energ DENC   =   -281254.26942943
  -exchange      EXHF   =         0.00000000
  -V(xc)+E(xc)   XCENC  =      1620.69344375
  PAW double counting   =     47454.21817080   -51201.34289063
  entropy T*S    EENTRO =         0.00000000
  eigenvalues    EBANDS =     -1457.42076398
  atomic energy  EATOM  =     50290.49204959
  Solvation  Ediel_sol  =         0.00000000
  ---------------------------------------------------
  free energy    TOTEN  =      -142.14388939 eV

  energy without entropy =     -142.14388939  energy(sigma->0) =     -142.14388939


--------------------------------------------------------------------------------------------------------




--------------------------------------- Iteration      1(   5)  ---------------------------------------


     EDDAV:  cpu time   26.3295: real time   26.3332
 BZINTS: Fermi energy:   -0.565756;  408.000000 electrons
         Band energy:-0.145846E+04;  BLOECHL correction:   -0.051889
       DOS:  cpu time    0.0595: real time    0.0595
    --------------------------------------------
      LOOP:  cpu time   26.3890: real time   26.3927

 eigenvalue-minimisations  : 21392
 total energy-change (2. order) :-0.1035412E+01  (-0.1030183E+01)
 number of electron     407.9999252 magnetization 
 augmentation part      407.9999252 magnetization 

 Free energy of the ion-electron system (eV)
  ---------------------------------------------------
  alpha Z        PSCENC =       774.22901395
  Ewald energy   TEWEN  =    233631.25651657
  -Hartree energ DENC   =   -281254.26942943
  -exchange      EXHF   =         0.00000000
  -V(xc)+E(xc)   XCENC  =      1620.69344375
  PAW double counting   =     47454.21817080   -51201.34289063
  entropy T*S    EENTRO =         0.00000000
  eigenvalues    EBANDS =     -1458.45617620
  atomic energy  EATOM  =     50290.49204959
  Solvation  Ediel_sol  =         0.00000000
  ---------------------------------------------------
  free energy    TOTEN  =      -143.17930161 eV

  energy without entropy =     -143.17930161  energy(sigma->0) =     -143.17930161


--------------------------------------------------------------------------------------------------------




--------------------------------------- Iteration      1(   6)  ---------------------------------------


    EDDIAG:  cpu time    4.1847: real time    4.1852
  RMM-DIIS:  cpu time   12.6535: real time   12.6539
    ORTHCH:  cpu time    0.8070: real time    0.8070
 BZINTS: Fermi energy:   -0.565785;  408.000000 electrons
         Band energy:-0.145847E+04;  BLOECHL correction:   -0.051888
       DOS:  cpu time    0.0583: real time    0.0583
    --------------------------------------------
      LOOP:  cpu time   17.7034: real time   17.7044

 eigenvalue-minimisations  : 19015
 total energy-change (2. order) :-0.1187964E-01  (-0.1187854E-01)
 number of electron     407.9999252 magnetization 
 augmentation part      407.9999252 magnetization 

 Free energy of the ion-electron system (eV)
  ---------------------------------------------------
  alpha Z        PSCENC =       774.22901395
  Ewald energy   TEWEN  =    233631.25651657
  -Hartree energ DENC   =   -281254.26942943
  -exchange      EXHF   =         0.00000000
  -V(xc)+E(xc)   XCENC  =      1620.69344375
  PAW double counting   =     47454.21817080   -51201.34289063
  entropy T*S    EENTRO =         0.00000000
  eigenvalues    EBANDS =     -1458.46805584
  atomic energy  EATOM  =     50290.49204959
  Solvation  Ediel_sol  =         0.00000000
  ---------------------------------------------------
  free energy    TOTEN  =      -143.19118125 eV

  energy without entropy =     -143.19118125  energy(sigma->0) =     -143.19118125


--------------------------------------------------------------------------------------------------------




--------------------------------------- Iteration      1(   7)  ---------------------------------------


    EDDIAG:  cpu time    4.1886: real time    4.1890
  RMM-DIIS:  cpu time   16.9737: real time   16.9743
    ORTHCH:  cpu time    0.8080: real time    0.8080
 BZINTS: Fermi energy:   -0.565796;  408.000000 electrons
         Band energy:-0.145847E+04;  BLOECHL correction:   -0.051888
       DOS:  cpu time    0.0595: real time    0.0595
    --------------------------------------------
      LOOP:  cpu time   22.0299: real time   22.0309

 eigenvalue-minimisations  : 25445
 total energy-change (2. order) :-0.5184247E-02  (-0.5108314E-02)
 number of electron     407.9999252 magnetization 
 augmentation part      407.9999252 magnetization 

 Free energy of the ion-electron system (eV)
  ---------------------------------------------------
  alpha Z        PSCENC =       774.22901395
  Ewald energy   TEWEN  =    233631.25651657
  -Hartree energ DENC   =   -281254.26942943
  -exchange      EXHF   =         0.00000000
  -V(xc)+E(xc)   XCENC  =      1620.69344375
  PAW double counting   =     47454.21817080   -51201.34289063
  entropy T*S    EENTRO =         0.00000000
  eigenvalues    EBANDS =     -1458.47324009
  atomic energy  EATOM  =     50290.49204959
  Solvation  Ediel_sol  =         0.00000000
  ---------------------------------------------------
  free energy    TOTEN  =      -143.19636549 eV

  energy without entropy =     -143.19636549  energy(sigma->0) =     -143.19636549


--------------------------------------------------------------------------------------------------------




--------------------------------------- Iteration      1(   8)  ---------------------------------------


    EDDIAG:  cpu time    4.1894: real time    4.1896
  RMM-DIIS:  cpu time   15.5595: real time   15.5600
    ORTHCH:  cpu time    0.8070: real time    0.8070
 BZINTS: Fermi energy:   -0.565797;  408.000000 electrons
         Band energy:-0.145847E+04;  BLOECHL correction:   -0.051889
       DOS:  cpu time    0.0594: real time    0.0594
    --------------------------------------------
      LOOP:  cpu time   20.6154: real time   20.6161

 eigenvalue-minimisations  : 23744
 total energy-change (2. order) :-0.3939630E-03  (-0.4161216E-03)
 number of electron     407.9999252 magnetization 
 augmentation part      407.9999252 magnetization 

 Free energy of the ion-electron system (eV)
  ---------------------------------------------------
  alpha Z        PSCENC =       774.22901395
  Ewald energy   TEWEN  =    233631.25651657
  -Hartree energ DENC   =   -281254.26942943
  -exchange      EXHF   =         0.00000000
  -V(xc)+E(xc)   XCENC  =      1620.69344375
  PAW double counting   =     47454.21817080   -51201.34289063
  entropy T*S    EENTRO =         0.00000000
  eigenvalues    EBANDS =     -1458.47363405
  atomic energy  EATOM  =     50290.49204959
  Solvation  Ediel_sol  =         0.00000000
  ---------------------------------------------------
  free energy    TOTEN  =      -143.19675946 eV

  energy without entropy =     -143.19675946  energy(sigma->0) =     -143.19675946


--------------------------------------------------------------------------------------------------------




--------------------------------------- Iteration      1(   9)  ---------------------------------------


    EDDIAG:  cpu time    4.1929: real time    4.1933
  RMM-DIIS:  cpu time   17.0339: real time   17.0345
    ORTHCH:  cpu time    0.8066: real time    0.8066
 BZINTS: Fermi energy:   -0.565797;  408.000000 electrons
         Band energy:-0.145847E+04;  BLOECHL correction:   -0.051889
       DOS:  cpu time    0.0570: real time    0.0570
    --------------------------------------------
      LOOP:  cpu time   22.0905: real time   22.0914

 eigenvalue-minimisations  : 25402
 total energy-change (2. order) :-0.8254842E-04  (-0.8159465E-04)
 number of electron     407.9999252 magnetization 
 augmentation part      407.9999252 magnetization 

 Free energy of the ion-electron system (eV)
  ---------------------------------------------------
  alpha Z        PSCENC =       774.22901395
  Ewald energy   TEWEN  =    233631.25651657
  -Hartree energ DENC   =   -281254.26942943
  -exchange      EXHF   =         0.00000000
  -V(xc)+E(xc)   XCENC  =      1620.69344375
  PAW double counting   =     47454.21817080   -51201.34289063
  entropy T*S    EENTRO =         0.00000000
  eigenvalues    EBANDS =     -1458.47371660
  atomic energy  EATOM  =     50290.49204959
  Solvation  Ediel_sol  =         0.00000000
  ---------------------------------------------------
  free energy    TOTEN  =      -143.19684200 eV

  energy without entropy =     -143.19684200  energy(sigma->0) =     -143.19684200


--------------------------------------------------------------------------------------------------------




--------------------------------------- Iteration      1(  10)  ---------------------------------------


    EDDIAG:  cpu time    4.1875: real time    4.1878
  RMM-DIIS:  cpu time   11.5864: real time   11.5867
    ORTHCH:  cpu time    0.8084: real time    0.8084
 BZINTS: Fermi energy:   -0.565797;  408.000000 electrons
         Band energy:-0.145847E+04;  BLOECHL correction:   -0.051889
       DOS:  cpu time    0.0582: real time    0.0582
    --------------------------------------------
      LOOP:  cpu time   16.6405: real time   16.6413

 eigenvalue-minimisations  : 16030
 total energy-change (2. order) :-0.6890506E-05  (-0.6802463E-05)
 number of electron     407.9999252 magnetization 
 augmentation part      407.9999252 magnetization 

 Free energy of the ion-electron system (eV)
  ---------------------------------------------------
  alpha Z        PSCENC =       774.22901395
  Ewald energy   TEWEN  =    233631.25651657
  -Hartree energ DENC   =   -281254.26942943
  -exchange      EXHF   =         0.00000000
  -V(xc)+E(xc)   XCENC  =      1620.69344375
  PAW double counting   =     47454.21817080   -51201.34289063
  entropy T*S    EENTRO =         0.00000000
  eigenvalues    EBANDS =     -1458.47372349
  atomic energy  EATOM  =     50290.49204959
  Solvation  Ediel_sol  =         0.00000000
  ---------------------------------------------------
  free energy    TOTEN  =      -143.19684890 eV

  energy without entropy =     -143.19684890  energy(sigma->0) =     -143.19684890


--------------------------------------------------------------------------------------------------------




 average (electrostatic) potential at core
  the test charge radii are     0.9430  1.2059  0.7215  0.5201
  (the norm of the test charge is              1.0000)
       1 -71.5246       2 -71.4870       3 -71.4929       4 -71.4928       5 -71.5023
       6 -71.4819       7 -71.4881       8 -71.4881       9 -71.5043      10 -71.7781
      11 -71.7508      12 -71.7929      13 -71.7485      14 -71.7468      15 -71.7637
      16 -71.7827      17 -71.7685      18 -71.7690      19 -71.7604      20 -71.7494
      21 -71.7960      22 -71.7718      23 -71.7596      24 -71.7596      25 -71.7578
      26 -71.7607      27 -71.7511      28 -71.4899      29 -71.4977      30 -71.4861
      31 -71.6140      32 -71.4563      33 -71.4814      34 -71.4847      35 -71.4915
      36 -74.5928      37 -77.0634      38 -78.2066      39 -41.3827
 
 
 
 E-fermi :  -0.5658     XC(G=0):  -5.1269     alpha+bet : -4.5905

 Fermi energy:        -0.5657971459

 k-point     1 :       0.0000    0.0000    0.0000
  band No.  band energies     occupation 
      1     -23.3753      2.00000
      2     -17.4674      2.00000
      3      -9.3861      2.00000
      4      -8.9240      2.00000
      5      -8.2149      2.00000
      6      -7.4347      2.00000
      7      -6.5549      2.00000
      8      -6.4358      2.00000
      9      -6.4067      2.00000
     10      -6.3971      2.00000
     11      -6.3693      2.00000
     12      -6.3564      2.00000
     13      -6.3413      2.00000
     14      -6.2007      2.00000
     15      -5.6980      2.00000
     16      -5.6943      2.00000
     17      -5.6586      2.00000
     18      -5.6173      2.00000
     19      -5.6146      2.00000
     20      -5.5817      2.00000
     21      -5.5692      2.00000
     22      -5.1115      2.00000
     23      -5.1018      2.00000
     24      -4.9421      2.00000
     25      -4.8839      2.00000
     26      -4.8741      2.00000
     27      -4.8698      2.00000
     28      -4.7234      2.00000
     29      -4.6810      2.00000
     30      -4.6334      2.00000
     31      -4.5976      2.00000
     32      -4.5773      2.00000
     33      -4.5721      2.00000
     34      -4.5554      2.00000
     35      -4.5313      2.00000
     36      -4.4897      2.00000
     37      -4.4741      2.00000
     38      -4.4416      2.00000
     39      -4.4043      2.00000
     40      -4.4009      2.00000
     41      -4.3969      2.00000
     42      -4.3863      2.00000
     43      -4.3848      2.00000
     44      -4.3623      2.00000
     45      -4.3430      2.00000
     46      -4.3317      2.00000
     47      -4.3313      2.00000
     48      -4.2524      2.00000
     49      -4.2510      2.00000
     50      -4.2381      2.00000
     51      -4.1951      2.00000
     52      -4.1437      2.00000
     53      -4.1284      2.00000
     54      -4.0957      2.00000
     55      -4.0900      2.00000
     56      -4.0849      2.00000
     57      -4.0522      2.00000
     58      -4.0418      2.00000
     59      -4.0014      2.00000
     60      -3.8832      2.00000
     61      -3.7838      2.00000
[...]
  0.000   0.000   0.000   0.000   0.000   0.000   0.000   0.000   0.000   0.000   1.000   0.000   0.000   0.000   0.000   0.000
  0.000   0.000   0.000   0.000   0.000   0.000   0.000   0.000   0.000   0.000   0.000   0.000   0.000   0.000   0.000   0.000
  0.000   0.000   0.000   0.000   0.000   0.000   0.000   0.000   0.000   0.000   0.000   0.000   0.000   0.000   0.000   0.000
  0.000   0.000   0.000   0.000   0.000   0.000   0.000   0.000   0.000   0.000   0.000   0.000   0.000   0.000   0.000   0.000
  0.000   0.000   0.000   0.000   0.000   0.000   0.000   0.000   0.000   0.000   0.000   0.000   0.000   0.000   0.000   0.000
  0.000   0.000   0.000   0.000   0.000   0.000   0.000   0.000   0.000   0.000   0.000   0.000   0.000   0.000   0.000   0.000
  0.000   0.000   0.000   0.000   0.000   0.000   0.000   0.000   0.000   0.000   0.000   0.000   0.000   0.000   0.000   0.000
  0.000   0.000   0.000   0.000   0.000   0.000   0.000   0.000   0.000   0.000   0.000   0.000   0.000   0.000   0.000   0.000


------------------------ aborting loop because EDIFF is reached ----------------------------------------





 total charge

# of ion       s       p       d       tot
------------------------------------------
    1        0.446   0.286   9.188   9.920
    2        0.449   0.284   9.187   9.921
    3        0.449   0.286   9.185   9.920
    4        0.447   0.285   9.188   9.920
    5        0.447   0.287   9.182   9.916
    6        0.451   0.285   9.185   9.921
    7        0.449   0.285   9.187   9.921
    8        0.449   0.285   9.187   9.920
    9        0.446   0.284   9.190   9.920
   10        0.440   0.375   9.176   9.991
   11        0.444   0.368   9.183   9.995
   12        0.442   0.375   9.174   9.991
   13        0.443   0.369   9.183   9.995
   14        0.444   0.367   9.184   9.996
   15        0.439   0.371   9.181   9.991
   16        0.440   0.375   9.176   9.991
   17        0.437   0.372   9.180   9.989
   18        0.438   0.373   9.180   9.990
   19        0.442   0.378   9.178   9.999
   20        0.439   0.384   9.180  10.003
   21        0.448   0.386   9.171  10.004
   22        0.436   0.377   9.179   9.992
   23        0.442   0.384   9.177  10.003
   24        0.437   0.372   9.184   9.993
   25        0.443   0.375   9.181  10.000
   26        0.443   0.375   9.181   9.999
   27        0.438   0.371   9.186   9.995
   28        0.454   0.292   9.197   9.944
   29        0.450   0.296   9.199   9.945
   30        0.446   0.300   9.190   9.936
   31        0.426   0.328   9.184   9.937
   32        0.449   0.298   9.193   9.940
   33        0.442   0.291   9.203   9.936
   34        0.446   0.297   9.194   9.937
   35        0.448   0.293   9.197   9.939
   36        0.710   0.575   8.050   9.335
   37        1.602   3.217   0.000   4.818
   38        1.588   3.391   0.000   4.979
   39        0.613   0.113   0.000   0.726
--------------------------------------------------
tot         20.046  19.003 329.519 368.568
 
    CHARGE:  cpu time    0.8298: real time    0.8299
    FORLOC:  cpu time    0.0095: real time    0.0096
    FORNL :  cpu time    4.4019: real time    4.4021
    STRESS:  cpu time   13.1494: real time   13.1500
    FORCOR:  cpu time    0.0325: real time    0.0326
    FORHAR:  cpu time    0.0145: real time    0.0146
    OFIELD:  cpu time    0.0002: real time    0.0002

  FORCE on cell =-STRESS in cart. coord.  units (eV):
  Direction    XX          YY          ZZ          XY          YZ          ZX
  --------------------------------------------------------------------------------------
  Alpha Z   774.22901   774.22901   774.22901
  Ewald  259986.00012259705.34866************    48.17684   -33.83315   -19.02642
  Hartree272833.56261272663.97666************    25.44261   -10.56138    18.70918
  E(xc)   -2354.27092 -2354.52797 -2358.43850     0.06463    -0.09956    -0.20031
  Local  ************************545696.53972   -67.59129    35.75155    -8.06446
  n-local  -789.00365  -798.70321  -814.38075     1.33232    -0.00339    -0.35372
  augment  3369.70261  3374.14389  3388.56757    -0.51565     0.37463     1.08571
  Kinetic  3524.79241  3556.86211  3578.13056    -6.66898     8.42947     7.81327
  Fock        0.00000     0.00000     0.00000     0.00000     0.00000     0.00000
  -------------------------------------------------------------------------------------
  Total      -2.12577    -2.25147     1.71884     0.24048     0.05817    -0.03676
  in kB      -2.61580    -2.77048     2.11507     0.29592     0.07157    -0.04523
  external pressure =       -1.09 kB  Pullay stress =        0.00 kB


 VOLUME and BASIS-vectors are now :
 -----------------------------------------------------------------------------
  energy-cutoff  :      500.00
  volume of cell :     1302.03
      direct lattice vectors                 reciprocal lattice vectors
     7.696786404  0.000000000  0.000000000     0.129924354 -0.075011849  0.000000000
     3.848392758  6.665612809  0.000000000     0.000000000  0.150023716  0.000000000
     0.000000000  0.000000000 25.378895643     0.000000000  0.000000000  0.039402818

  length of vectors
     7.696786404  7.696786404 25.378895643     0.150023716  0.150023716  0.039402818


 FORCES acting on ions
    electron-ion (+dipol)            ewald-force                    non-local-force                 convergence-correction
 -----------------------------------------------------------------------------------------------
   -.822E-01 0.148E+00 0.393E+04   -.103E+00 -.704E-01 -.392E+04   0.915E-01 -.523E-01 -.294E+01   0.658E-01 -.204E-01 -.839E+00
   -.100E+00 0.126E+00 0.393E+04   0.177E+00 -.108E+00 -.392E+04   -.257E-01 -.371E-01 -.196E+01   -.313E-01 0.320E-01 -.818E+00
   0.249E+00 -.142E+00 0.393E+04   -.738E-01 0.828E-01 -.392E+04   -.111E+00 0.243E-01 -.181E+01   -.625E-01 0.552E-01 -.752E+00
   -.606E-01 0.275E-01 0.393E+04   0.302E-02 0.497E-01 -.392E+04   -.435E-01 -.331E-01 -.226E+01   0.113E+00 -.433E-01 -.785E+00
   -.349E+00 0.329E-01 0.393E+04   0.218E+00 -.270E-01 -.392E+04   0.165E+00 -.354E-01 -.182E+01   -.215E-01 0.262E-01 -.574E+00
   0.382E+00 -.159E+00 0.393E+04   -.221E+00 0.556E-01 -.392E+04   -.107E+00 0.482E-01 -.174E+01   -.740E-01 0.451E-01 -.722E+00
   -.144E+00 -.127E-01 0.393E+04   0.441E-01 0.529E-01 -.392E+04   0.348E-01 0.352E-01 -.205E+01   0.746E-01 -.799E-01 -.795E+00
   0.138E-02 0.771E-01 0.393E+04   0.688E-01 -.132E+00 -.392E+04   -.539E-01 0.233E-01 -.191E+01   -.246E-01 0.123E-01 -.836E+00
   0.180E+00 -.999E-01 0.393E+04   -.113E+00 0.970E-01 -.392E+04   -.934E-02 0.175E-01 -.249E+01   -.633E-01 -.150E-01 -.848E+00
   0.258E+01 0.221E+01 0.141E+04   -.220E+01 -.218E+01 -.141E+04   -.381E+00 -.136E+00 -.981E+00   0.164E-01 0.111E+00 -.438E+00
   -.119E+01 -.106E+01 0.140E+04   0.117E+01 0.796E+00 -.140E+04   0.209E-02 0.339E-01 -.473E+00   0.631E-02 0.185E+00 -.381E+00
   -.149E+01 0.133E+01 0.141E+04   0.103E+01 -.112E+01 -.141E+04   0.462E+00 -.249E+00 -.110E+01   0.456E-02 0.519E-01 -.401E+00
   -.236E+01 0.401E+00 0.141E+04   0.206E+01 -.193E+00 -.140E+04   0.109E+00 -.631E-01 -.864E+00   0.165E+00 -.123E+00 -.435E+00
   0.846E+00 0.100E+01 0.140E+04   -.575E+00 -.716E+00 -.140E+04   -.121E+00 -.118E+00 -.412E+00   -.110E+00 -.150E+00 -.382E+00
   0.151E+01 -.623E+00 0.141E+04   -.148E+01 0.496E+00 -.141E+04   -.264E-01 0.116E+00 -.857E+00   -.141E-01 0.650E-02 -.489E+00
   -.197E+00 -.269E+01 0.141E+04   0.312E+00 0.227E+01 -.141E+04   -.508E-01 0.436E+00 -.847E+00   -.510E-01 -.379E-01 -.423E+00
   -.118E+00 0.460E+00 0.141E+04   0.161E-01 -.433E+00 -.140E+04   0.739E-01 -.219E-01 -.675E+00   -.538E-02 0.101E-01 -.562E+00
   0.364E+00 -.100E+01 0.141E+04   -.328E+00 0.107E+01 -.140E+04   -.358E-01 -.372E-01 -.732E+00   0.141E-01 -.374E-01 -.512E+00
   0.103E+02 0.433E+01 -.113E+04   -.103E+02 -.427E+01 0.113E+04   0.390E-01 0.223E-01 0.567E+00   -.223E-01 -.656E-01 0.229E+00
   -.300E+02 -.741E+01 -.113E+04   0.301E+02 0.740E+01 0.113E+04   -.209E+00 -.525E-01 0.133E+00   0.206E+00 0.106E+00 0.399E+00
   0.194E+02 -.120E+02 -.115E+04   -.203E+02 0.125E+02 0.115E+04   0.914E+00 -.552E+00 -.652E+00   -.181E+00 0.117E+00 0.431E+00
   -.813E+01 -.123E+01 -.113E+04   0.775E+01 0.141E+01 0.113E+04   0.239E+00 -.121E+00 0.765E+00   0.139E+00 -.847E-01 0.268E+00
   -.848E+01 0.237E+02 -.114E+04   0.859E+01 -.239E+02 0.114E+04   -.109E+00 0.419E+00 0.107E+00   0.219E-01 -.271E+00 0.458E+00
   0.172E+02 0.685E+01 -.115E+04   -.166E+02 -.633E+01 0.115E+04   -.444E+00 -.352E+00 0.101E+01   -.174E+00 -.184E+00 0.271E+00
   0.454E+00 -.469E+01 -.114E+04   -.556E+00 0.470E+01 0.114E+04   0.337E-01 -.871E-01 0.809E+00   0.840E-01 0.558E-01 0.252E+00
   0.107E+01 0.542E+01 -.114E+04   -.101E+01 -.548E+01 0.114E+04   0.266E-01 0.465E-01 0.889E+00   -.930E-01 0.275E-01 0.287E+00
   -.158E+01 -.150E+02 -.115E+04   0.158E+01 0.141E+02 0.115E+04   -.407E-01 0.613E+00 0.103E+01   0.413E-01 0.292E+00 0.262E+00
   0.265E+02 0.215E+02 -.368E+04   -.266E+02 -.216E+02 0.368E+04   0.332E-01 0.629E-01 0.207E+01   0.629E-01 -.162E-01 0.738E+00
   -.272E+02 0.472E+02 -.366E+04   0.269E+02 -.490E+02 0.366E+04   0.247E+00 0.118E+01 0.254E+01   0.521E-01 0.294E+00 0.719E+00
   0.105E+01 -.183E+02 -.371E+04   -.562E+00 0.171E+02 0.370E+04   -.325E+00 0.804E+00 0.187E+01   -.977E-01 0.291E+00 0.593E+00
   0.574E+02 0.609E+01 -.352E+04   -.598E+02 -.599E+01 0.352E+04   0.177E+01 -.346E-01 0.414E+01   0.341E+00 -.103E+00 0.706E+00
   0.469E+02 0.997E+00 -.370E+04   -.460E+02 -.796E+00 0.369E+04   -.466E+00 -.169E+00 0.209E+01   -.314E+00 -.291E-01 0.537E+00
   -.175E+02 -.573E+02 -.365E+04   0.165E+02 0.593E+02 0.364E+04   0.792E+00 -.144E+01 0.351E+01   0.216E+00 -.233E+00 0.691E+00
   -.105E+02 0.129E+02 -.370E+04   0.115E+02 -.119E+02 0.370E+04   -.728E+00 -.606E+00 0.227E+01   -.175E+00 -.221E+00 0.672E+00
   0.289E+02 -.267E+02 -.368E+04   -.289E+02 0.269E+02 0.368E+04   -.103E-01 -.108E+00 0.265E+01   -.504E-01 -.176E-01 0.725E+00
   -.970E+02 0.178E+02 -.316E+04   0.976E+02 -.181E+02 0.316E+04   -.458E+00 0.255E+00 0.170E+01   -.198E-01 0.178E-01 0.452E+00
   -.203E+03 -.244E+02 -.242E+04   0.231E+03 0.304E+02 0.244E+04   -.281E+02 -.602E+01 -.164E+02   -.538E-02 -.346E-01 -.112E+00
   0.176E+03 -.295E+02 -.242E+04   -.198E+03 0.642E+02 0.242E+04   0.226E+02 -.347E+02 0.667E+01   0.169E+00 -.226E-01 0.431E-01
   0.221E+02 0.834E+02 -.424E+03   -.228E+02 -.908E+02 0.427E+03   0.690E+00 0.736E+01 -.348E+01   0.142E-01 0.144E-01 0.277E-02
 -----------------------------------------------------------------------------------------------
   0.334E+01 0.336E+02 0.139E+02   -.114E-12 0.313E-12 -.113E-10   -.355E+01 -.335E+02 -.117E+02   0.216E+00 -.379E-01 -.237E+01
 
 
 POSITION                                       TOTAL-FORCE (eV/Angst)
 -----------------------------------------------------------------------------------
      0.00000      0.00000      5.37156        -0.027755      0.004419      0.075465
      2.56560      0.00000      5.37156         0.019473      0.011876      0.100980
      5.13119      0.00000      5.37156         0.001427      0.019414      0.097905
      1.28280      2.22187      5.37156         0.011692      0.000341      0.093118
      3.84839      2.22187      5.37156         0.012380     -0.003708      0.067971
      6.41399      2.22187      5.37156        -0.020652     -0.010943      0.084073
      2.56560      4.44374      5.37156         0.009162     -0.004989      0.092546
      5.13119      4.44374      5.37156        -0.008248     -0.020224      0.102663
      7.69679      4.44374      5.37156        -0.005295     -0.000879      0.057894
      1.28280      0.74062      7.46636         0.020165      0.002286     -0.101936
      3.84839      0.74062      7.46636        -0.012587     -0.048570     -0.120270
      6.41399      0.74062      7.46636         0.005382      0.011522     -0.075601
      2.56560      2.96249      7.46636        -0.031325      0.021641     -0.155093
      5.13119      2.96249      7.46636         0.039981      0.021167     -0.121842
      7.69679      2.96249      7.46636        -0.013311     -0.004786     -0.085470
      3.84839      5.18437      7.46636         0.013008     -0.021524     -0.074715
      6.41399      5.18437      7.46636        -0.032943      0.014514     -0.035922
      8.97958      5.18437      7.46636         0.014258     -0.003474     -0.053967
      7.69679      1.48680      9.55287         0.065455      0.016442      0.031810
      2.54973      1.47208      9.52995         0.050125      0.039184     -0.087852
      5.14706      1.47208      9.52995        -0.113031      0.066058      0.004995
      8.97744      3.70436      9.55084        -0.002033     -0.027912      0.045890
      3.84839      3.72144      9.52995         0.026040     -0.123288     -0.047988
      6.41613      3.70436      9.55084        -0.016893     -0.019877      0.000294
     10.25757      5.92221      9.55287         0.016017     -0.020597     -0.022353
      5.13600      5.92221      9.55287        -0.004865      0.013141      0.003397
      7.69679      5.92251      9.55084         0.001152      0.020751     -0.025189
      0.00000      0.00000     11.61595        -0.038891     -0.052106     -0.043356
      6.40108      6.64688     11.64473        -0.020733     -0.279693     -0.178765
      8.99249      6.64688     11.64473         0.065834     -0.089351     -0.043645
      8.95691      2.22006     11.64473        -0.254268     -0.033505      0.224413
      6.43666      2.22006     11.64473         0.055143      0.002384     -0.061689
     10.25261      4.46428     11.64473        -0.034964      0.295885     -0.148739
      5.14096      4.46428     11.64473         0.135357      0.130453     -0.050486
      7.69679      4.44374     11.61500        -0.064667      0.071699     -0.032029
      3.84839      2.22187     11.65010         0.126966      0.005579      0.557808
      3.37099      2.42396     13.66249        -0.001840     -0.005364     -0.081524
      1.88932      2.31116     13.81406         0.021665      0.008512      0.002167
      1.81302      1.42055     14.22415        -0.006383     -0.006480      0.005040
 -----------------------------------------------------------------------------------
    total drift:                               -0.001128      0.019058     -0.120438


--------------------------------------------------------------------------------------------------------



  FREE ENERGIE OF THE ION-ELECTRON SYSTEM (eV)
  ---------------------------------------------------
  free  energy   TOTEN  =      -143.19684890 eV

  energy  without entropy=     -143.19684890  energy(sigma->0) =     -143.19684890
 


--------------------------------------------------------------------------------------------------------


    POTLOK:  cpu time    0.0333: real time    0.0333


--------------------------------------------------------------------------------------------------------


 stress matrix after NEB project (eV)
     -2.12577      0.24048     -0.03676
      0.24048     -2.25147      0.05817
     -0.03676      0.05817      1.71884
  FORCES: max atom, RMS     0.081721    0.013712
  FORCE total and by dimension    0.085633    0.081524
  Stress total and by dimension    3.559153    2.251470
     LOOP+:  cpu time  245.7864: real time  245.8051
 -----------------------------------------------------------------------------
|                                                                             |
|           W    W    AA    RRRRR   N    N  II  N    N   GGGG   !!!           |
|           W    W   A  A   R    R  NN   N  II  NN   N  G    G  !!!           |
|           W    W  A    A  R    R  N N  N  II  N N  N  G       !!!           |
|           W WW W  AAAAAA  RRRRR   N  N N  II  N  N N  G  GGG   !            |
|           WW  WW  A    A  R   R   N   NN  II  N   NN  G    G                |
|           W    W  A    A  R    R  N    N  II  N    N   GGGG   !!!           |
|                                                                             |
|     Tetrahedron method does not include variations of the Fermi             |
|     occupations, so forces and stress will be inaccurate. We suggest        |
|     using a different smearing scheme ISMEAR = 1 or 2 for metals in         |
|     relaxations.                                                            |
|                                                                             |
 -----------------------------------------------------------------------------

    4ORBIT:  cpu time    0.0000: real time    0.0000



 total charge

# of ion       s       p       d       tot
------------------------------------------
    1        0.446   0.286   9.188   9.920
    2        0.449   0.284   9.187   9.921
    3        0.449   0.286   9.185   9.920
    4        0.447   0.285   9.188   9.920
    5        0.447   0.287   9.182   9.916
    6        0.451   0.285   9.185   9.921
    7        0.449   0.285   9.187   9.921
    8        0.449   0.285   9.187   9.920
    9        0.446   0.284   9.190   9.920
   10        0.440   0.375   9.176   9.991
   11        0.444   0.368   9.183   9.995
   12        0.442   0.375   9.174   9.991
   13        0.443   0.369   9.183   9.995
   14        0.444   0.367   9.184   9.996
   15        0.439   0.371   9.181   9.991
   16        0.440   0.375   9.176   9.991
   17        0.437   0.372   9.180   9.989
   18        0.438   0.373   9.180   9.990
   19        0.442   0.378   9.178   9.999
   20        0.439   0.384   9.180  10.003
   21        0.448   0.386   9.171  10.004
   22        0.436   0.377   9.179   9.992
   23        0.442   0.384   9.177  10.003
   24        0.437   0.372   9.184   9.993
   25        0.443   0.375   9.181  10.000
   26        0.443   0.375   9.181   9.999
   27        0.438   0.371   9.186   9.995
   28        0.454   0.292   9.197   9.944
   29        0.450   0.296   9.199   9.945
   30        0.446   0.300   9.190   9.936
   31        0.426   0.328   9.184   9.937
   32        0.449   0.298   9.193   9.940
   33        0.442   0.291   9.203   9.936
   34        0.446   0.297   9.194   9.937
   35        0.448   0.293   9.197   9.939
   36        0.710   0.575   8.050   9.335
   37        1.602   3.217   0.000   4.818
   38        1.588   3.391   0.000   4.979
   39        0.613   0.113   0.000   0.726
--------------------------------------------------
tot         20.046  19.003 329.519 368.568
 
 BZINTS: Fermi energy:   -0.565797;  408.000000 electrons
         Band energy:-0.145847E+04;  BLOECHL correction:   -0.051889

 total amount of memory used by VASP MPI-rank0   231883. kBytes
=======================================================================

   base      :      30000. kBytes
   nonlr-proj:      17403. kBytes
   fftplans  :       3394. kBytes
   grid      :      15015. kBytes
   one-center:        606. kBytes
   wavefun   :     165465. kBytes
 
  
  
 General timing and accounting informations for this job:
 ========================================================
  
                  Total CPU time used (sec):      265.370
                            User time (sec):      255.849
                          System time (sec):        9.521
                         Elapsed time (sec):      265.844
  
                   Maximum memory used (kb):      509240.
                   Average memory used (kb):          N/A
  
                          Minor page faults:       117795
                          Major page faults:            0
                 Voluntary context switches:         7089
