PROCAR new format
# of k-points:   10         # of bands:  252         # of ions:   37

 k-point     1 :    0.00000000 0.00000000 0.00000000     weight = 0.01562500

band     1 # energy  -13.66524803 # occ.  2.00000000
 
ion      s      p      d    tot
    1  0.000  0.000  0.000  0.000
    2  0.000  0.000  0.000  0.000
    3  0.000  0.000  0.000  0.000
    4  0.000  0.000  0.000  0.000
    5  0.000  0.000  0.000  0.000
    6  0.000  0.000  0.000  0.000
    7  0.000  0.000  0.000  0.000
    8  0.000  0.000  0.000  0.000
    9  0.000  0.000  0.000  0.000
   10  0.000  0.000  0.000  0.000
   11  0.000  0.000  0.000  0.000
   12  0.000  0.000  0.000  0.000
   13  0.000  0.000  0.000  0.000
   14  0.000  0.000  0.000  0.000
   15  0.000  0.000  0.000  0.000
   16  0.000  0.000  0.000  0.000
   17  0.000  0.000  0.000  0.000
   18  0.000  0.000  0.000  0.000
   19  0.000  0.000  0.000  0.000
   20  0.000  0.000  0.000  0.001
   21  0.000  0.000  0.000  0.001
   22  0.000  0.000  0.000  0.000
   23  0.000  0.000  0.000  0.001
   24  0.000  0.000  0.000  0.000
   25  0.000  0.000  0.000  0.000
   26  0.000  0.000  0.000  0.000
   27  0.000  0.000  0.000  0.000
   28  0.000  0.000  0.000  0.000
   29  0.000  0.000  0.000  0.000
   30  0.000  0.000  0.000  0.000
   31  0.000  0.000  0.000  0.000
   32  0.000  0.000  0.000  0.000
   33  0.000  0.000  0.000  0.000
   34  0.000  0.000  0.000  0.000
   35  0.000  0.000  0.000  0.000
   36  0.091  0.094  0.236  0.421
   37  0.624  0.024  0.000  0.648
tot    0.716  0.119  0.238  1.073
 
band     2 # energy   -8.07518785 # occ.  2.00000000
 
ion      s      p      d    tot
    1  0.007  0.001  0.000  0.007
    2  0.006  0.001  0.000  0.007
    3  0.006  0.001  0.000  0.007
    4  0.006  0.001  0.000  0.007
    5  0.007  0.001  0.000  0.007
    6  0.006  0.001  0.000  0.007
    7  0.006  0.001  0.000  0.007
    8  0.006  0.001  0.000  0.007
    9  0.006  0.001  0.000  0.007
   10  0.027  0.000  0.000  0.027
   11  0.027  0.000  0.000  0.028
   12  0.027  0.000  0.000  0.027
   13  0.027  0.000  0.000  0.028
   14  0.027  0.000  0.000  0.028
   15  0.026  0.000  0.000  0.027
   16  0.027  0.000  0.000  0.027
   17  0.026  0.000  0.000  0.027
   18  0.026  0.000  0.000  0.027
   19  0.024  0.000  0.000  0.024
   20  0.027  0.000  0.000  0.027
   21  0.027  0.000  0.000  0.027
   22  0.025  0.000  0.000  0.025
   23  0.027  0.000  0.000  0.027
   24  0.025  0.000  0.000  0.025
   25  0.024  0.000  0.000  0.024
   26  0.024  0.000  0.000  0.024
   27  0.025  0.000  0.000  0.025
   28  0.005  0.000  0.000  0.005
   29  0.005  0.000  0.000  0.005
   30  0.005  0.000  0.000  0.005
   31  0.005  0.000  0.000  0.005
   32  0.005  0.000  0.000  0.005
   33  0.005  0.000  0.000  0.005
   34  0.005  0.000  0.000  0.005
   35  0.005  0.000  0.000  0.005
   36  0.004  0.002  0.000  0.006
   37  0.001  0.000  0.000  0.001
tot    0.566  0.013  0.004  0.583
 
band     3 # energy   -6.87697117 # occ.  2.00000000
 
ion      s      p      d    tot
    1  0.017  0.000  0.001  0.019
    2  0.017  0.000  0.001  0.018
    3  0.017  0.000  0.001  0.018
    4  0.017  0.000  0.001  0.018
    5  0.017  0.000  0.001  0.018
    6  0.017  0.000  0.001  0.018
    7  0.017  0.000  0.001  0.018
    8  0.017  0.000  0.001  0.018
    9  0.017  0.000  0.001  0.018
   10  0.011  0.002  0.003  0.015
   11  0.010  0.002  0.003  0.014
   12  0.011  0.002  0.003  0.015
   13  0.010  0.002  0.003  0.014
   14  0.010  0.002  0.003  0.014
   15  0.010  0.002  0.003  0.014
   16  0.011  0.002  0.003  0.015
   17  0.010  0.002  0.003  0.014
   18  0.010  0.002  0.003  0.014
   19  0.014  0.001  0.004  0.019
   20  0.015  0.001  0.004  0.020
   21  0.015  0.001  0.004  0.020
   22  0.015  0.001  0.004  0.020
   23  0.015  0.001  0.004  0.020
   24  0.015  0.001  0.004  0.020
   25  0.014  0.001  0.004  0.019
   26  0.014  0.001  0.004  0.019
   27  0.015  0.001  0.004  0.020
   28  0.014  0.001  0.000  0.015
   29  0.013  0.001  0.000  0.014
   30  0.013  0.001  0.000  0.014
   31  0.013  0.001  0.000  0.014
   32  0.013  0.001  0.000  0.014
   33  0.013  0.001  0.000  0.014
   34  0.013  0.001  0.000  0.014
   35  0.014  0.001  0.000  0.015
   36  0.009  0.002  0.002  0.013
   37  0.001  0.000  0.000  0.001
tot    0.494  0.034  0.074  0.602
 
band     4 # energy   -5.99025623 # occ.  2.00000000
 
ion      s      p      d    tot
    1  0.000  0.001  0.004  0.005
    2  0.002  0.000  0.004  0.006
    3  0.002  0.000  0.004  0.006
    4  0.002  0.000  0.004  0.006
    5  0.000  0.000  0.001  0.001
    6  0.002  0.000  0.004  0.006
    7  0.002  0.000  0.004  0.006
    8  0.002  0.000  0.004  0.006
    9  0.017  0.001  0.000  0.018
   10  0.007  0.000  0.017  0.025
   11  0.006  0.002  0.008  0.015
   12  0.007  0.000  0.017  0.025
   13  0.006  0.002  0.008  0.015
   14  0.006  0.002  0.008  0.015
   15  0.015  0.001  0.005  0.022
   16  0.007  0.000  0.017  0.025
   17  0.015  0.001  0.005  0.022
   18  0.015  0.001  0.005  0.022
   19  0.000  0.001  0.022  0.023
   20  0.030  0.002  0.025  0.057
   21  0.030  0.002  0.025  0.057
   22  0.010  0.002  0.007  0.018
   23  0.030  0.002  0.025  0.057
   24  0.009  0.002  0.007  0.018
   25  0.000  0.001  0.022  0.023
   26  0.000  0.001  0.022  0.023
   27  0.010  0.002  0.007  0.018
   28  0.009  0.000  0.001  0.010
   29  0.007  0.000  0.007  0.014
   30  0.007  0.000  0.007  0.014
   31  0.007  0.000  0.007  0.014
   32  0.007  0.000  0.007  0.014
   33  0.007  0.000  0.007  0.014
   34  0.007  0.000  0.007  0.014
   35  0.021  0.001  0.002  0.023
   36  0.001  0.006  0.029  0.036
   37  0.002  0.007  0.000  0.009
tot    0.306  0.044  0.355  0.705
 
band     5 # energy   -5.95482217 # occ.  2.00000000
 
ion      s      p      d    tot
    1  0.000  0.000  0.008  0.008
    2  0.003  0.001  0.003  0.007
    3  0.006  0.001  0.003  0.010
    4  0.003  0.001  0.003  0.007
    5  0.000  0.001  0.006  0.007
    6  0.000  0.000  0.002  0.003
    7  0.006  0.001  0.003  0.010
    8  0.000  0.000  0.002  0.003
    9  0.000  0.000  0.001  0.001
   10  0.000  0.000  0.034  0.034
   11  0.035  0.002  0.014  0.051
   12  0.028  0.002  0.012  0.042
   13  0.036  0.001  0.014  0.052
   14  0.000  0.004  0.023  0.026
   15  0.000  0.001  0.010  0.011
   16  0.028  0.002  0.012  0.042
   17  0.000  0.001  0.010  0.011
   18  0.000  0.003  0.005  0.008
   19  0.009  0.001  0.011  0.021
   20  0.000  0.002  0.038  0.040
   21  0.050  0.001  0.016  0.067
   22  0.011  0.001  0.010  0.023
   23  0.049  0.001  0.017  0.067
   24  0.000  0.001  0.026  0.027
   25  0.000  0.004  0.003  0.007
   26  0.009  0.001  0.011  0.021
   27  0.011  0.001  0.011  0.023
   28  0.000  0.000  0.001  0.002
   29  0.000  0.000  0.002  0.003
   30  0.004  0.001  0.004  0.008
   31  0.000  0.000  0.002  0.003
   32  0.005  0.001  0.004  0.010
   33  0.004  0.001  0.004  0.008
   34  0.005  0.001  0.004  0.010
   35  0.000  0.000  0.003  0.004
   36  0.000  0.002  0.017  0.019
   37  0.000  0.001  0.000  0.001
tot    0.304  0.044  0.351  0.699
 
band     6 # energy   -5.95480574 # occ.  2.00000000
 
ion      s      p      d    tot
    1  0.000  0.000  0.008  0.008
    2  0.003  0.001  0.002  0.006
    3  0.000  0.000  0.003  0.004
    4  0.003  0.001  0.002  0.006
    5  0.000  0.001  0.006  0.007
    6  0.006  0.001  0.003  0.010
    7  0.000  0.000  0.003  0.004
    8  0.006  0.001  0.003  0.010
    9  0.000  0.000  0.001  0.001
   10  0.037  0.002  0.005  0.044
   11  0.012  0.003  0.020  0.035
   12  0.009  0.001  0.027  0.037
   13  0.012  0.003  0.020  0.034
   14  0.047  0.001  0.012  0.060
   15  0.000  0.002  0.007  0.009
   16  0.010  0.001  0.027  0.037
   17  0.000  0.002  0.007  0.009
   18  0.001  0.000  0.011  0.012
   19  0.003  0.003  0.006  0.012
   20  0.065  0.001  0.010  0.076
   21  0.016  0.002  0.031  0.049
   22  0.004  0.001  0.021  0.026
   23  0.017  0.002  0.030  0.049
   24  0.015  0.002  0.005  0.021
   25  0.012  0.000  0.014  0.026
   26  0.003  0.003  0.006  0.012
   27  0.004  0.001  0.021  0.026
   28  0.000  0.000  0.001  0.002
   29  0.006  0.001  0.004  0.011
   30  0.002  0.001  0.003  0.005
   31  0.006  0.001  0.004  0.011
   32  0.001  0.000  0.003  0.004
   33  0.002  0.001  0.003  0.006
   34  0.001  0.000  0.003  0.004
   35  0.000  0.000  0.003  0.004
   36  0.000  0.002  0.017  0.019
   37  0.000  0.001  0.000  0.001
tot    0.304  0.044  0.351  0.699
 
band     7 # energy   -5.93066136 # occ.  2.00000000
 
ion      s      p      d    tot
    1  0.027  0.000  0.017  0.044
    2  0.019  0.000  0.019  0.038
    3  0.019  0.000  0.019  0.038
    4  0.019  0.000  0.019  0.038
    5  0.015  0.000  0.021  0.036
    6  0.019  0.000  0.019  0.038
    7  0.019  0.000  0.019  0.038
    8  0.019  0.000  0.019  0.038
    9  0.016  0.000  0.019  0.034
   10  0.003  0.000  0.029  0.032
   11  0.011  0.000  0.024  0.035
   12  0.003  0.000  0.029  0.032
   13  0.011  0.000  0.024  0.035
   14  0.011  0.000  0.024  0.035
   15  0.012  0.001  0.023  0.036
   16  0.003  0.000  0.029  0.032
   17  0.012  0.001  0.023  0.036
   18  0.012  0.001  0.023  0.036
   19  0.002  0.000  0.004  0.007
   20  0.001  0.000  0.008  0.010
   21  0.001  0.000  0.008  0.010
   22  0.000  0.001  0.006  0.007
   23  0.001  0.000  0.008  0.010
   24  0.000  0.001  0.006  0.007
   25  0.002  0.000  0.004  0.007
   26  0.002  0.000  0.004  0.007
   27  0.000  0.001  0.006  0.007
   28  0.001  0.000  0.000  0.001
   29  0.000  0.000  0.000  0.000
   30  0.000  0.000  0.000  0.000
   31  0.000  0.000  0.000  0.000
   32  0.000  0.000  0.000  0.000
   33  0.000  0.000  0.000  0.000
   34  0.000  0.000  0.000  0.000
   35  0.000  0.000  0.000  0.000
   36  0.000  0.000  0.001  0.002
   37  0.000  0.000  0.000  0.001
tot    0.263  0.010  0.460  0.733
 
band     8 # energy   -5.90440656 # occ.  2.00000000
 
ion      s      p      d    tot
    1  0.005  0.001  0.002  0.008
    2  0.001  0.001  0.006  0.007
    3  0.001  0.001  0.006  0.007
    4  0.001  0.001  0.006  0.007
    5  0.020  0.002  0.000  0.022
    6  0.001  0.001  0.006  0.007
    7  0.001  0.001  0.006  0.007
    8  0.001  0.001  0.006  0.007
    9  0.000  0.000  0.003  0.003
   10  0.025  0.003  0.002  0.030
   11  0.020  0.001  0.022  0.043
   12  0.025  0.003  0.002  0.030
   13  0.020  0.001  0.022  0.043
   14  0.020  0.001  0.022  0.043
   15  0.001  0.001  0.025  0.026
   16  0.025  0.003  0.002  0.030
   17  0.001  0.001  0.025  0.026
   18  0.001  0.001  0.025  0.026
   19  0.025  0.002  0.007  0.034
   20  0.007  0.003  0.015  0.025
   21  0.007  0.003  0.015  0.025
   22  0.007  0.000  0.026  0.033
   23  0.007  0.003  0.015  0.025
   24  0.007  0.000  0.026  0.034
   25  0.024  0.002  0.007  0.034
   26  0.025  0.002  0.007  0.034
   27  0.007  0.000  0.026  0.033
   28  0.010  0.001  0.001  0.013
   29  0.000  0.000  0.004  0.004
   30  0.000  0.000  0.004  0.004
   31  0.000  0.000  0.004  0.004
   32  0.000  0.000  0.004  0.004
   33  0.000  0.000  0.004  0.004
   34  0.000  0.000  0.004  0.004
   35  0.004  0.001  0.002  0.006
   36  0.001  0.000  0.000  0.001
   37  0.000  0.000  0.000  0.000
tot    0.298  0.040  0.358  0.696
 
band     9 # energy   -5.88837822 # occ.  2.00000000
 
ion      s      p      d    tot
    1  0.000  0.001  0.003  0.004
    2  0.004  0.001  0.004  0.008
    3  0.008  0.001  0.004  0.012
    4  0.004  0.001  0.004  0.009
    5  0.000  0.000  0.005  0.005
    6  0.001  0.000  0.003  0.004
    7  0.008  0.001  0.004  0.013
    8  0.001  0.000  0.003  0.004
    9  0.000  0.001  0.010  0.012
   10  0.022  0.000  0.016  0.039
   11  0.003  0.001  0.021  0.025
   12  0.005  0.004  0.007  0.015
   13  0.002  0.001  0.022  0.025
   14  0.010  0.001  0.007  0.019
   15  0.016  0.001  0.032  0.049
   16  0.006  0.003  0.007  0.016
   17  0.015  0.001  0.033  0.049
   18  0.062  0.002  0.006  0.070
   19  0.010  0.001  0.028  0.039
   20  0.000  0.001  0.014  0.014
   21  0.000  0.002  0.011  0.013
   22  0.009  0.003  0.016  0.028
   23  0.000  0.002  0.011  0.013
   24  0.039  0.001  0.012  0.051
   25  0.040  0.002  0.003  0.045
   26  0.009  0.001  0.029  0.039
   27  0.010  0.003  0.016  0.029
   28  0.000  0.000  0.006  0.007
   29  0.000  0.000  0.002  0.003
   30  0.003  0.001  0.002  0.005
   31  0.000  0.000  0.002  0.003
   32  0.005  0.001  0.003  0.009
   33  0.003  0.001  0.002  0.005
   34  0.005  0.001  0.003  0.008
   35  0.000  0.001  0.004  0.005
   36  0.000  0.000  0.001  0.001
   37  0.000  0.000  0.000  0.000
tot    0.300  0.042  0.353  0.694
 
band    10 # energy   -5.88835910 # occ.  2.00000000
 
ion      s      p      d    tot
    1  0.000  0.001  0.003  0.004
    2  0.004  0.001  0.003  0.008
    3  0.001  0.000  0.003  0.004
    4  0.004  0.001  0.003  0.008
    5  0.000  0.000  0.005  0.005
    6  0.007  0.001  0.004  0.013
    7  0.000  0.000  0.003  0.004
    8  0.007  0.001  0.004  0.013
    9  0.000  0.001  0.010  0.012
   10  0.000  0.005  0.003  0.008
   11  0.008  0.001  0.012  0.021
   12  0.017  0.001  0.013  0.032
   13  0.008  0.001  0.012  0.021
   14  0.000  0.001  0.026  0.027
   15  0.046  0.001  0.015  0.063
   16  0.016  0.001  0.013  0.031
   17  0.048  0.002  0.014  0.063
   18  0.000  0.001  0.041  0.042
   19  0.029  0.002  0.012  0.043
   20  0.000  0.002  0.010  0.012
   21  0.000  0.001  0.013  0.014
   22  0.030  0.001  0.013  0.044
   23  0.000  0.001  0.013  0.014
   24  0.000  0.004  0.017  0.021
   25  0.000  0.000  0.037  0.037
   26  0.030  0.002  0.011  0.043
   27  0.029  0.001  0.013  0.043
   28  0.000  0.000  0.006  0.007
   29  0.005  0.001  0.002  0.008
   30  0.002  0.001  0.003  0.006
   31  0.005  0.001  0.003  0.008
   32  0.000  0.000  0.002  0.002
   33  0.003  0.001  0.003  0.006
   34  0.000  0.000  0.002  0.002
   35  0.000  0.001  0.004  0.005
   36  0.000  0.000  0.001  0.001
   37  0.000  0.000  0.000  0.000
tot    0.300  0.042  0.353  0.694
 
band    11 # energy   -5.83649882 # occ.  2.00000000
 
ion      s      p      d    tot
    1  0.004  0.000  0.000  0.004
    2  0.001  0.000  0.002  0.003
    3  0.001  0.000  0.002  0.003
    4  0.001  0.000  0.002  0.003
    5  0.003  0.000  0.000  0.004
    6  0.001  0.000  0.002  0.003
    7  0.001  0.000  0.002  0.003
    8  0.001  0.000  0.002  0.003
    9  0.002  0.001  0.001  0.004
   10  0.002  0.000  0.011  0.014
   11  0.003  0.001  0.004  0.008
   12  0.002  0.000  0.011  0.014
   13  0.003  0.001  0.004  0.008
   14  0.003  0.001  0.004  0.008
   15  0.011  0.001  0.005  0.017
   16  0.002  0.000  0.011  0.014
   17  0.011  0.001  0.005  0.017
   18  0.011  0.001  0.005  0.017
   19  0.003  0.001  0.016  0.020
   20  0.000  0.000  0.031  0.031
   21  0.000  0.000  0.031  0.031
   22  0.016  0.002  0.014  0.032
   23  0.000  0.000  0.031  0.031
   24  0.016  0.002  0.014  0.032
   25  0.003  0.001  0.016  0.020
   26  0.003  0.001  0.016  0.020
   27  0.016  0.002  0.014  0.032
   28  0.019  0.000  0.017  0.036
   29  0.020  0.000  0.015  0.035
   30  0.020  0.000  0.015  0.035
   31  0.020  0.000  0.015  0.035
   32  0.020  0.000  0.015  0.035
   33  0.020  0.000  0.015  0.035
   34  0.020  0.000  0.015  0.035
   35  0.013  0.000  0.017  0.029
   36  0.014  0.000  0.031  0.046
   37  0.000  0.003  0.000  0.003
tot    0.284  0.023  0.416  0.723
 
band    12 # energy   -5.46069603 # occ.  2.00000000
 
ion      s      p      d    tot
    1  0.000  0.001  0.004  0.005
    2  0.001  0.001  0.005  0.007
    3  0.010  0.002  0.005  0.016
    4  0.001  0.001  0.005  0.007
    5  0.000  0.002  0.010  0.012
    6  0.004  0.001  0.004  0.009
    7  0.010  0.002  0.005  0.016
    8  0.004  0.001  0.004  0.009
    9  0.000  0.000  0.009  0.009
   10  0.000  0.001  0.050  0.050
   11  0.018  0.001  0.021  0.039
   12  0.007  0.001  0.019  0.028
   13  0.018  0.001  0.020  0.039
   14  0.000  0.000  0.052  0.052
   15  0.002  0.000  0.020  0.022
   16  0.007  0.001  0.019  0.028
   17  0.002  0.000  0.020  0.022
   18  0.000  0.001  0.012  0.014
   19  0.003  0.000  0.017  0.021
   20  0.000  0.000  0.074  0.074
   21  0.016  0.001  0.023  0.040
   22  0.004  0.001  0.018  0.023
   23  0.016  0.001  0.023  0.040
   24  0.000  0.001  0.034  0.035
   25  0.000  0.001  0.010  0.011
   26  0.003  0.000  0.017  0.021
   27  0.004  0.001  0.018  0.023
   28  0.000  0.000  0.006  0.006
   29  0.003  0.001  0.004  0.007
   30  0.007  0.001  0.005  0.014
   31  0.003  0.001  0.004  0.007
   32  0.001  0.001  0.004  0.005
   33  0.007  0.001  0.005  0.014
   34  0.001  0.001  0.004  0.005
   35  0.000  0.000  0.002  0.002
   36  0.000  0.002  0.019  0.021
   37  0.000  0.002  0.000  0.002
tot    0.152  0.032  0.571  0.755
 
band    13 # energy   -5.46068808 # occ.  2.00000000
 
ion      s      p      d    tot
    1  0.000  0.001  0.004  0.005
    2  0.009  0.001  0.004  0.014
    3  0.000  0.000  0.004  0.005
    4  0.009  0.001  0.004  0.014
    5  0.000  0.002  0.010  0.012
    6  0.006  0.001  0.005  0.012
    7  0.000  0.000  0.004  0.005
    8  0.006  0.001  0.005  0.012
    9  0.000  0.000  0.009  0.009
   10  0.009  0.002  0.009  0.021
   11  0.006  0.000  0.041  0.048
   12  0.002  0.001  0.040  0.043
   13  0.006  0.000  0.041  0.048
   14  0.024  0.001  0.010  0.035
   15  0.001  0.001  0.015  0.016
   16  0.002  0.001  0.040  0.043
   17  0.001  0.001  0.015  0.016
   18  0.003  0.000  0.023  0.025
   19  0.001  0.001  0.012  0.014
   20  0.021  0.001  0.006  0.028
   21  0.005  0.000  0.057  0.063
   22  0.001  0.001  0.029  0.031
   23  0.005  0.000  0.057  0.063
   24  0.005  0.001  0.013  0.019
   25  0.004  0.000  0.020  0.024
   26  0.001  0.001  0.012  0.014
   27  0.001  0.001  0.029  0.031
   28  0.000  0.000  0.006  0.006
   29  0.005  0.001  0.005  0.010
   30  0.000  0.000  0.003  0.004
   31  0.005  0.001  0.005  0.010
   32  0.006  0.001  0.005  0.012
   33  0.000  0.000  0.003  0.004
   34  0.006  0.001  0.005  0.012
   35  0.000  0.000  0.002  0.002
   36  0.000  0.002  0.019  0.021
   37  0.000  0.002  0.000  0.002
tot    0.152  0.032  0.571  0.755
 
band    14 # energy   -5.45501003 # occ.  2.00000000
 
ion      s      p      d    tot
    1  0.010  0.002  0.003  0.015
    2  0.000  0.001  0.008  0.009
    3  0.000  0.001  0.008  0.009
    4  0.000  0.001  0.008  0.009
    5  0.001  0.000  0.001  0.002
    6  0.000  0.001  0.008  0.009
    7  0.000  0.001  0.008  0.009
    8  0.000  0.001  0.008  0.009
    9  0.019  0.002  0.000  0.020
   10  0.011  0.001  0.018  0.030
   11  0.001  0.000  0.047  0.048
   12  0.011  0.001  0.018  0.030
   13  0.001  0.000  0.047  0.048
   14  0.001  0.000  0.047  0.048
   15  0.005  0.001  0.016  0.023
   16  0.011  0.001  0.018  0.030
   17  0.005  0.001  0.016  0.023
   18  0.005  0.001  0.016  0.023
   19  0.002  0.001  0.017  0.019
   20  0.002  0.000  0.051  0.053
   21  0.002  0.000  0.051  0.053
   22  0.011  0.001  0.016  0.029
   23  0.002  0.000  0.051  0.053
   24  0.011  0.001  0.016  0.029
   25  0.002  0.001  0.017  0.019
   26  0.002  0.001  0.017  0.019
   27  0.011  0.001  0.016  0.029
   28  0.012  0.001  0.000  0.013
   29  0.000  0.000  0.005  0.006
   30  0.000  0.000  0.005  0.006
   31  0.000  0.000  0.005  0.006
   32  0.000  0.000  0.005  0.006
   33  0.000  0.000  0.005  0.006
   34  0.000  0.000  0.005  0.006
   35  0.005  0.001  0.004  0.011
   36  0.000  0.000  0.004  0.004
   37  0.000  0.001  0.000  0.001
tot    0.145  0.028  0.586  0.759
 
band    15 # energy   -5.41346964 # occ.  2.00000000
 
ion      s      p      d    tot
    1  0.011  0.001  0.000  0.012
    2  0.000  0.001  0.008  0.009
    3  0.000  0.001  0.008  0.009
    4  0.000  0.001  0.008  0.009
    5  0.015  0.002  0.001  0.018
    6  0.000  0.001  0.008  0.009
    7  0.000  0.001  0.008  0.009
    8  0.000  0.001  0.008  0.009
    9  0.001  0.000  0.002  0.003
   10  0.000  0.001  0.038  0.039
   11  0.008  0.002  0.005  0.015
   12  0.000  0.001  0.038  0.039
   13  0.008  0.002  0.005  0.015
   14  0.008  0.002  0.005  0.015
   15  0.006  0.001  0.032  0.038
   16  0.000  0.001  0.038  0.039
   17  0.006  0.001  0.032  0.038
   18  0.006  0.001  0.032  0.038
   19  0.013  0.001  0.034  0.048
   20  0.007  0.002  0.012  0.021
   21  0.007  0.002  0.012  0.021
   22  0.000  0.000  0.042  0.042
   23  0.007  0.002  0.012  0.021
   24  0.000  0.000  0.042  0.042
   25  0.013  0.001  0.034  0.048
   26  0.013  0.001  0.034  0.048
   27  0.000  0.000  0.042  0.042
   28  0.001  0.001  0.007  0.009
   29  0.001  0.000  0.005  0.006
   30  0.001  0.000  0.005  0.006
   31  0.001  0.000  0.005  0.006
   32  0.001  0.000  0.005  0.006
   33  0.001  0.000  0.005  0.006
   34  0.001  0.000  0.005  0.006
   35  0.000  0.000  0.000  0.000
   36  0.015  0.005  0.001  0.022
   37  0.002  0.003  0.000  0.004
tot    0.151  0.034  0.580  0.766
 
band    16 # energy   -5.39958880 # occ.  2.00000000
 
ion      s      p      d    tot
    1  0.000  0.001  0.014  0.014
    2  0.009  0.001  0.004  0.014
    3  0.001  0.000  0.005  0.006
    4  0.009  0.001  0.004  0.014
    5  0.000  0.000  0.006  0.006
    6  0.004  0.001  0.005  0.011
    7  0.001  0.000  0.005  0.006
    8  0.004  0.001  0.005  0.011
    9  0.000  0.001  0.006  0.007
   10  0.000  0.001  0.033  0.033
   11  0.000  0.001  0.020  0.021
   12  0.009  0.000  0.022  0.031
   13  0.000  0.001  0.020  0.021
   14  0.000  0.001  0.017  0.018
   15  0.011  0.002  0.020  0.033
   16  0.009  0.000  0.022  0.031
   17  0.011  0.002  0.020  0.033
   18  0.000  0.000  0.062  0.063
   19  0.014  0.001  0.020  0.035
   20  0.000  0.002  0.022  0.024
   21  0.000  0.001  0.023  0.024
   22  0.016  0.001  0.021  0.037
   23  0.000  0.001  0.023  0.024
   24  0.000  0.001  0.030  0.030
   25  0.000  0.000  0.066  0.066
   26  0.015  0.001  0.020  0.035
   27  0.016  0.001  0.021  0.037
   28  0.000  0.001  0.005  0.006
   29  0.005  0.001  0.004  0.010
   30  0.000  0.000  0.004  0.005
   31  0.005  0.001  0.004  0.010
   32  0.005  0.001  0.003  0.009
   33  0.000  0.000  0.004  0.005
   34  0.005  0.001  0.003  0.009
   35  0.000  0.001  0.008  0.009
   36  0.000  0.000  0.002  0.002
   37  0.000  0.000  0.000  0.000
tot    0.150  0.029  0.572  0.751
 
band    17 # energy   -5.39958153 # occ.  2.00000000
 
ion      s      p      d    tot
    1  0.000  0.001  0.014  0.014
    2  0.000  0.001  0.005  0.006
    3  0.009  0.001  0.005  0.015
    4  0.000  0.001  0.005  0.006
    5  0.000  0.000  0.006  0.006
    6  0.005  0.001  0.004  0.010
    7  0.009  0.001  0.005  0.015
    8  0.005  0.001  0.004  0.010
    9  0.000  0.001  0.006  0.007
   10  0.012  0.000  0.018  0.031
   11  0.000  0.001  0.018  0.019
   12  0.003  0.001  0.029  0.033
   13  0.000  0.001  0.018  0.019
   14  0.000  0.001  0.021  0.022
   15  0.004  0.001  0.048  0.053
   16  0.003  0.001  0.029  0.033
   17  0.004  0.001  0.048  0.053
   18  0.014  0.002  0.006  0.023
   19  0.005  0.001  0.051  0.056
   20  0.000  0.000  0.023  0.023
   21  0.000  0.001  0.022  0.024
   22  0.005  0.001  0.027  0.033
   23  0.000  0.001  0.022  0.024
   24  0.021  0.001  0.018  0.039
   25  0.019  0.001  0.004  0.025
   26  0.005  0.001  0.051  0.056
   27  0.005  0.001  0.027  0.033
   28  0.000  0.001  0.005  0.006
   29  0.002  0.000  0.003  0.005
   30  0.007  0.001  0.003  0.011
   31  0.002  0.000  0.003  0.005
   32  0.002  0.001  0.005  0.007
   33  0.007  0.001  0.003  0.011
   34  0.002  0.001  0.005  0.007
   35  0.000  0.001  0.008  0.009
   36  0.000  0.000  0.002  0.002
   37  0.000  0.000  0.000  0.000
tot    0.150  0.029  0.571  0.751
 
band    18 # energy   -5.08276630 # occ.  2.00000000
 
ion      s      p      d    tot
    1  0.005  0.000  0.003  0.007
    2  0.000  0.000  0.005  0.005
    3  0.000  0.000  0.005  0.005
    4  0.000  0.000  0.005  0.005
    5  0.002  0.001  0.009  0.011
    6  0.000  0.000  0.005  0.005
    7  0.000  0.000  0.005  0.005
    8  0.000  0.000  0.005  0.005
    9  0.009  0.001  0.001  0.011
   10  0.000  0.000  0.017  0.017
   11  0.000  0.001  0.052  0.053
   12  0.000  0.000  0.017  0.017
   13  0.000  0.001  0.052  0.053
   14  0.000  0.001  0.052  0.053
   15  0.000  0.000  0.027  0.027
   16  0.000  0.000  0.017  0.017
   17  0.000  0.000  0.027  0.027
   18  0.000  0.000  0.027  0.027
   19  0.000  0.000  0.014  0.014
   20  0.002  0.000  0.054  0.056
   21  0.002  0.000  0.054  0.056
   22  0.001  0.000  0.036  0.037
   23  0.002  0.000  0.054  0.056
   24  0.001  0.000  0.036  0.037
   25  0.000  0.000  0.014  0.014
   26  0.000  0.000  0.014  0.014
   27  0.001  0.000  0.036  0.037
   28  0.002  0.000  0.001  0.004
   29  0.000  0.001  0.014  0.015
   30  0.000  0.001  0.014  0.015
   31  0.000  0.001  0.014  0.015
   32  0.000  0.001  0.014  0.015
   33  0.000  0.001  0.014  0.015
   34  0.000  0.001  0.014  0.015
   35  0.019  0.001  0.003  0.023
   36  0.000  0.001  0.033  0.034
   37  0.002  0.009  0.000  0.012
tot    0.048  0.026  0.762  0.835
 
band    19 # energy   -5.06734879 # occ.  2.00000000
 
ion      s      p      d    tot
    1  0.000  0.000  0.014  0.014
    2  0.001  0.001  0.008  0.010
    3  0.003  0.000  0.012  0.015
    4  0.001  0.001  0.009  0.010
    5  0.000  0.001  0.021  0.021
    6  0.007  0.001  0.008  0.015
    7  0.003  0.000  0.012  0.015
    8  0.007  0.001  0.007  0.015
    9  0.000  0.001  0.004  0.004
   10  0.000  0.001  0.024  0.024
   11  0.000  0.000  0.060  0.061
   12  0.000  0.000  0.011  0.012
   13  0.000  0.000  0.060  0.061
   14  0.000  0.000  0.052  0.053
   15  0.000  0.000  0.025  0.025
   16  0.000  0.000  0.012  0.012
   17  0.000  0.000  0.025  0.025
   18  0.000  0.000  0.038  0.038
   19  0.000  0.000  0.008  0.008
   20  0.001  0.000  0.078  0.079
   21  0.000  0.000  0.052  0.053
   22  0.000  0.000  0.036  0.037
   23  0.000  0.000  0.053  0.053
   24  0.001  0.000  0.028  0.028
   25  0.000  0.000  0.014  0.014
   26  0.000  0.000  0.008  0.008
   27  0.000  0.000  0.036  0.037
   28  0.000  0.000  0.005  0.005
   29  0.004  0.000  0.010  0.014
   30  0.000  0.000  0.007  0.007
   31  0.004  0.000  0.010  0.014
   32  0.004  0.001  0.005  0.009
   33  0.000  0.000  0.007  0.007
   34  0.004  0.001  0.005  0.009
   35  0.000  0.000  0.010  0.010
   36  0.000  0.002  0.018  0.020
   37  0.000  0.002  0.000  0.002
tot    0.041  0.015  0.790  0.845
 
band    20 # energy   -5.06733755 # occ.  2.00000000
 
ion      s      p      d    tot
    1  0.000  0.000  0.014  0.014
    2  0.007  0.000  0.010  0.017
    3  0.004  0.001  0.007  0.012
    4  0.007  0.000  0.010  0.017
    5  0.000  0.001  0.021  0.021
    6  0.000  0.000  0.011  0.012
    7  0.004  0.001  0.007  0.012
    8  0.000  0.000  0.011  0.012
    9  0.000  0.001  0.004  0.004
   10  0.000  0.000  0.008  0.008
   11  0.000  0.000  0.055  0.055
   12  0.000  0.000  0.020  0.020
   13  0.000  0.000  0.055  0.055
   14  0.000  0.000  0.063  0.063
   15  0.000  0.000  0.034  0.034
   16  0.000  0.000  0.019  0.020
   17  0.000  0.000  0.034  0.034
   18  0.000  0.000  0.020  0.020
   19  0.000  0.000  0.012  0.012
   20  0.000  0.000  0.044  0.044
   21  0.001  0.000  0.070  0.070
   22  0.000  0.000  0.030  0.031
   23  0.001  0.000  0.069  0.070
   24  0.000  0.000  0.039  0.040
   25  0.000  0.000  0.006  0.006
   26  0.000  0.000  0.012  0.012
   27  0.000  0.000  0.031  0.031
   28  0.000  0.000  0.005  0.005
   29  0.001  0.000  0.005  0.006
   30  0.005  0.001  0.008  0.013
   31  0.001  0.000  0.005  0.006
   32  0.001  0.000  0.010  0.011
   33  0.005  0.001  0.008  0.013
   34  0.001  0.000  0.009  0.011
   35  0.000  0.000  0.010  0.010
   36  0.000  0.002  0.018  0.020
   37  0.000  0.002  0.000  0.002
tot    0.041  0.015  0.790  0.845
 
band    21 # energy   -5.03242832 # occ.  2.00000000
 
ion      s      p      d    tot
    1  0.003  0.001  0.005  0.008
    2  0.000  0.001  0.018  0.019
    3  0.000  0.001  0.018  0.019
    4  0.000  0.001  0.018  0.019
    5  0.024  0.001  0.002  0.026
    6  0.000  0.001  0.018  0.019
    7  0.000  0.001  0.018  0.019
    8  0.000  0.001  0.018  0.019
    9  0.011  0.000  0.013  0.024
   10  0.000  0.000  0.041  0.041
   11  0.000  0.001  0.028  0.028
   12  0.000  0.000  0.041  0.041
   13  0.000  0.001  0.028  0.028
   14  0.000  0.001  0.028  0.028
   15  0.000  0.000  0.039  0.039
   16  0.000  0.000  0.041  0.041
   17  0.000  0.000  0.039  0.039
   18  0.000  0.000  0.039  0.039
   19  0.001  0.000  0.028  0.029
   20  0.000  0.000  0.025  0.026
   21  0.000  0.000  0.026  0.026
   22  0.001  0.000  0.022  0.023
   23  0.000  0.000  0.026  0.026
   24  0.001  0.000  0.021  0.023
   25  0.001  0.000  0.028  0.029
   26  0.001  0.000  0.028  0.029
   27  0.001  0.000  0.022  0.023
   28  0.009  0.000  0.005  0.015
   29  0.000  0.000  0.011  0.012
   30  0.000  0.000  0.011  0.012
   31  0.000  0.000  0.011  0.012
   32  0.000  0.000  0.011  0.012
   33  0.000  0.000  0.011  0.012
   34  0.000  0.000  0.011  0.012
   35  0.001  0.000  0.005  0.005
   36  0.005  0.001  0.000  0.007