PROCAR new format
# of k-points:   10         # of bands:  252         # of ions:   37

 k-point     1 :    0.00000000 0.00000000 0.00000000     weight = 0.01562500

band     1 # energy   -8.19300284 # occ.  2.00000000
 
ion      s      p      d    tot
    1  0.007  0.001  0.000  0.007
    2  0.006  0.001  0.000  0.007
    3  0.006  0.001  0.000  0.007
    4  0.006  0.001  0.000  0.007
    5  0.006  0.001  0.000  0.007
    6  0.006  0.001  0.000  0.007
    7  0.006  0.001  0.000  0.007
    8  0.006  0.001  0.000  0.007
    9  0.006  0.001  0.000  0.007
   10  0.026  0.000  0.000  0.026
   11  0.027  0.000  0.000  0.027
   12  0.026  0.000  0.000  0.026
   13  0.027  0.000  0.000  0.027
   14  0.027  0.000  0.000  0.027
   15  0.026  0.000  0.000  0.026
   16  0.026  0.000  0.000  0.026
   17  0.026  0.000  0.000  0.026
   18  0.026  0.000  0.000  0.026
   19  0.023  0.000  0.000  0.023
   20  0.027  0.000  0.000  0.028
   21  0.027  0.000  0.000  0.028
   22  0.024  0.000  0.000  0.025
   23  0.027  0.000  0.000  0.028
   24  0.024  0.000  0.000  0.025
   25  0.023  0.000  0.000  0.023
   26  0.023  0.000  0.000  0.023
   27  0.024  0.000  0.000  0.025
   28  0.005  0.000  0.000  0.005
   29  0.005  0.000  0.000  0.006
   30  0.005  0.000  0.000  0.006
   31  0.005  0.000  0.000  0.006
   32  0.005  0.000  0.000  0.006
   33  0.005  0.000  0.000  0.006
   34  0.005  0.000  0.000  0.006
   35  0.005  0.000  0.000  0.005
   36  0.010  0.001  0.000  0.011
   37  0.001  0.000  0.000  0.001
tot    0.567  0.011  0.004  0.582
 
band     2 # energy   -7.03957632 # occ.  2.00000000
 
ion      s      p      d    tot
    1  0.016  0.000  0.001  0.018
    2  0.016  0.000  0.001  0.018
    3  0.016  0.000  0.001  0.018
    4  0.016  0.000  0.001  0.018
    5  0.016  0.000  0.001  0.018
    6  0.016  0.000  0.001  0.018
    7  0.016  0.000  0.001  0.018
    8  0.016  0.000  0.001  0.018
    9  0.017  0.000  0.001  0.018
   10  0.011  0.001  0.003  0.015
   11  0.010  0.001  0.002  0.014
   12  0.011  0.001  0.003  0.015
   13  0.010  0.001  0.002  0.014
   14  0.010  0.001  0.002  0.014
   15  0.011  0.001  0.002  0.015
   16  0.011  0.001  0.003  0.015
   17  0.011  0.001  0.002  0.015
   18  0.011  0.001  0.002  0.015
   19  0.012  0.001  0.003  0.016
   20  0.015  0.002  0.003  0.020
   21  0.015  0.002  0.003  0.020
   22  0.012  0.001  0.003  0.016
   23  0.015  0.002  0.003  0.020
   24  0.012  0.001  0.003  0.016
   25  0.012  0.001  0.003  0.016
   26  0.012  0.001  0.003  0.016
   27  0.012  0.001  0.003  0.016
   28  0.013  0.000  0.001  0.014
   29  0.015  0.001  0.001  0.016
   30  0.015  0.001  0.001  0.016
   31  0.015  0.001  0.001  0.016
   32  0.015  0.001  0.001  0.016
   33  0.015  0.001  0.001  0.016
   34  0.015  0.001  0.001  0.016
   35  0.013  0.000  0.001  0.014
   36  0.026  0.000  0.000  0.027
   37  0.002  0.000  0.000  0.002
tot    0.504  0.032  0.064  0.600
 
band     3 # energy   -6.09787357 # occ.  2.00000000
 
ion      s      p      d    tot
    1  0.012  0.001  0.000  0.013
    2  0.001  0.000  0.005  0.007
    3  0.001  0.000  0.005  0.007
    4  0.001  0.000  0.005  0.007
    5  0.004  0.000  0.001  0.006
    6  0.001  0.000  0.005  0.007
    7  0.001  0.000  0.005  0.007
    8  0.001  0.000  0.005  0.007
    9  0.004  0.001  0.004  0.009
   10  0.005  0.000  0.025  0.030
   11  0.003  0.002  0.011  0.016
   12  0.005  0.000  0.025  0.030
   13  0.003  0.002  0.011  0.016
   14  0.003  0.002  0.011  0.016
   15  0.028  0.002  0.004  0.034
   16  0.005  0.000  0.025  0.030
   17  0.028  0.002  0.004  0.034
   18  0.028  0.002  0.004  0.034
   19  0.002  0.001  0.021  0.024
   20  0.017  0.001  0.026  0.044
   21  0.017  0.001  0.026  0.044
   22  0.026  0.003  0.002  0.031
   23  0.017  0.001  0.026  0.044
   24  0.026  0.003  0.002  0.031
   25  0.002  0.001  0.021  0.024
   26  0.002  0.001  0.021  0.024
   27  0.026  0.003  0.002  0.031
   28  0.000  0.000  0.003  0.003
   29  0.001  0.001  0.006  0.007
   30  0.001  0.001  0.006  0.007
   31  0.001  0.001  0.006  0.007
   32  0.001  0.001  0.006  0.007
   33  0.001  0.001  0.006  0.007
   34  0.001  0.001  0.006  0.007
   35  0.003  0.001  0.002  0.006
   36  0.040  0.001  0.004  0.045
   37  0.005  0.000  0.000  0.005
tot    0.325  0.040  0.342  0.707
 
band     4 # energy   -6.05957616 # occ.  2.00000000
 
ion      s      p      d    tot
    1  0.018  0.000  0.022  0.041
    2  0.021  0.000  0.020  0.041
    3  0.021  0.000  0.020  0.041
    4  0.021  0.000  0.020  0.041
    5  0.015  0.000  0.020  0.035
    6  0.021  0.000  0.020  0.041
    7  0.021  0.000  0.020  0.041
    8  0.021  0.000  0.020  0.041
    9  0.030  0.000  0.017  0.047
   10  0.009  0.001  0.022  0.031
   11  0.014  0.001  0.019  0.034
   12  0.009  0.001  0.022  0.031
   13  0.014  0.001  0.019  0.034
   14  0.014  0.001  0.019  0.034
   15  0.002  0.001  0.024  0.027
   16  0.009  0.001  0.022  0.031
   17  0.002  0.001  0.024  0.027
   18  0.002  0.001  0.024  0.027
   19  0.000  0.001  0.002  0.003
   20  0.002  0.001  0.002  0.005
   21  0.002  0.001  0.002  0.005
   22  0.001  0.001  0.001  0.002
   23  0.002  0.001  0.002  0.005
   24  0.001  0.001  0.001  0.002
   25  0.000  0.001  0.002  0.003
   26  0.000  0.001  0.002  0.003
   27  0.001  0.001  0.001  0.002
   28  0.005  0.000  0.001  0.005
   29  0.003  0.000  0.001  0.004
   30  0.003  0.000  0.001  0.004
   31  0.003  0.000  0.001  0.004
   32  0.003  0.000  0.001  0.004
   33  0.003  0.000  0.001  0.004
   34  0.003  0.000  0.001  0.004
   35  0.004  0.000  0.001  0.005
   36  0.001  0.000  0.001  0.002
   37  0.000  0.000  0.000  0.000
tot    0.298  0.015  0.398  0.711
 
band     5 # energy   -6.03598715 # occ.  2.00000000
 
ion      s      p      d    tot
    1  0.000  0.000  0.008  0.009
    2  0.004  0.001  0.004  0.009
    3  0.006  0.001  0.003  0.011
    4  0.004  0.001  0.004  0.009
    5  0.000  0.001  0.007  0.008
    6  0.000  0.000  0.003  0.003
    7  0.007  0.001  0.003  0.011
    8  0.000  0.000  0.003  0.003
    9  0.000  0.000  0.001  0.001
   10  0.000  0.000  0.037  0.037
   11  0.040  0.002  0.015  0.057
   12  0.026  0.002  0.013  0.041
   13  0.041  0.001  0.015  0.058
   14  0.000  0.003  0.027  0.030
   15  0.002  0.001  0.011  0.014
   16  0.026  0.002  0.013  0.041
   17  0.002  0.001  0.011  0.014
   18  0.000  0.004  0.004  0.008
   19  0.006  0.001  0.011  0.018
   20  0.000  0.002  0.032  0.034
   21  0.046  0.002  0.015  0.062
   22  0.014  0.001  0.010  0.025
   23  0.045  0.002  0.015  0.062
   24  0.000  0.000  0.028  0.028
   25  0.000  0.004  0.003  0.007
   26  0.006  0.001  0.011  0.018
   27  0.014  0.001  0.010  0.025
   28  0.000  0.000  0.001  0.001
   29  0.000  0.000  0.002  0.002
   30  0.004  0.001  0.003  0.008
   31  0.000  0.000  0.002  0.002
   32  0.004  0.001  0.003  0.009
   33  0.004  0.001  0.003  0.008
   34  0.004  0.001  0.003  0.009
   35  0.000  0.000  0.004  0.004
   36  0.000  0.002  0.007  0.009
   37  0.000  0.000  0.000  0.000
tot    0.307  0.043  0.344  0.695
 
band     6 # energy   -6.03597034 # occ.  2.00000000
 
ion      s      p      d    tot
    1  0.000  0.000  0.008  0.009
    2  0.003  0.001  0.003  0.007
    3  0.001  0.000  0.003  0.005
    4  0.003  0.001  0.003  0.006
    5  0.000  0.001  0.007  0.008
    6  0.007  0.001  0.004  0.012
    7  0.001  0.000  0.003  0.005
    8  0.007  0.001  0.004  0.012
    9  0.000  0.000  0.001  0.001
   10  0.035  0.002  0.005  0.042
   11  0.014  0.003  0.023  0.039
   12  0.009  0.001  0.029  0.038
   13  0.013  0.003  0.023  0.039
   14  0.054  0.001  0.011  0.066
   15  0.001  0.003  0.006  0.010
   16  0.009  0.001  0.029  0.039
   17  0.001  0.003  0.006  0.010
   18  0.002  0.000  0.013  0.016
   19  0.002  0.003  0.006  0.011
   20  0.060  0.001  0.010  0.071
   21  0.015  0.002  0.026  0.043
   22  0.004  0.001  0.022  0.027
   23  0.016  0.002  0.026  0.044
   24  0.018  0.002  0.004  0.024
   25  0.008  0.000  0.013  0.022
   26  0.002  0.003  0.006  0.011
   27  0.005  0.001  0.022  0.027
   28  0.000  0.000  0.001  0.001
   29  0.006  0.001  0.003  0.010
   30  0.001  0.000  0.003  0.005
   31  0.006  0.001  0.003  0.010
   32  0.001  0.000  0.002  0.004
   33  0.002  0.001  0.003  0.005
   34  0.001  0.000  0.002  0.004
   35  0.000  0.000  0.004  0.004
   36  0.000  0.002  0.007  0.009
   37  0.000  0.000  0.000  0.000
tot    0.307  0.043  0.344  0.695
 
band     7 # energy   -5.99165644 # occ.  2.00000000
 
ion      s      p      d    tot
    1  0.008  0.001  0.001  0.010
    2  0.000  0.001  0.006  0.007
    3  0.000  0.001  0.006  0.007
    4  0.000  0.001  0.006  0.007
    5  0.018  0.002  0.001  0.020
    6  0.000  0.001  0.006  0.007
    7  0.000  0.001  0.006  0.007
    8  0.000  0.001  0.006  0.007
    9  0.000  0.000  0.002  0.002
   10  0.025  0.003  0.002  0.030
   11  0.022  0.001  0.021  0.044
   12  0.024  0.003  0.002  0.029
   13  0.022  0.001  0.021  0.044
   14  0.022  0.001  0.021  0.043
   15  0.000  0.001  0.024  0.025
   16  0.024  0.003  0.002  0.029
   17  0.000  0.001  0.024  0.025
   18  0.000  0.001  0.024  0.025
   19  0.029  0.002  0.003  0.035
   20  0.003  0.002  0.017  0.022
   21  0.003  0.002  0.017  0.022
   22  0.007  0.000  0.027  0.034
   23  0.003  0.002  0.017  0.022
   24  0.006  0.000  0.027  0.034
   25  0.028  0.002  0.003  0.034
   26  0.029  0.002  0.003  0.035
   27  0.007  0.000  0.027  0.034
   28  0.006  0.001  0.002  0.010
   29  0.000  0.000  0.004  0.005
   30  0.000  0.000  0.004  0.005
   31  0.000  0.000  0.004  0.005
   32  0.000  0.000  0.004  0.005
   33  0.000  0.000  0.004  0.005
   34  0.000  0.000  0.004  0.005
   35  0.008  0.001  0.001  0.010
   36  0.002  0.000  0.001  0.004
   37  0.000  0.000  0.000  0.000
tot    0.299  0.040  0.355  0.694
 
band     8 # energy   -5.98611845 # occ.  2.00000000
 
ion      s      p      d    tot
    1  0.000  0.001  0.004  0.005
    2  0.005  0.001  0.004  0.010
    3  0.008  0.001  0.004  0.013
    4  0.005  0.001  0.004  0.010
    5  0.000  0.000  0.004  0.004
    6  0.000  0.000  0.003  0.004
    7  0.008  0.001  0.004  0.013
    8  0.000  0.000  0.003  0.004
    9  0.000  0.001  0.011  0.013
   10  0.028  0.000  0.016  0.044
   11  0.002  0.002  0.019  0.023
   12  0.007  0.004  0.007  0.018
   13  0.002  0.002  0.020  0.023
   14  0.007  0.001  0.009  0.016
   15  0.016  0.001  0.034  0.052
   16  0.007  0.003  0.008  0.019
   17  0.015  0.001  0.035  0.051
   18  0.063  0.002  0.005  0.070
   19  0.011  0.001  0.027  0.039
   20  0.001  0.001  0.012  0.013
   21  0.000  0.002  0.011  0.013
   22  0.008  0.003  0.014  0.025
   23  0.000  0.002  0.011  0.013
   24  0.034  0.001  0.012  0.047
   25  0.042  0.002  0.003  0.047
   26  0.010  0.001  0.028  0.039
   27  0.009  0.003  0.014  0.026
   28  0.000  0.000  0.006  0.007
   29  0.000  0.000  0.002  0.002
   30  0.003  0.001  0.002  0.005
   31  0.000  0.000  0.002  0.002
   32  0.004  0.001  0.003  0.007
   33  0.003  0.001  0.002  0.005
   34  0.004  0.001  0.003  0.007
   35  0.000  0.001  0.003  0.004
   36  0.000  0.000  0.001  0.001
   37  0.000  0.000  0.000  0.000
tot    0.299  0.042  0.352  0.693
 
band     9 # energy   -5.98608895 # occ.  2.00000000
 
ion      s      p      d    tot
    1  0.000  0.001  0.004  0.005
    2  0.004  0.001  0.003  0.008
    3  0.001  0.000  0.004  0.005
    4  0.004  0.001  0.003  0.008
    5  0.000  0.000  0.004  0.004
    6  0.008  0.001  0.004  0.014
    7  0.001  0.000  0.004  0.005
    8  0.008  0.001  0.004  0.014
    9  0.000  0.001  0.011  0.013
   10  0.000  0.005  0.005  0.009
   11  0.005  0.001  0.012  0.018
   12  0.021  0.001  0.014  0.036
   13  0.005  0.001  0.012  0.018
   14  0.000  0.002  0.023  0.025
   15  0.046  0.001  0.015  0.063
   16  0.021  0.001  0.013  0.035
   17  0.048  0.001  0.015  0.064
   18  0.000  0.001  0.045  0.046
   19  0.031  0.002  0.012  0.044
   20  0.000  0.002  0.011  0.013
   21  0.001  0.001  0.012  0.014
   22  0.025  0.001  0.013  0.040
   23  0.001  0.001  0.012  0.014
   24  0.000  0.004  0.015  0.019
   25  0.000  0.000  0.036  0.036
   26  0.032  0.002  0.011  0.044
   27  0.025  0.001  0.013  0.039
   28  0.000  0.000  0.006  0.007
   29  0.004  0.001  0.002  0.007
   30  0.002  0.000  0.002  0.004
   31  0.004  0.001  0.002  0.007
   32  0.001  0.000  0.001  0.002
   33  0.002  0.000  0.002  0.005
   34  0.001  0.000  0.001  0.002
   35  0.000  0.001  0.003  0.004
   36  0.000  0.000  0.001  0.001
   37  0.000  0.000  0.000  0.000
tot    0.299  0.042  0.352  0.693
 
band    10 # energy   -5.95775369 # occ.  2.00000000
 
ion      s      p      d    tot
    1  0.000  0.000  0.000  0.000
    2  0.000  0.000  0.001  0.001
    3  0.000  0.000  0.001  0.001
    4  0.000  0.000  0.001  0.001
    5  0.001  0.000  0.000  0.001
    6  0.000  0.000  0.001  0.001
    7  0.000  0.000  0.001  0.001
    8  0.000  0.000  0.001  0.001
    9  0.001  0.000  0.001  0.001
   10  0.001  0.000  0.007  0.008
   11  0.000  0.000  0.008  0.009
   12  0.001  0.000  0.007  0.008
   13  0.000  0.000  0.008  0.009
   14  0.000  0.000  0.008  0.009
   15  0.004  0.000  0.006  0.009
   16  0.001  0.000  0.007  0.008
   17  0.004  0.000  0.006  0.009
   18  0.004  0.000  0.006  0.009
   19  0.004  0.000  0.026  0.031
   20  0.013  0.001  0.028  0.042
   21  0.013  0.001  0.028  0.042
   22  0.004  0.000  0.026  0.031
   23  0.013  0.001  0.028  0.042
   24  0.004  0.000  0.026  0.031
   25  0.004  0.000  0.026  0.031
   26  0.004  0.000  0.026  0.031
   27  0.004  0.000  0.026  0.031
   28  0.022  0.000  0.015  0.037
   29  0.021  0.000  0.018  0.039
   30  0.021  0.000  0.018  0.039
   31  0.021  0.000  0.018  0.039
   32  0.021  0.000  0.018  0.039
   33  0.021  0.000  0.018  0.039
   34  0.021  0.000  0.018  0.039
   35  0.020  0.000  0.018  0.039
   36  0.016  0.001  0.011  0.028
   37  0.001  0.000  0.000  0.001
tot    0.263  0.010  0.462  0.734
 
band    11 # energy   -5.57583203 # occ.  2.00000000
 
ion      s      p      d    tot
    1  0.005  0.000  0.000  0.005
    2  0.000  0.001  0.007  0.008
    3  0.000  0.001  0.007  0.008
    4  0.000  0.001  0.007  0.008
    5  0.015  0.002  0.000  0.018
    6  0.000  0.001  0.007  0.008
    7  0.000  0.001  0.007  0.008
    8  0.000  0.001  0.007  0.008
    9  0.003  0.001  0.002  0.005
   10  0.000  0.000  0.035  0.035
   11  0.009  0.002  0.003  0.013
   12  0.000  0.000  0.035  0.035
   13  0.009  0.002  0.003  0.013
   14  0.009  0.002  0.003  0.013
   15  0.010  0.001  0.029  0.040
   16  0.000  0.000  0.035  0.035
   17  0.010  0.001  0.029  0.040
   18  0.010  0.001  0.029  0.040
   19  0.012  0.001  0.017  0.030
   20  0.006  0.002  0.020  0.028
   21  0.006  0.002  0.020  0.028
   22  0.001  0.000  0.039  0.040
   23  0.006  0.002  0.020  0.028
   24  0.001  0.000  0.039  0.040
   25  0.012  0.001  0.017  0.030
   26  0.012  0.001  0.017  0.030
   27  0.001  0.000  0.039  0.040
   28  0.011  0.001  0.001  0.014
   29  0.000  0.001  0.008  0.009
   30  0.000  0.001  0.008  0.009
   31  0.000  0.001  0.008  0.009
   32  0.000  0.001  0.008  0.009
   33  0.000  0.001  0.008  0.009
   34  0.000  0.001  0.008  0.009
   35  0.004  0.000  0.001  0.005
   36  0.031  0.002  0.006  0.038
   37  0.004  0.000  0.000  0.004
tot    0.186  0.037  0.523  0.746
 
band    12 # energy   -5.54487511 # occ.  2.00000000
 
ion      s      p      d    tot
    1  0.011  0.002  0.003  0.016
    2  0.000  0.001  0.009  0.010
    3  0.000  0.001  0.009  0.010
    4  0.000  0.001  0.009  0.010
    5  0.002  0.000  0.002  0.003
    6  0.000  0.001  0.009  0.010
    7  0.000  0.001  0.009  0.010
    8  0.000  0.001  0.009  0.010
    9  0.020  0.002  0.000  0.022
   10  0.010  0.001  0.018  0.029
   11  0.001  0.000  0.047  0.048
   12  0.010  0.001  0.018  0.030
   13  0.001  0.000  0.047  0.048
   14  0.001  0.000  0.047  0.048
   15  0.006  0.002  0.018  0.025
   16  0.010  0.001  0.018  0.030
   17  0.006  0.002  0.018  0.025
   18  0.006  0.002  0.018  0.025
   19  0.002  0.001  0.017  0.020
   20  0.003  0.000  0.046  0.049
   21  0.003  0.000  0.046  0.049
   22  0.012  0.001  0.014  0.027
   23  0.003  0.000  0.046  0.049
   24  0.012  0.001  0.014  0.027
   25  0.002  0.001  0.017  0.020
   26  0.002  0.001  0.017  0.020
   27  0.012  0.001  0.014  0.027
   28  0.008  0.001  0.000  0.009
   29  0.000  0.000  0.005  0.005
   30  0.000  0.000  0.005  0.005
   31  0.000  0.000  0.005  0.005
   32  0.000  0.000  0.005  0.005
   33  0.000  0.000  0.005  0.005
   34  0.000  0.000  0.005  0.005
   35  0.010  0.001  0.003  0.015
   36  0.001  0.000  0.004  0.004
   37  0.001  0.000  0.000  0.001
tot    0.154  0.029  0.571  0.754
 
band    13 # energy   -5.54112975 # occ.  2.00000000
 
ion      s      p      d    tot
    1  0.000  0.001  0.004  0.004
    2  0.009  0.001  0.004  0.015
    3  0.001  0.000  0.005  0.006
    4  0.009  0.001  0.004  0.015
    5  0.000  0.001  0.011  0.012
    6  0.005  0.001  0.005  0.011
    7  0.001  0.000  0.005  0.006
    8  0.005  0.001  0.005  0.011
    9  0.000  0.000  0.010  0.010
   10  0.008  0.002  0.010  0.020
   11  0.005  0.000  0.043  0.048
   12  0.002  0.001  0.039  0.042
   13  0.005  0.000  0.044  0.049
   14  0.020  0.001  0.010  0.032
   15  0.001  0.001  0.015  0.017
   16  0.002  0.001  0.038  0.042
   17  0.001  0.001  0.015  0.016
   18  0.002  0.000  0.023  0.026
   19  0.002  0.001  0.013  0.016
   20  0.024  0.001  0.006  0.031
   21  0.006  0.000  0.054  0.060
   22  0.001  0.001  0.032  0.034
   23  0.006  0.000  0.053  0.059
   24  0.005  0.001  0.012  0.018
   25  0.007  0.000  0.022  0.029
   26  0.002  0.001  0.013  0.015
   27  0.001  0.001  0.032  0.034
   28  0.000  0.000  0.007  0.007
   29  0.006  0.001  0.004  0.011
   30  0.000  0.000  0.004  0.004
   31  0.006  0.001  0.004  0.011
   32  0.006  0.001  0.004  0.011
   33  0.000  0.000  0.004  0.004
   34  0.007  0.001  0.004  0.011
   35  0.000  0.000  0.003  0.003
   36  0.000  0.003  0.006  0.009
   37  0.000  0.000  0.000  0.000
tot    0.154  0.031  0.565  0.750
 
band    14 # energy   -5.54112892 # occ.  2.00000000
 
ion      s      p      d    tot
    1  0.000  0.001  0.004  0.004
    2  0.001  0.001  0.005  0.006
    3  0.009  0.001  0.005  0.015
    4  0.001  0.001  0.005  0.006
    5  0.000  0.001  0.011  0.012
    6  0.005  0.001  0.004  0.010
    7  0.009  0.001  0.005  0.015
    8  0.005  0.001  0.004  0.010
    9  0.000  0.000  0.010  0.010
   10  0.000  0.001  0.048  0.049
   11  0.015  0.001  0.022  0.038
   12  0.006  0.002  0.019  0.027
   13  0.015  0.001  0.021  0.037
   14  0.000  0.000  0.054  0.054
   15  0.002  0.000  0.020  0.023
   16  0.006  0.002  0.020  0.027
   17  0.002  0.000  0.021  0.023
   18  0.000  0.001  0.012  0.013
   19  0.005  0.000  0.019  0.024
   20  0.000  0.000  0.069  0.069
   21  0.018  0.001  0.021  0.041
   22  0.004  0.001  0.018  0.023
   23  0.018  0.001  0.022  0.041
   24  0.000  0.001  0.038  0.039
   25  0.000  0.001  0.010  0.011
   26  0.005  0.000  0.019  0.024
   27  0.004  0.001  0.019  0.023
   28  0.000  0.000  0.007  0.007
   29  0.002  0.001  0.004  0.006
   30  0.009  0.001  0.004  0.014
   31  0.002  0.001  0.004  0.007
   32  0.002  0.001  0.004  0.007
   33  0.009  0.001  0.004  0.014
   34  0.002  0.001  0.004  0.006
   35  0.000  0.000  0.003  0.003
   36  0.000  0.003  0.006  0.009
   37  0.000  0.000  0.000  0.000
tot    0.154  0.031  0.565  0.750
 
band    15 # energy   -5.50261430 # occ.  2.00000000
 
ion      s      p      d    tot
    1  0.000  0.001  0.015  0.015
    2  0.010  0.001  0.004  0.015
    3  0.001  0.000  0.005  0.007
    4  0.010  0.001  0.004  0.015
    5  0.000  0.000  0.006  0.006
    6  0.004  0.001  0.005  0.010
    7  0.001  0.000  0.005  0.007
    8  0.004  0.001  0.005  0.010
    9  0.000  0.001  0.006  0.008
   10  0.000  0.001  0.032  0.033
   11  0.000  0.001  0.020  0.021
   12  0.008  0.000  0.022  0.030
   13  0.000  0.001  0.020  0.021
   14  0.000  0.001  0.018  0.019
   15  0.010  0.002  0.021  0.033
   16  0.008  0.000  0.022  0.030
   17  0.010  0.002  0.020  0.033
   18  0.000  0.000  0.063  0.063
   19  0.015  0.001  0.020  0.036
   20  0.000  0.002  0.019  0.021
   21  0.000  0.001  0.022  0.023
   22  0.017  0.001  0.021  0.039
   23  0.000  0.001  0.022  0.023
   24  0.000  0.001  0.031  0.031
   25  0.000  0.000  0.068  0.068
   26  0.015  0.001  0.020  0.035
   27  0.017  0.001  0.021  0.039
   28  0.000  0.001  0.005  0.006
   29  0.005  0.001  0.004  0.010
   30  0.000  0.000  0.004  0.005
   31  0.005  0.001  0.004  0.010
   32  0.004  0.001  0.002  0.008
   33  0.000  0.000  0.004  0.005
   34  0.004  0.001  0.002  0.008
   35  0.000  0.001  0.008  0.009
   36  0.000  0.000  0.002  0.002
   37  0.000  0.000  0.000  0.000
tot    0.149  0.029  0.573  0.751
 
band    16 # energy   -5.50258895 # occ.  2.00000000
 
ion      s      p      d    tot
    1  0.000  0.001  0.015  0.015
    2  0.000  0.000  0.005  0.006
    3  0.009  0.001  0.005  0.015
    4  0.000  0.000  0.005  0.006
    5  0.000  0.000  0.006  0.006
    6  0.006  0.001  0.005  0.011
    7  0.009  0.001  0.005  0.015
    8  0.006  0.001  0.005  0.011
    9  0.000  0.001  0.006  0.008
   10  0.010  0.000  0.019  0.029
   11  0.000  0.001  0.018  0.020
   12  0.003  0.001  0.029  0.032
   13  0.000  0.001  0.018  0.020
   14  0.001  0.001  0.020  0.022
   15  0.003  0.001  0.048  0.053
   16  0.003  0.001  0.029  0.032
   17  0.003  0.001  0.049  0.053
   18  0.014  0.002  0.006  0.023
   19  0.005  0.001  0.052  0.057
   20  0.000  0.000  0.023  0.023
   21  0.000  0.001  0.020  0.021
   22  0.006  0.001  0.028  0.034
   23  0.000  0.001  0.020  0.021
   24  0.023  0.001  0.018  0.041
   25  0.020  0.001  0.004  0.025
   26  0.005  0.001  0.052  0.057
   27  0.006  0.001  0.028  0.034
   28  0.000  0.001  0.005  0.006
   29  0.001  0.000  0.003  0.005
   30  0.006  0.001  0.003  0.010
   31  0.001  0.000  0.003  0.005
   32  0.002  0.001  0.004  0.007
   33  0.006  0.001  0.003  0.010
   34  0.002  0.001  0.004  0.007
   35  0.000  0.001  0.008  0.009
   36  0.000  0.000  0.002  0.002
   37  0.000  0.000  0.000  0.000
tot    0.149  0.029  0.573  0.751
 
band    17 # energy   -5.17814646 # occ.  2.00000000
 
ion      s      p      d    tot
    1  0.008  0.000  0.010  0.018
    2  0.000  0.001  0.023  0.024
    3  0.000  0.001  0.023  0.024
    4  0.000  0.001  0.023  0.024
    5  0.004  0.000  0.000  0.004
    6  0.000  0.001  0.023  0.023
    7  0.000  0.001  0.023  0.024
    8  0.000  0.001  0.023  0.023
    9  0.024  0.000  0.008  0.033
   10  0.000  0.000  0.026  0.027
   11  0.000  0.000  0.015  0.016
   12  0.000  0.000  0.026  0.026
   13  0.000  0.000  0.015  0.016
   14  0.000  0.000  0.015  0.015
   15  0.000  0.000  0.034  0.035
   16  0.000  0.000  0.026  0.026
   17  0.000  0.000  0.034  0.035
   18  0.000  0.000  0.034  0.035
   19  0.000  0.000  0.028  0.029
   20  0.000  0.000  0.033  0.033
   21  0.000  0.000  0.033  0.033
   22  0.000  0.000  0.020  0.020
   23  0.000  0.000  0.033  0.033
   24  0.000  0.000  0.020  0.020
   25  0.000  0.000  0.028  0.029
   26  0.000  0.000  0.028  0.029
   27  0.000  0.000  0.020  0.020
   28  0.008  0.000  0.009  0.017
   29  0.000  0.001  0.016  0.017
   30  0.000  0.001  0.016  0.017
   31  0.000  0.001  0.016  0.017
   32  0.000  0.001  0.016  0.017
   33  0.000  0.001  0.016  0.017
   34  0.000  0.001  0.016  0.017
   35  0.003  0.000  0.000  0.004
   36  0.026  0.000  0.000  0.026
   37  0.002  0.000  0.000  0.003
tot    0.079  0.015  0.729  0.823
 
band    18 # energy   -5.16094298 # occ.  2.00000000
 
ion      s      p      d    tot
    1  0.000  0.000  0.024  0.024
    2  0.001  0.001  0.011  0.013
    3  0.005  0.000  0.016  0.021
    4  0.001  0.001  0.011  0.013
    5  0.000  0.001  0.026  0.027
    6  0.011  0.001  0.010  0.022
    7  0.005  0.000  0.016  0.021
    8  0.011  0.001  0.010  0.022
    9  0.000  0.001  0.005  0.006
   10  0.000  0.000  0.022  0.023
   11  0.000  0.000  0.055  0.055
   12  0.000  0.000  0.013  0.013
   13  0.000  0.000  0.055  0.055
   14  0.000  0.001  0.047  0.048
   15  0.000  0.000  0.027  0.027
   16  0.000  0.000  0.013  0.013
   17  0.000  0.000  0.027  0.027
   18  0.000  0.000  0.039  0.039
   19  0.000  0.000  0.009  0.009
   20  0.002  0.000  0.061  0.062
   21  0.000  0.000  0.036  0.036
   22  0.000  0.000  0.029  0.030
   23  0.000  0.000  0.036  0.037
   24  0.000  0.000  0.026  0.026
   25  0.001  0.000  0.012  0.012
   26  0.000  0.000  0.009  0.009
   27  0.000  0.000  0.029  0.030
   28  0.000  0.000  0.007  0.008
   29  0.007  0.001  0.011  0.019
   30  0.000  0.000  0.008  0.008
   31  0.007  0.001  0.011  0.019
   32  0.005  0.000  0.005  0.011
   33  0.000  0.000  0.008  0.008
   34  0.005  0.000  0.005  0.011
   35  0.000  0.000  0.016  0.017
   36  0.000  0.002  0.005  0.008
   37  0.000  0.000  0.000  0.000
tot    0.062  0.016  0.750  0.828
 
band    19 # energy   -5.16093228 # occ.  2.00000000
 
ion      s      p      d    tot
    1  0.000  0.000  0.024  0.024
    2  0.010  0.001  0.014  0.024
    3  0.007  0.001  0.009  0.017
    4  0.010  0.001  0.014  0.024
    5  0.000  0.001  0.026  0.027
    6  0.000  0.000  0.015  0.015
    7  0.007  0.001  0.009  0.017
    8  0.000  0.000  0.015  0.015
    9  0.000  0.001  0.005  0.006
   10  0.000  0.000  0.009  0.010
   11  0.000  0.001  0.050  0.050
   12  0.000  0.000  0.019  0.020
   13  0.000  0.001  0.050  0.050
   14  0.000  0.000  0.057  0.057
   15  0.000  0.000  0.035  0.035
   16  0.000  0.000  0.019  0.020
   17  0.000  0.000  0.035  0.035
   18  0.000  0.000  0.023  0.023
   19  0.000  0.000  0.011  0.011
   20  0.000  0.000  0.028  0.028
   21  0.001  0.000  0.052  0.054
   22  0.000  0.000  0.027  0.028
   23  0.001  0.000  0.052  0.054
   24  0.000  0.000  0.030  0.031
   25  0.000  0.000  0.008  0.008
   26  0.000  0.000  0.011  0.011
   27  0.000  0.000  0.027  0.028
   28  0.000  0.000  0.007  0.008
   29  0.001  0.000  0.005  0.006
   30  0.008  0.001  0.009  0.017
   31  0.001  0.000  0.005  0.006
   32  0.003  0.000  0.011  0.014
   33  0.008  0.001  0.009  0.017
   34  0.003  0.000  0.011  0.014
   35  0.000  0.000  0.016  0.017
   36  0.000  0.002  0.005  0.008
   37  0.000  0.000  0.000  0.000
tot    0.062  0.016  0.750  0.828
 
band    20 # energy   -5.14947444 # occ.  2.00000000
 
ion      s      p      d    tot
    1  0.011  0.000  0.002  0.013
    2  0.000  0.000  0.010  0.010
    3  0.000  0.000  0.010  0.010
    4  0.000  0.000  0.010  0.010
    5  0.002  0.000  0.015  0.017
    6  0.000  0.000  0.010  0.010
    7  0.000  0.000  0.010  0.010
    8  0.000  0.000  0.010  0.010
    9  0.003  0.001  0.004  0.007
   10  0.000  0.000  0.022  0.023
   11  0.000  0.000  0.047  0.048
   12  0.000  0.000  0.022  0.022
   13  0.000  0.000  0.047  0.048
   14  0.000  0.000  0.047  0.048
   15  0.000  0.000  0.035  0.035
   16  0.000  0.000  0.022  0.022
   17  0.000  0.000  0.035  0.035
   18  0.000  0.000  0.035  0.035
   19  0.000  0.000  0.022  0.022
   20  0.001  0.000  0.038  0.040
   21  0.001  0.000  0.038  0.040
   22  0.001  0.000  0.033  0.034
   23  0.001  0.000  0.038  0.040
   24  0.001  0.000  0.033  0.034
   25  0.000  0.000  0.022  0.022
   26  0.000  0.000  0.022  0.022
   27  0.001  0.000  0.033  0.034
   28  0.013  0.001  0.000  0.014
   29  0.000  0.001  0.014  0.014
   30  0.000  0.001  0.014  0.014
   31  0.000  0.001  0.014  0.014
   32  0.000  0.001  0.014  0.014
   33  0.000  0.001  0.014  0.014
   34  0.000  0.001  0.014  0.014
   35  0.013  0.000  0.004  0.017
   36  0.000  0.000  0.010  0.011
   37  0.001  0.000  0.000  0.002
tot    0.051  0.013  0.769  0.833
 
band    21 # energy   -5.12031825 # occ.  2.00000000
 
ion      s      p      d    tot
    1  0.000  0.002  0.014  0.016
    2  0.014  0.001  0.019  0.033
    3  0.010  0.001  0.012  0.023
    4  0.013  0.001  0.019  0.033
    5  0.000  0.001  0.018  0.019
    6  0.000  0.001  0.018  0.019
    7  0.009  0.001  0.012  0.022
    8  0.000  0.001  0.018  0.019
    9  0.000  0.000  0.043  0.043
   10  0.000  0.001  0.054  0.055
   11  0.000  0.000  0.019  0.019
   12  0.000  0.000  0.050  0.050
   13  0.000  0.000  0.019  0.019
   14  0.000  0.000  0.027  0.027
   15  0.000  0.001  0.035  0.036
   16  0.000  0.000  0.050  0.050
   17  0.000  0.001  0.035  0.036
   18  0.000  0.001  0.028  0.030
   19  0.000  0.000  0.022  0.022
   20  0.000  0.000  0.018  0.018
   21  0.000  0.000  0.014  0.015
   22  0.001  0.000  0.012  0.013
   23  0.000  0.000  0.014  0.015
   24  0.004  0.000  0.023  0.027
   25  0.001  0.000  0.032  0.033
   26  0.000  0.000  0.022  0.022
   27  0.001  0.000  0.012  0.013
   28  0.000  0.000  0.014  0.014
   29  0.000  0.000  0.007  0.008
   30  0.006  0.000  0.004  0.011
   31  0.000  0.000  0.007  0.008
   32  0.003  0.000  0.009  0.013
   33  0.006  0.000  0.004  0.011
   34  0.004  0.000  0.009  0.013
   35  0.000  0.001  0.005  0.006
   36  0.000  0.000  0.008  0.008