PROCAR new format
# of k-points:   10         # of bands:  252         # of ions:   37

 k-point     1 :    0.00000000 0.00000000 0.00000000     weight = 0.01562500

band     1 # energy  -48.73899010 # occ.  2.00000000
 
ion      s      p      d    tot
    1  0.000  0.000  0.000  0.000
    2  0.000  0.000  0.000  0.000
    3  0.000  0.000  0.000  0.000
    4  0.000  0.000  0.000  0.000
    5  0.000  0.000  0.000  0.000
    6  0.000  0.000  0.000  0.000
    7  0.000  0.000  0.000  0.000
    8  0.000  0.000  0.000  0.000
    9  0.000  0.000  0.000  0.000
   10  0.000  0.000  0.000  0.000
   11  0.000  0.000  0.000  0.000
   12  0.000  0.000  0.000  0.000
   13  0.000  0.000  0.000  0.000
   14  0.000  0.000  0.000  0.000
   15  0.000  0.000  0.000  0.000
   16  0.000  0.000  0.000  0.000
   17  0.000  0.000  0.000  0.000
   18  0.000  0.000  0.000  0.000
   19  0.000  0.000  0.000  0.000
   20  0.000  0.000  0.000  0.000
   21  0.000  0.000  0.000  0.000
   22  0.000  0.000  0.000  0.000
   23  0.000  0.000  0.000  0.000
   24  0.000  0.000  0.000  0.000
   25  0.000  0.000  0.000  0.000
   26  0.000  0.000  0.000  0.000
   27  0.000  0.000  0.000  0.000
   28  0.000  0.000  0.000  0.000
   29  0.000  0.000  0.000  0.000
   30  0.000  0.000  0.000  0.000
   31  0.000  0.000  0.000  0.000
   32  0.000  0.000  0.000  0.000
   33  0.000  0.000  0.000  0.000
   34  0.000  0.000  0.000  0.000
   35  0.000  0.000  0.000  0.000
   36  0.993  0.000  0.000  0.993
   37  0.000  0.000  0.000  0.000
tot    0.993  0.000  0.000  0.993
 
band     2 # energy  -26.84139840 # occ.  2.00000000
 
ion      s      p      d    tot
    1  0.000  0.000  0.000  0.000
    2  0.000  0.000  0.000  0.000
    3  0.000  0.000  0.000  0.000
    4  0.000  0.000  0.000  0.000
    5  0.000  0.000  0.000  0.000
    6  0.000  0.000  0.000  0.000
    7  0.000  0.000  0.000  0.000
    8  0.000  0.000  0.000  0.000
    9  0.000  0.000  0.000  0.000
   10  0.000  0.000  0.000  0.000
   11  0.000  0.000  0.000  0.000
   12  0.000  0.000  0.000  0.000
   13  0.000  0.000  0.000  0.000
   14  0.000  0.000  0.000  0.000
   15  0.000  0.000  0.000  0.000
   16  0.000  0.000  0.000  0.000
   17  0.000  0.000  0.000  0.000
   18  0.000  0.000  0.000  0.000
   19  0.000  0.000  0.000  0.000
   20  0.000  0.000  0.000  0.000
   21  0.000  0.000  0.000  0.000
   22  0.000  0.000  0.000  0.000
   23  0.000  0.000  0.000  0.000
   24  0.000  0.000  0.000  0.000
   25  0.000  0.000  0.000  0.000
   26  0.000  0.000  0.000  0.000
   27  0.000  0.000  0.000  0.000
   28  0.000  0.000  0.000  0.000
   29  0.000  0.000  0.000  0.000
   30  0.000  0.000  0.000  0.001
   31  0.000  0.000  0.000  0.000
   32  0.000  0.000  0.000  0.000
   33  0.000  0.000  0.000  0.001
   34  0.000  0.000  0.000  0.000
   35  0.000  0.000  0.000  0.000
   36  0.000  0.970  0.000  0.970
   37  0.000  0.000  0.000  0.000
tot    0.001  0.971  0.001  0.973
 
band     3 # energy  -26.84138618 # occ.  2.00000000
 
ion      s      p      d    tot
    1  0.000  0.000  0.000  0.000
    2  0.000  0.000  0.000  0.000
    3  0.000  0.000  0.000  0.000
    4  0.000  0.000  0.000  0.000
    5  0.000  0.000  0.000  0.000
    6  0.000  0.000  0.000  0.000
    7  0.000  0.000  0.000  0.000
    8  0.000  0.000  0.000  0.000
    9  0.000  0.000  0.000  0.000
   10  0.000  0.000  0.000  0.000
   11  0.000  0.000  0.000  0.000
   12  0.000  0.000  0.000  0.000
   13  0.000  0.000  0.000  0.000
   14  0.000  0.000  0.000  0.000
   15  0.000  0.000  0.000  0.000
   16  0.000  0.000  0.000  0.000
   17  0.000  0.000  0.000  0.000
   18  0.000  0.000  0.000  0.000
   19  0.000  0.000  0.000  0.000
   20  0.000  0.000  0.000  0.000
   21  0.000  0.000  0.000  0.000
   22  0.000  0.000  0.000  0.000
   23  0.000  0.000  0.000  0.000
   24  0.000  0.000  0.000  0.000
   25  0.000  0.000  0.000  0.000
   26  0.000  0.000  0.000  0.000
   27  0.000  0.000  0.000  0.000
   28  0.000  0.000  0.000  0.000
   29  0.000  0.000  0.000  0.001
   30  0.000  0.000  0.000  0.000
   31  0.000  0.000  0.000  0.001
   32  0.000  0.000  0.000  0.001
   33  0.000  0.000  0.000  0.000
   34  0.000  0.000  0.000  0.001
   35  0.000  0.000  0.000  0.000
   36  0.000  0.970  0.000  0.970
   37  0.000  0.000  0.000  0.000
tot    0.001  0.971  0.001  0.973
 
band     4 # energy  -26.60920465 # occ.  2.00000000
 
ion      s      p      d    tot
    1  0.000  0.000  0.000  0.000
    2  0.000  0.000  0.000  0.000
    3  0.000  0.000  0.000  0.000
    4  0.000  0.000  0.000  0.000
    5  0.000  0.000  0.000  0.000
    6  0.000  0.000  0.000  0.000
    7  0.000  0.000  0.000  0.000
    8  0.000  0.000  0.000  0.000
    9  0.000  0.000  0.000  0.000
   10  0.000  0.000  0.000  0.000
   11  0.000  0.000  0.000  0.000
   12  0.000  0.000  0.000  0.000
   13  0.000  0.000  0.000  0.000
   14  0.000  0.000  0.000  0.000
   15  0.000  0.000  0.000  0.000
   16  0.000  0.000  0.000  0.000
   17  0.000  0.000  0.000  0.000
   18  0.000  0.000  0.000  0.000
   19  0.000  0.000  0.000  0.000
   20  0.000  0.000  0.000  0.001
   21  0.000  0.000  0.000  0.001
   22  0.000  0.000  0.000  0.000
   23  0.000  0.000  0.000  0.001
   24  0.000  0.000  0.000  0.000
   25  0.000  0.000  0.000  0.000
   26  0.000  0.000  0.000  0.000
   27  0.000  0.000  0.000  0.000
   28  0.000  0.000  0.000  0.000
   29  0.000  0.000  0.000  0.000
   30  0.000  0.000  0.000  0.000
   31  0.000  0.000  0.000  0.000
   32  0.000  0.000  0.000  0.000
   33  0.000  0.000  0.000  0.000
   34  0.000  0.000  0.000  0.000
   35  0.000  0.000  0.000  0.000
   36  0.000  0.968  0.000  0.968
   37  0.002  0.000  0.000  0.002
tot    0.002  0.969  0.001  0.973
 
band     5 # energy   -8.10846521 # occ.  2.00000000
 
ion      s      p      d    tot
    1  0.007  0.001  0.000  0.007
    2  0.007  0.001  0.000  0.007
    3  0.007  0.001  0.000  0.007
    4  0.007  0.001  0.000  0.007
    5  0.007  0.001  0.000  0.007
    6  0.007  0.001  0.000  0.007
    7  0.007  0.001  0.000  0.007
    8  0.007  0.001  0.000  0.007
    9  0.006  0.001  0.000  0.007
   10  0.027  0.000  0.000  0.027
   11  0.027  0.000  0.000  0.028
   12  0.027  0.000  0.000  0.027
   13  0.027  0.000  0.000  0.028
   14  0.027  0.000  0.000  0.028
   15  0.026  0.000  0.000  0.026
   16  0.027  0.000  0.000  0.027
   17  0.026  0.000  0.000  0.026
   18  0.026  0.000  0.000  0.026
   19  0.024  0.000  0.000  0.024
   20  0.027  0.000  0.000  0.027
   21  0.027  0.000  0.000  0.027
   22  0.024  0.000  0.000  0.024
   23  0.027  0.000  0.000  0.027
   24  0.024  0.000  0.000  0.024
   25  0.024  0.000  0.000  0.024
   26  0.024  0.000  0.000  0.024
   27  0.024  0.000  0.000  0.024
   28  0.005  0.000  0.000  0.005
   29  0.005  0.000  0.000  0.005
   30  0.005  0.000  0.000  0.005
   31  0.005  0.000  0.000  0.005
   32  0.005  0.000  0.000  0.005
   33  0.005  0.000  0.000  0.005
   34  0.005  0.000  0.000  0.005
   35  0.005  0.000  0.000  0.005
   36  0.003  0.000  0.000  0.003
   37  0.000  0.000  0.000  0.000
tot    0.562  0.011  0.003  0.577
 
band     6 # energy   -6.94432812 # occ.  2.00000000
 
ion      s      p      d    tot
    1  0.016  0.000  0.001  0.018
    2  0.016  0.000  0.001  0.018
    3  0.016  0.000  0.001  0.018
    4  0.016  0.000  0.001  0.018
    5  0.016  0.000  0.001  0.018
    6  0.016  0.000  0.001  0.018
    7  0.016  0.000  0.001  0.018
    8  0.016  0.000  0.001  0.018
    9  0.016  0.000  0.001  0.018
   10  0.011  0.001  0.002  0.015
   11  0.010  0.001  0.003  0.014
   12  0.011  0.001  0.002  0.014
   13  0.010  0.001  0.003  0.014
   14  0.010  0.001  0.003  0.014
   15  0.010  0.001  0.002  0.014
   16  0.011  0.001  0.002  0.014
   17  0.010  0.001  0.002  0.014
   18  0.010  0.001  0.002  0.014
   19  0.013  0.001  0.003  0.017
   20  0.014  0.001  0.004  0.019
   21  0.014  0.001  0.004  0.019
   22  0.014  0.001  0.003  0.018
   23  0.014  0.001  0.004  0.019
   24  0.014  0.001  0.003  0.018
   25  0.013  0.001  0.003  0.017
   26  0.013  0.001  0.003  0.017
   27  0.014  0.001  0.003  0.018
   28  0.016  0.000  0.001  0.017
   29  0.015  0.000  0.001  0.017
   30  0.015  0.000  0.001  0.017
   31  0.015  0.000  0.001  0.017
   32  0.015  0.000  0.001  0.016
   33  0.015  0.000  0.001  0.017
   34  0.015  0.000  0.001  0.016
   35  0.016  0.000  0.001  0.017
   36  0.006  0.000  0.000  0.007
   37  0.000  0.000  0.000  0.000
tot    0.491  0.031  0.069  0.591
 
band     7 # energy   -6.02285045 # occ.  2.00000000
 
ion      s      p      d    tot
    1  0.003  0.000  0.009  0.012
    2  0.008  0.000  0.007  0.015
    3  0.008  0.000  0.007  0.015
    4  0.008  0.000  0.007  0.015
    5  0.005  0.000  0.005  0.011
    6  0.008  0.000  0.007  0.015
    7  0.008  0.000  0.007  0.015
    8  0.008  0.000  0.007  0.015
    9  0.021  0.000  0.004  0.024
   10  0.006  0.001  0.006  0.013
   11  0.006  0.002  0.003  0.011
   12  0.006  0.001  0.006  0.013
   13  0.006  0.002  0.003  0.011
   14  0.006  0.002  0.003  0.011
   15  0.002  0.001  0.005  0.008
   16  0.006  0.001  0.006  0.013
   17  0.002  0.001  0.005  0.008
   18  0.002  0.001  0.005  0.008
   19  0.002  0.001  0.015  0.017
   20  0.020  0.002  0.013  0.035
   21  0.020  0.002  0.013  0.035
   22  0.000  0.001  0.008  0.010
   23  0.020  0.002  0.013  0.035
   24  0.000  0.001  0.008  0.010
   25  0.002  0.001  0.015  0.017
   26  0.002  0.001  0.015  0.017
   27  0.000  0.001  0.008  0.010
   28  0.020  0.000  0.008  0.029
   29  0.017  0.000  0.014  0.031
   30  0.017  0.000  0.014  0.031
   31  0.017  0.000  0.014  0.031
   32  0.017  0.000  0.014  0.031
   33  0.017  0.000  0.014  0.031
   34  0.017  0.000  0.014  0.031
   35  0.029  0.000  0.010  0.040
   36  0.001  0.001  0.008  0.009
   37  0.000  0.000  0.000  0.000
tot    0.337  0.024  0.319  0.681
 
band     8 # energy   -5.98181544 # occ.  2.00000000
 
ion      s      p      d    tot
    1  0.000  0.001  0.008  0.009
    2  0.003  0.001  0.003  0.007
    3  0.006  0.001  0.003  0.011
    4  0.003  0.001  0.004  0.007
    5  0.000  0.001  0.006  0.007
    6  0.001  0.000  0.003  0.004
    7  0.007  0.001  0.003  0.011
    8  0.001  0.000  0.003  0.004
    9  0.000  0.000  0.001  0.001
   10  0.000  0.000  0.037  0.037
   11  0.036  0.001  0.015  0.052
   12  0.030  0.002  0.012  0.044
   13  0.036  0.001  0.015  0.052
   14  0.000  0.004  0.021  0.025
   15  0.000  0.001  0.010  0.011
   16  0.030  0.002  0.012  0.044
   17  0.000  0.001  0.010  0.011
   18  0.000  0.003  0.006  0.009
   19  0.010  0.001  0.011  0.022
   20  0.000  0.002  0.041  0.043
   21  0.047  0.002  0.017  0.065
   22  0.010  0.001  0.011  0.021
   23  0.047  0.002  0.017  0.065
   24  0.000  0.001  0.024  0.025
   25  0.000  0.004  0.004  0.008
   26  0.010  0.001  0.011  0.022
   27  0.010  0.001  0.011  0.022
   28  0.000  0.000  0.001  0.002
   29  0.000  0.000  0.002  0.003
   30  0.004  0.001  0.003  0.008
   31  0.000  0.000  0.002  0.003
   32  0.005  0.001  0.004  0.010
   33  0.004  0.001  0.003  0.008
   34  0.005  0.001  0.004  0.010
   35  0.000  0.000  0.004  0.004
   36  0.000  0.001  0.004  0.005
   37  0.000  0.000  0.000  0.000
tot    0.304  0.042  0.344  0.690
 
band     9 # energy   -5.98178103 # occ.  2.00000000
 
ion      s      p      d    tot
    1  0.000  0.001  0.008  0.009
    2  0.004  0.001  0.003  0.007
    3  0.000  0.000  0.003  0.004
    4  0.004  0.001  0.003  0.007
    5  0.000  0.001  0.006  0.007
    6  0.006  0.001  0.003  0.011
    7  0.000  0.000  0.003  0.004
    8  0.006  0.001  0.003  0.011
    9  0.000  0.000  0.001  0.001
   10  0.040  0.002  0.004  0.046
   11  0.012  0.003  0.019  0.034
   12  0.010  0.001  0.029  0.039
   13  0.012  0.003  0.019  0.034
   14  0.048  0.001  0.013  0.061
   15  0.000  0.002  0.007  0.010
   16  0.010  0.001  0.029  0.039
   17  0.000  0.002  0.007  0.010
   18  0.000  0.000  0.011  0.012
   19  0.003  0.003  0.006  0.013
   20  0.062  0.001  0.009  0.073
   21  0.015  0.002  0.033  0.050
   22  0.003  0.001  0.020  0.024
   23  0.016  0.002  0.033  0.050
   24  0.013  0.002  0.006  0.020
   25  0.014  0.000  0.013  0.027
   26  0.003  0.003  0.006  0.013
   27  0.003  0.001  0.019  0.024
   28  0.000  0.000  0.001  0.002
   29  0.006  0.001  0.004  0.011
   30  0.002  0.001  0.003  0.006
   31  0.006  0.001  0.004  0.011
   32  0.001  0.000  0.002  0.004
   33  0.002  0.001  0.003  0.006
   34  0.001  0.000  0.002  0.004
   35  0.000  0.000  0.004  0.004
   36  0.000  0.001  0.004  0.005
   37  0.000  0.000  0.000  0.000
tot    0.304  0.042  0.345  0.690
 
band    10 # energy   -5.96903849 # occ.  2.00000000
 
ion      s      p      d    tot
    1  0.023  0.000  0.012  0.034
    2  0.014  0.000  0.016  0.030
    3  0.014  0.000  0.016  0.030
    4  0.014  0.000  0.016  0.030
    5  0.016  0.000  0.016  0.032
    6  0.014  0.000  0.016  0.030
    7  0.014  0.000  0.016  0.030
    8  0.014  0.000  0.016  0.030
    9  0.006  0.000  0.017  0.024
   10  0.002  0.000  0.031  0.033
   11  0.004  0.000  0.025  0.030
   12  0.002  0.000  0.031  0.033
   13  0.004  0.000  0.025  0.030
   14  0.004  0.000  0.025  0.030
   15  0.020  0.001  0.018  0.038
   16  0.002  0.000  0.031  0.033
   17  0.020  0.001  0.018  0.038
   18  0.020  0.001  0.018  0.039
   19  0.002  0.000  0.012  0.014
   20  0.009  0.000  0.015  0.024
   21  0.009  0.000  0.015  0.023
   22  0.000  0.001  0.010  0.011
   23  0.009  0.000  0.015  0.023
   24  0.000  0.001  0.010  0.011
   25  0.002  0.000  0.012  0.014
   26  0.002  0.000  0.012  0.014
   27  0.000  0.001  0.010  0.011
   28  0.000  0.000  0.000  0.001
   29  0.001  0.000  0.002  0.002
   30  0.001  0.000  0.002  0.002
   31  0.001  0.000  0.002  0.002
   32  0.001  0.000  0.002  0.002
   33  0.001  0.000  0.002  0.002
   34  0.001  0.000  0.002  0.002
   35  0.003  0.000  0.001  0.004
   36  0.000  0.000  0.002  0.002
   37  0.000  0.000  0.000  0.000
tot    0.245  0.009  0.488  0.742
 
band    11 # energy   -5.95005146 # occ.  2.00000000
 
ion      s      p      d    tot
    1  0.010  0.002  0.001  0.012
    2  0.000  0.001  0.006  0.006
    3  0.000  0.001  0.006  0.006
    4  0.000  0.001  0.006  0.006
    5  0.013  0.001  0.001  0.016
    6  0.000  0.001  0.006  0.006
    7  0.000  0.001  0.006  0.006
    8  0.000  0.001  0.006  0.006
    9  0.000  0.000  0.001  0.001
   10  0.028  0.003  0.001  0.032
   11  0.016  0.000  0.025  0.042
   12  0.028  0.003  0.001  0.032
   13  0.016  0.000  0.025  0.042
   14  0.017  0.000  0.025  0.042
   15  0.000  0.001  0.019  0.021
   16  0.028  0.003  0.001  0.032
   17  0.000  0.001  0.019  0.021
   18  0.000  0.001  0.019  0.021
   19  0.021  0.003  0.005  0.029
   20  0.003  0.002  0.024  0.029
   21  0.003  0.002  0.024  0.029
   22  0.015  0.000  0.023  0.038
   23  0.003  0.002  0.024  0.029
   24  0.015  0.000  0.023  0.038
   25  0.021  0.003  0.005  0.028
   26  0.021  0.003  0.005  0.029
   27  0.015  0.000  0.023  0.038
   28  0.014  0.001  0.000  0.015
   29  0.000  0.000  0.005  0.006
   30  0.000  0.000  0.005  0.006
   31  0.000  0.000  0.005  0.006
   32  0.000  0.000  0.005  0.006
   33  0.000  0.000  0.005  0.006
   34  0.000  0.000  0.005  0.006
   35  0.004  0.001  0.004  0.008
   36  0.000  0.000  0.000  0.000
   37  0.000  0.000  0.000  0.000
tot    0.295  0.039  0.362  0.696
 
band    12 # energy   -5.92366299 # occ.  2.00000000
 
ion      s      p      d    tot
    1  0.002  0.000  0.001  0.003
    2  0.000  0.000  0.004  0.004
    3  0.000  0.000  0.004  0.005
    4  0.000  0.000  0.004  0.004
    5  0.005  0.001  0.000  0.005
    6  0.000  0.000  0.004  0.004
    7  0.000  0.000  0.004  0.005
    8  0.000  0.000  0.004  0.004
    9  0.010  0.001  0.001  0.012
   10  0.002  0.000  0.021  0.023
   11  0.013  0.002  0.004  0.020
   12  0.002  0.000  0.021  0.024
   13  0.013  0.002  0.004  0.020
   14  0.014  0.002  0.004  0.020
   15  0.017  0.001  0.014  0.033
   16  0.002  0.000  0.021  0.024
   17  0.017  0.001  0.014  0.033
   18  0.018  0.001  0.014  0.033
   19  0.008  0.001  0.020  0.028
   20  0.005  0.001  0.027  0.033
   21  0.005  0.001  0.027  0.033
   22  0.019  0.002  0.011  0.032
   23  0.005  0.001  0.027  0.033
   24  0.018  0.002  0.011  0.032
   25  0.009  0.001  0.020  0.029
   26  0.008  0.001  0.020  0.028
   27  0.019  0.002  0.011  0.032
   28  0.003  0.000  0.013  0.017
   29  0.009  0.000  0.010  0.019
   30  0.009  0.000  0.010  0.019
   31  0.009  0.000  0.010  0.019
   32  0.009  0.000  0.010  0.019
   33  0.009  0.000  0.010  0.019
   34  0.009  0.000  0.010  0.019
   35  0.004  0.000  0.009  0.012
   36  0.009  0.000  0.001  0.010
   37  0.000  0.000  0.000  0.000
tot    0.281  0.029  0.398  0.708
 
band    13 # energy   -5.91589110 # occ.  2.00000000
 
ion      s      p      d    tot
    1  0.000  0.001  0.003  0.003
    2  0.004  0.001  0.004  0.008
    3  0.008  0.001  0.004  0.013
    4  0.004  0.001  0.004  0.009
    5  0.000  0.000  0.005  0.005
    6  0.001  0.000  0.003  0.004
    7  0.008  0.001  0.004  0.013
    8  0.001  0.000  0.003  0.004
    9  0.000  0.001  0.010  0.012
   10  0.020  0.000  0.017  0.038
   11  0.003  0.001  0.023  0.027
   12  0.005  0.004  0.006  0.015
   13  0.003  0.001  0.023  0.027
   14  0.012  0.001  0.007  0.020
   15  0.016  0.001  0.031  0.048
   16  0.005  0.004  0.006  0.015
   17  0.015  0.001  0.031  0.048
   18  0.062  0.002  0.006  0.070
   19  0.010  0.001  0.028  0.039
   20  0.000  0.001  0.015  0.015
   21  0.000  0.002  0.011  0.013
   22  0.009  0.003  0.016  0.028
   23  0.000  0.002  0.011  0.013
   24  0.039  0.001  0.011  0.051
   25  0.038  0.002  0.003  0.043
   26  0.009  0.001  0.028  0.038
   27  0.010  0.003  0.016  0.028
   28  0.000  0.000  0.007  0.007
   29  0.000  0.000  0.002  0.003
   30  0.003  0.001  0.002  0.005
   31  0.000  0.000  0.002  0.003
   32  0.004  0.001  0.003  0.008
   33  0.003  0.001  0.002  0.005
   34  0.004  0.001  0.003  0.008
   35  0.000  0.001  0.004  0.005
   36  0.000  0.000  0.000  0.000
   37  0.000  0.000  0.000  0.000
tot    0.298  0.041  0.353  0.692
 
band    14 # energy   -5.91585427 # occ.  2.00000000
 
ion      s      p      d    tot
    1  0.000  0.001  0.003  0.003
    2  0.005  0.001  0.003  0.009
    3  0.000  0.000  0.004  0.004
    4  0.005  0.001  0.003  0.009
    5  0.000  0.000  0.005  0.005
    6  0.007  0.001  0.004  0.013
    7  0.000  0.000  0.004  0.004
    8  0.007  0.001  0.004  0.013
    9  0.000  0.001  0.010  0.012
   10  0.000  0.005  0.003  0.008
   11  0.009  0.001  0.012  0.022
   12  0.016  0.001  0.014  0.030
   13  0.009  0.001  0.012  0.022
   14  0.000  0.001  0.028  0.029
   15  0.046  0.001  0.015  0.062
   16  0.015  0.001  0.013  0.030
   17  0.047  0.001  0.014  0.063
   18  0.000  0.001  0.039  0.041
   19  0.028  0.002  0.012  0.042
   20  0.000  0.003  0.009  0.012
   21  0.000  0.001  0.013  0.014
   22  0.029  0.001  0.012  0.043
   23  0.000  0.001  0.013  0.014
   24  0.000  0.004  0.017  0.021
   25  0.000  0.000  0.037  0.037
   26  0.029  0.002  0.011  0.042
   27  0.029  0.001  0.012  0.043
   28  0.000  0.000  0.007  0.007
   29  0.005  0.001  0.002  0.008
   30  0.002  0.000  0.003  0.005
   31  0.005  0.001  0.002  0.008
   32  0.000  0.000  0.002  0.002
   33  0.002  0.000  0.003  0.006
   34  0.000  0.000  0.002  0.003
   35  0.000  0.001  0.004  0.005
   36  0.000  0.000  0.000  0.000
   37  0.000  0.000  0.000  0.000
tot    0.298  0.041  0.353  0.692
 
band    15 # energy   -5.50091295 # occ.  2.00000000
 
ion      s      p      d    tot
    1  0.000  0.001  0.004  0.004
    2  0.000  0.001  0.005  0.006
    3  0.008  0.001  0.004  0.014
    4  0.001  0.001  0.005  0.006
    5  0.000  0.001  0.010  0.011
    6  0.005  0.001  0.004  0.009
    7  0.008  0.001  0.004  0.014
    8  0.005  0.001  0.004  0.009
    9  0.000  0.000  0.008  0.008
   10  0.000  0.001  0.050  0.050
   11  0.015  0.001  0.021  0.037
   12  0.007  0.001  0.018  0.027
   13  0.016  0.001  0.020  0.037
   14  0.000  0.000  0.048  0.048
   15  0.001  0.000  0.018  0.020
   16  0.007  0.001  0.019  0.027
   17  0.001  0.000  0.019  0.020
   18  0.000  0.001  0.011  0.012
   19  0.005  0.000  0.019  0.024
   20  0.000  0.000  0.084  0.084
   21  0.016  0.001  0.026  0.044
   22  0.003  0.001  0.019  0.023
   23  0.016  0.001  0.027  0.044
   24  0.000  0.001  0.033  0.034
   25  0.000  0.001  0.011  0.012
   26  0.005  0.000  0.020  0.025
   27  0.003  0.001  0.019  0.023
   28  0.000  0.000  0.009  0.009
   29  0.003  0.001  0.005  0.008
   30  0.009  0.001  0.005  0.015
   31  0.003  0.001  0.005  0.008
   32  0.002  0.001  0.004  0.006
   33  0.009  0.001  0.005  0.015
   34  0.001  0.001  0.004  0.006
   35  0.000  0.000  0.003  0.003
   36  0.000  0.001  0.003  0.005
   37  0.000  0.000  0.000  0.000
tot    0.150  0.028  0.572  0.749
 
band    16 # energy   -5.50091050 # occ.  2.00000000
 
ion      s      p      d    tot
    1  0.000  0.001  0.004  0.004
    2  0.009  0.001  0.004  0.014
    3  0.001  0.000  0.004  0.005
    4  0.009  0.001  0.004  0.013
    5  0.000  0.001  0.010  0.011
    6  0.004  0.001  0.005  0.010
    7  0.001  0.000  0.004  0.005
    8  0.004  0.001  0.005  0.010
    9  0.000  0.000  0.008  0.008
   10  0.010  0.002  0.008  0.019
   11  0.005  0.000  0.038  0.044
   12  0.002  0.001  0.040  0.043
   13  0.005  0.000  0.039  0.044
   14  0.021  0.001  0.012  0.033
   15  0.000  0.001  0.013  0.015
   16  0.003  0.001  0.039  0.043
   17  0.000  0.001  0.013  0.014
   18  0.002  0.000  0.022  0.023
   19  0.002  0.001  0.014  0.016
   20  0.022  0.001  0.008  0.031
   21  0.005  0.000  0.065  0.071
   22  0.001  0.001  0.028  0.031
   23  0.006  0.000  0.064  0.070
   24  0.004  0.001  0.014  0.019
   25  0.006  0.000  0.023  0.029
   26  0.001  0.001  0.014  0.016
   27  0.001  0.001  0.028  0.030
   28  0.000  0.000  0.009  0.009
   29  0.006  0.001  0.004  0.011
   30  0.000  0.000  0.005  0.005
   31  0.006  0.001  0.004  0.011
   32  0.007  0.001  0.005  0.013
   33  0.000  0.000  0.005  0.005
   34  0.007  0.001  0.005  0.013
   35  0.000  0.000  0.003  0.003
   36  0.000  0.001  0.003  0.005
   37  0.000  0.000  0.000  0.000
tot    0.150  0.028  0.572  0.749
 
band    17 # energy   -5.49876895 # occ.  2.00000000
 
ion      s      p      d    tot
    1  0.011  0.002  0.002  0.015
    2  0.000  0.001  0.007  0.008
    3  0.000  0.001  0.007  0.008
    4  0.000  0.001  0.007  0.008
    5  0.001  0.000  0.002  0.002
    6  0.000  0.001  0.008  0.008
    7  0.000  0.001  0.007  0.008
    8  0.000  0.001  0.008  0.008
    9  0.017  0.002  0.000  0.019
   10  0.011  0.001  0.017  0.029
   11  0.001  0.000  0.046  0.048
   12  0.010  0.001  0.017  0.028
   13  0.001  0.000  0.046  0.048
   14  0.002  0.000  0.046  0.047
   15  0.005  0.001  0.016  0.022
   16  0.010  0.001  0.017  0.028
   17  0.005  0.001  0.016  0.022
   18  0.005  0.001  0.015  0.022
   19  0.002  0.001  0.018  0.021
   20  0.002  0.000  0.054  0.057
   21  0.002  0.000  0.054  0.057
   22  0.011  0.001  0.013  0.025
   23  0.002  0.000  0.054  0.057
   24  0.011  0.001  0.013  0.025
   25  0.002  0.001  0.018  0.020
   26  0.002  0.001  0.018  0.021
   27  0.011  0.001  0.013  0.025
   28  0.013  0.001  0.000  0.014
   29  0.000  0.000  0.007  0.007
   30  0.000  0.000  0.007  0.007
   31  0.000  0.000  0.007  0.007
   32  0.000  0.000  0.007  0.007
   33  0.000  0.000  0.007  0.007
   34  0.000  0.000  0.007  0.007
   35  0.009  0.001  0.002  0.012
   36  0.000  0.000  0.001  0.001
   37  0.000  0.000  0.000  0.000
tot    0.146  0.027  0.583  0.756
 
band    18 # energy   -5.43800916 # occ.  2.00000000
 
ion      s      p      d    tot
    1  0.000  0.001  0.013  0.014
    2  0.009  0.001  0.004  0.015
    3  0.001  0.000  0.005  0.006
    4  0.009  0.001  0.004  0.015
    5  0.000  0.000  0.005  0.005
    6  0.004  0.001  0.005  0.010
    7  0.001  0.000  0.005  0.006
    8  0.004  0.001  0.005  0.010
    9  0.000  0.001  0.006  0.008
   10  0.000  0.001  0.028  0.029
   11  0.000  0.001  0.019  0.021
   12  0.008  0.000  0.021  0.030
   13  0.000  0.001  0.019  0.021
   14  0.000  0.001  0.019  0.020
   15  0.011  0.002  0.020  0.033
   16  0.008  0.000  0.021  0.030
   17  0.011  0.002  0.020  0.033
   18  0.000  0.000  0.062  0.062
   19  0.013  0.001  0.019  0.033
   20  0.000  0.002  0.018  0.020
   21  0.000  0.001  0.024  0.024
   22  0.017  0.001  0.020  0.037
   23  0.000  0.001  0.024  0.024
   24  0.000  0.000  0.033  0.034
   25  0.000  0.000  0.064  0.064
   26  0.013  0.001  0.019  0.033
   27  0.017  0.001  0.020  0.037
   28  0.000  0.001  0.005  0.006
   29  0.007  0.001  0.004  0.012
   30  0.000  0.000  0.006  0.006
   31  0.007  0.001  0.004  0.012
   32  0.005  0.001  0.004  0.010
   33  0.000  0.000  0.006  0.006
   34  0.005  0.001  0.004  0.010
   35  0.000  0.001  0.010  0.011
   36  0.000  0.000  0.002  0.002
   37  0.000  0.000  0.000  0.000
tot    0.152  0.029  0.565  0.746
 
band    19 # energy   -5.43798777 # occ.  2.00000000
 
ion      s      p      d    tot
    1  0.000  0.001  0.013  0.014
    2  0.000  0.000  0.005  0.006
    3  0.008  0.001  0.005  0.014
    4  0.000  0.000  0.005  0.006
    5  0.000  0.000  0.005  0.005
    6  0.006  0.001  0.004  0.011
    7  0.008  0.001  0.005  0.014
    8  0.006  0.001  0.004  0.010
    9  0.000  0.001  0.006  0.008
   10  0.011  0.000  0.019  0.030
   11  0.000  0.001  0.019  0.020
   12  0.003  0.001  0.026  0.029
   13  0.000  0.001  0.019  0.020
   14  0.001  0.001  0.019  0.021
   15  0.004  0.001  0.047  0.052
   16  0.003  0.001  0.026  0.029
   17  0.004  0.001  0.048  0.052
   18  0.015  0.002  0.006  0.023
   19  0.004  0.001  0.049  0.054
   20  0.000  0.000  0.025  0.026
   21  0.000  0.001  0.020  0.021
   22  0.006  0.001  0.029  0.035
   23  0.000  0.001  0.020  0.021
   24  0.022  0.001  0.015  0.038
   25  0.017  0.001  0.004  0.022
   26  0.004  0.001  0.049  0.054
   27  0.006  0.001  0.029  0.035
   28  0.000  0.001  0.005  0.006
   29  0.001  0.000  0.005  0.007
   30  0.008  0.001  0.003  0.012
   31  0.001  0.000  0.005  0.007
   32  0.003  0.001  0.005  0.009
   33  0.008  0.001  0.003  0.012
   34  0.003  0.001  0.005  0.009
   35  0.000  0.001  0.010  0.011
   36  0.000  0.000  0.002  0.002
   37  0.000  0.000  0.000  0.000
tot    0.152  0.029  0.565  0.746
 
band    20 # energy   -5.43019204 # occ.  2.00000000
 
ion      s      p      d    tot
    1  0.012  0.001  0.000  0.013
    2  0.000  0.001  0.009  0.009
    3  0.000  0.001  0.009  0.009
    4  0.000  0.001  0.009  0.009
    5  0.017  0.002  0.001  0.020
    6  0.000  0.001  0.009  0.010
    7  0.000  0.001  0.009  0.009
    8  0.000  0.001  0.009  0.010
    9  0.001  0.000  0.002  0.003
   10  0.000  0.001  0.040  0.041
   11  0.007  0.002  0.007  0.016
   12  0.000  0.001  0.040  0.041
   13  0.007  0.002  0.007  0.016
   14  0.007  0.002  0.007  0.016
   15  0.006  0.001  0.031  0.037
   16  0.000  0.001  0.040  0.041
   17  0.006  0.001  0.031  0.037
   18  0.005  0.001  0.031  0.037
   19  0.013  0.001  0.037  0.051
   20  0.008  0.001  0.009  0.018
   21  0.008  0.001  0.009  0.018
   22  0.000  0.000  0.040  0.040
   23  0.008  0.001  0.009  0.018
   24  0.000  0.000  0.040  0.040
   25  0.012  0.001  0.037  0.051
   26  0.013  0.001  0.037  0.051
   27  0.000  0.000  0.040  0.040
   28  0.002  0.001  0.006  0.010
   29  0.000  0.000  0.005  0.006
   30  0.000  0.000  0.005  0.006
   31  0.000  0.000  0.005  0.006
   32  0.000  0.000  0.005  0.006
   33  0.000  0.000  0.005  0.006
   34  0.000  0.000  0.005  0.006
   35  0.001  0.000  0.000  0.001
   36  0.006  0.001  0.000  0.008
   37  0.000  0.000  0.000  0.000
tot    0.142  0.027  0.587  0.756
 
band    21 # energy   -5.12619400 # occ.  2.00000000
 
ion      s      p      d    tot
    1  0.010  0.000  0.001  0.011
    2  0.000  0.000  0.009  0.010
    3  0.000  0.000  0.010  0.010
    4  0.000  0.000  0.009  0.010
    5  0.005  0.000  0.010  0.014
    6  0.000  0.000  0.010  0.010
    7  0.000  0.000  0.010  0.010
    8  0.000  0.000  0.010  0.010
    9  0.001  0.000  0.002  0.003
   10  0.000  0.000  0.019  0.019
   11  0.000  0.000  0.031  0.031
   12  0.000  0.000  0.019  0.019
   13  0.000  0.000  0.031  0.031
   14  0.000  0.000  0.030  0.031
   15  0.000  0.000  0.020  0.020
   16  0.000  0.000  0.019  0.019
   17  0.000  0.000  0.020  0.020
   18  0.000  0.000  0.020  0.020
   19  0.000  0.000  0.023  0.023
   20  0.000  0.000  0.038  0.038
   21  0.000  0.000  0.038  0.038
   22  0.001  0.000  0.030  0.031
   23  0.000  0.000  0.038  0.038
   24  0.001  0.000  0.029  0.030
   25  0.000  0.000  0.023  0.023
   26  0.000  0.000  0.023  0.023
   27  0.001  0.000  0.030  0.031
   28  0.021  0.001  0.001  0.023
   29  0.000  0.001  0.030  0.030
   30  0.000  0.001  0.029  0.030
   31  0.000  0.001  0.030  0.030
   32  0.000  0.001  0.029  0.030
   33  0.000  0.001  0.029  0.030
   34  0.000  0.001  0.029  0.030
   35  0.027  0.001  0.009  0.037
   36  0.000  0.000  0.003  0.003