PROCAR new format
# of k-points:   10         # of bands:  252         # of ions:   36

 k-point     1 :    0.00000000 0.00000000 0.00000000     weight = 0.01562500

band     1 # energy   -8.69802751 # occ.  2.00000000
 
ion      s      p      d    tot
    1  0.007  0.001  0.000  0.008
    2  0.007  0.001  0.000  0.008
    3  0.007  0.001  0.000  0.008
    4  0.007  0.001  0.000  0.008
    5  0.007  0.001  0.000  0.008
    6  0.007  0.001  0.000  0.008
    7  0.007  0.001  0.000  0.008
    8  0.007  0.001  0.000  0.008
    9  0.007  0.001  0.000  0.008
   10  0.026  0.000  0.000  0.026
   11  0.025  0.000  0.000  0.025
   12  0.026  0.000  0.000  0.026
   13  0.025  0.000  0.000  0.025
   14  0.025  0.000  0.000  0.025
   15  0.025  0.000  0.000  0.025
   16  0.026  0.000  0.000  0.026
   17  0.025  0.000  0.000  0.025
   18  0.025  0.000  0.000  0.025
   19  0.025  0.000  0.000  0.025
   20  0.024  0.000  0.000  0.024
   21  0.024  0.000  0.000  0.024
   22  0.024  0.000  0.000  0.024
   23  0.024  0.000  0.000  0.024
   24  0.024  0.000  0.000  0.024
   25  0.025  0.000  0.000  0.025
   26  0.025  0.000  0.000  0.025
   27  0.024  0.000  0.000  0.024
   28  0.007  0.001  0.000  0.007
   29  0.006  0.001  0.000  0.007
   30  0.006  0.001  0.000  0.007
   31  0.006  0.001  0.000  0.007
   32  0.006  0.001  0.000  0.007
   33  0.006  0.001  0.000  0.007
   34  0.006  0.001  0.000  0.007
   35  0.007  0.001  0.000  0.007
   36  0.007  0.001  0.000  0.008
tot    0.564  0.017  0.001  0.582
 
band     2 # energy   -7.40099862 # occ.  2.00000000
 
ion      s      p      d    tot
    1  0.018  0.001  0.001  0.019
    2  0.018  0.001  0.001  0.019
    3  0.018  0.001  0.001  0.019
    4  0.018  0.001  0.001  0.019
    5  0.018  0.001  0.001  0.019
    6  0.018  0.001  0.001  0.019
    7  0.018  0.001  0.001  0.019
    8  0.018  0.001  0.001  0.019
    9  0.018  0.001  0.001  0.019
   10  0.009  0.002  0.001  0.012
   11  0.010  0.002  0.000  0.012
   12  0.009  0.002  0.001  0.012
   13  0.010  0.002  0.000  0.012
   14  0.010  0.002  0.000  0.012
   15  0.009  0.002  0.001  0.012
   16  0.009  0.002  0.001  0.012
   17  0.009  0.002  0.001  0.012
   18  0.009  0.002  0.001  0.012
   19  0.012  0.002  0.001  0.014
   20  0.009  0.002  0.001  0.011
   21  0.009  0.002  0.001  0.011
   22  0.011  0.002  0.001  0.014
   23  0.009  0.002  0.001  0.011
   24  0.011  0.002  0.001  0.014
   25  0.012  0.002  0.001  0.014
   26  0.012  0.002  0.001  0.014
   27  0.011  0.002  0.001  0.014
   28  0.020  0.001  0.001  0.022
   29  0.019  0.001  0.001  0.020
   30  0.019  0.001  0.001  0.020
   31  0.019  0.001  0.001  0.020
   32  0.019  0.001  0.001  0.020
   33  0.019  0.001  0.001  0.020
   34  0.019  0.001  0.001  0.020
   35  0.020  0.001  0.001  0.022
   36  0.018  0.001  0.002  0.020
tot    0.510  0.054  0.021  0.584
 
band     3 # energy   -5.83107499 # occ.  2.00000000
 
ion      s      p      d    tot
    1  0.016  0.000  0.006  0.021
    2  0.015  0.000  0.006  0.021
    3  0.015  0.000  0.006  0.021
    4  0.015  0.000  0.006  0.021
    5  0.007  0.000  0.006  0.014
    6  0.015  0.000  0.006  0.021
    7  0.015  0.000  0.006  0.021
    8  0.015  0.000  0.006  0.021
    9  0.024  0.000  0.004  0.028
   10  0.003  0.003  0.003  0.009
   11  0.010  0.005  0.001  0.016
   12  0.003  0.003  0.003  0.009
   13  0.010  0.005  0.001  0.016
   14  0.010  0.005  0.001  0.016
   15  0.000  0.003  0.004  0.006
   16  0.003  0.003  0.003  0.009
   17  0.000  0.003  0.004  0.006
   18  0.000  0.003  0.004  0.006
   19  0.002  0.003  0.005  0.009
   20  0.017  0.004  0.003  0.024
   21  0.017  0.004  0.003  0.024
   22  0.001  0.004  0.003  0.008
   23  0.017  0.004  0.003  0.024
   24  0.001  0.004  0.003  0.008
   25  0.002  0.003  0.005  0.009
   26  0.002  0.003  0.005  0.009
   27  0.001  0.004  0.003  0.008
   28  0.020  0.000  0.006  0.026
   29  0.017  0.000  0.007  0.024
   30  0.017  0.000  0.007  0.024
   31  0.017  0.000  0.007  0.024
   32  0.017  0.000  0.007  0.024
   33  0.017  0.000  0.007  0.024
   34  0.017  0.000  0.007  0.024
   35  0.026  0.000  0.006  0.031
   36  0.005  0.002  0.017  0.024
tot    0.386  0.069  0.178  0.632
 
band     4 # energy   -5.74009110 # occ.  2.00000000
 
ion      s      p      d    tot
    1  0.000  0.003  0.005  0.008
    2  0.009  0.002  0.002  0.014
    3  0.005  0.001  0.002  0.008
    4  0.009  0.002  0.002  0.013
    5  0.000  0.001  0.002  0.004
    6  0.001  0.001  0.002  0.004
    7  0.004  0.001  0.002  0.008
    8  0.001  0.001  0.002  0.004
    9  0.000  0.000  0.003  0.004
   10  0.059  0.003  0.005  0.067
   11  0.002  0.010  0.003  0.015
   12  0.015  0.005  0.010  0.030
   13  0.002  0.010  0.003  0.015
   14  0.009  0.000  0.006  0.015
   15  0.005  0.002  0.010  0.018
   16  0.014  0.005  0.010  0.029
   17  0.006  0.002  0.010  0.018
   18  0.021  0.004  0.002  0.028
   19  0.012  0.008  0.006  0.026
   20  0.049  0.005  0.004  0.058
   21  0.013  0.001  0.014  0.028
   22  0.000  0.008  0.004  0.012
   23  0.012  0.001  0.015  0.028
   24  0.000  0.001  0.005  0.006
   25  0.048  0.001  0.006  0.056
   26  0.013  0.008  0.006  0.027
   27  0.000  0.008  0.004  0.012
   28  0.000  0.004  0.005  0.009
   29  0.009  0.002  0.003  0.015
   30  0.009  0.002  0.003  0.014
   31  0.009  0.002  0.003  0.014
   32  0.000  0.001  0.003  0.004
   33  0.009  0.002  0.003  0.014
   34  0.000  0.001  0.003  0.004
   35  0.000  0.000  0.003  0.003
   36  0.000  0.002  0.012  0.014
tot    0.345  0.113  0.187  0.644
 
band     5 # energy   -5.74000841 # occ.  2.00000000
 
ion      s      p      d    tot
    1  0.000  0.003  0.005  0.008
    2  0.000  0.001  0.002  0.003
    3  0.005  0.002  0.002  0.009
    4  0.001  0.001  0.002  0.003
    5  0.000  0.001  0.002  0.004
    6  0.009  0.002  0.002  0.013
    7  0.005  0.002  0.002  0.009
    8  0.009  0.002  0.002  0.013
    9  0.000  0.000  0.003  0.004
   10  0.000  0.005  0.012  0.017
   11  0.007  0.003  0.005  0.015
   12  0.044  0.004  0.007  0.054
   13  0.007  0.003  0.005  0.015
   14  0.000  0.013  0.002  0.015
   15  0.016  0.003  0.005  0.025
   16  0.045  0.004  0.007  0.055
   17  0.016  0.003  0.005  0.024
   18  0.000  0.002  0.013  0.015
   19  0.037  0.004  0.006  0.047
   20  0.000  0.000  0.018  0.018
   21  0.036  0.003  0.007  0.047
   22  0.000  0.003  0.004  0.008
   23  0.037  0.004  0.007  0.048
   24  0.000  0.010  0.004  0.014
   25  0.000  0.010  0.007  0.017
   26  0.036  0.004  0.006  0.046
   27  0.000  0.003  0.005  0.008
   28  0.000  0.004  0.005  0.009
   29  0.003  0.001  0.003  0.007
   30  0.003  0.002  0.003  0.008
   31  0.003  0.001  0.003  0.007
   32  0.012  0.003  0.003  0.018
   33  0.003  0.002  0.003  0.008
   34  0.012  0.003  0.003  0.018
   35  0.000  0.000  0.003  0.003
   36  0.000  0.002  0.012  0.014
tot    0.345  0.113  0.187  0.644
 
band     6 # energy   -5.70730662 # occ.  2.00000000
 
ion      s      p      d    tot
    1  0.022  0.003  0.001  0.026
    2  0.000  0.002  0.004  0.006
    3  0.000  0.002  0.004  0.006
    4  0.000  0.002  0.004  0.006
    5  0.001  0.000  0.001  0.002
    6  0.000  0.002  0.004  0.006
    7  0.000  0.002  0.004  0.006
    8  0.000  0.002  0.004  0.006
    9  0.009  0.001  0.000  0.010
   10  0.030  0.006  0.006  0.041
   11  0.006  0.000  0.012  0.018
   12  0.030  0.006  0.006  0.042
   13  0.006  0.000  0.012  0.018
   14  0.005  0.000  0.012  0.017
   15  0.011  0.008  0.003  0.022
   16  0.030  0.006  0.006  0.042
   17  0.011  0.008  0.003  0.022
   18  0.012  0.008  0.004  0.024
   19  0.023  0.009  0.002  0.034
   20  0.000  0.003  0.011  0.013
   21  0.000  0.003  0.010  0.013
   22  0.025  0.002  0.009  0.036
   23  0.000  0.003  0.010  0.013
   24  0.022  0.002  0.009  0.033
   25  0.021  0.009  0.002  0.033
   26  0.023  0.009  0.002  0.034
   27  0.025  0.002  0.009  0.036
   28  0.019  0.003  0.000  0.022
   29  0.000  0.002  0.004  0.006
   30  0.000  0.002  0.004  0.006
   31  0.000  0.002  0.004  0.006
   32  0.000  0.002  0.004  0.006
   33  0.000  0.002  0.004  0.006
   34  0.000  0.002  0.004  0.006
   35  0.013  0.002  0.001  0.016
   36  0.000  0.000  0.000  0.000
tot    0.344  0.114  0.181  0.639
 
band     7 # energy   -5.70619766 # occ.  2.00000000
 
ion      s      p      d    tot
    1  0.000  0.000  0.002  0.002
    2  0.009  0.002  0.003  0.014
    3  0.005  0.002  0.002  0.009
    4  0.009  0.002  0.003  0.014
    5  0.000  0.002  0.005  0.008
    6  0.001  0.001  0.002  0.004
    7  0.005  0.002  0.002  0.009
    8  0.001  0.001  0.002  0.004
    9  0.000  0.003  0.004  0.007
   10  0.000  0.008  0.007  0.014
   11  0.041  0.004  0.006  0.051
   12  0.001  0.003  0.005  0.009
   13  0.039  0.004  0.006  0.049
   14  0.000  0.000  0.017  0.017
   15  0.028  0.003  0.006  0.038
   16  0.001  0.003  0.005  0.009
   17  0.027  0.004  0.006  0.037
   18  0.000  0.012  0.004  0.016
   19  0.012  0.003  0.005  0.020
   20  0.000  0.014  0.001  0.016
   21  0.012  0.004  0.005  0.022
   22  0.046  0.004  0.006  0.056
   23  0.013  0.003  0.006  0.022
   24  0.000  0.004  0.013  0.017
   25  0.000  0.003  0.012  0.015
   26  0.011  0.003  0.005  0.020
   27  0.048  0.004  0.006  0.058
   28  0.000  0.000  0.004  0.004
   29  0.010  0.002  0.003  0.015
   30  0.006  0.002  0.003  0.012
   31  0.010  0.002  0.003  0.014
   32  0.001  0.001  0.003  0.004
   33  0.006  0.002  0.003  0.011
   34  0.000  0.001  0.003  0.004
   35  0.000  0.003  0.006  0.009
   36  0.000  0.003  0.007  0.009
tot    0.342  0.116  0.181  0.639
 
band     8 # energy   -5.70612526 # occ.  2.00000000
 
ion      s      p      d    tot
    1  0.000  0.000  0.002  0.002
    2  0.001  0.001  0.002  0.004
    3  0.005  0.002  0.002  0.009
    4  0.001  0.001  0.002  0.004
    5  0.000  0.002  0.005  0.007
    6  0.009  0.002  0.002  0.014
    7  0.005  0.002  0.002  0.009
    8  0.009  0.002  0.002  0.014
    9  0.000  0.003  0.004  0.007
   10  0.002  0.002  0.004  0.008
   11  0.012  0.001  0.013  0.027
   12  0.000  0.006  0.006  0.012
   13  0.014  0.002  0.013  0.028
   14  0.054  0.005  0.003  0.062
   15  0.009  0.009  0.005  0.023
   16  0.000  0.006  0.006  0.013
   17  0.011  0.009  0.005  0.024
   18  0.036  0.001  0.006  0.043
   19  0.003  0.003  0.010  0.017
   20  0.017  0.000  0.007  0.023
   21  0.004  0.011  0.003  0.018
   22  0.016  0.004  0.011  0.030
   23  0.004  0.011  0.003  0.018
   24  0.064  0.004  0.004  0.072
   25  0.017  0.003  0.002  0.022
   26  0.004  0.003  0.010  0.017
   27  0.013  0.004  0.011  0.029
   28  0.000  0.000  0.004  0.004
   29  0.001  0.001  0.003  0.005
   30  0.005  0.001  0.002  0.008
   31  0.001  0.001  0.003  0.006
   32  0.010  0.003  0.003  0.016
   33  0.005  0.001  0.002  0.009
   34  0.010  0.003  0.003  0.016
   35  0.000  0.003  0.006  0.009
   36  0.000  0.003  0.007  0.009
tot    0.342  0.116  0.181  0.639
 
band     9 # energy   -5.62721259 # occ.  2.00000000
 
ion      s      p      d    tot
    1  0.000  0.000  0.001  0.001
    2  0.002  0.002  0.006  0.009
    3  0.002  0.002  0.006  0.009
    4  0.002  0.002  0.006  0.009
    5  0.037  0.003  0.000  0.040
    6  0.002  0.002  0.006  0.009
    7  0.002  0.002  0.006  0.009
    8  0.002  0.002  0.006  0.009
    9  0.005  0.002  0.004  0.011
   10  0.002  0.004  0.009  0.016
   11  0.021  0.009  0.004  0.034
   12  0.002  0.004  0.009  0.016
   13  0.021  0.009  0.004  0.034
   14  0.021  0.009  0.004  0.034
   15  0.028  0.002  0.011  0.041
   16  0.002  0.004  0.009  0.016
   17  0.028  0.002  0.011  0.041
   18  0.028  0.002  0.011  0.041
   19  0.008  0.001  0.009  0.018
   20  0.019  0.004  0.007  0.030
   21  0.019  0.004  0.007  0.030
   22  0.009  0.007  0.004  0.019
   23  0.019  0.004  0.007  0.030
   24  0.009  0.007  0.004  0.019
   25  0.008  0.001  0.009  0.018
   26  0.008  0.001  0.009  0.018
   27  0.009  0.007  0.004  0.019
   28  0.000  0.000  0.003  0.003
   29  0.002  0.001  0.003  0.006
   30  0.002  0.001  0.003  0.006
   31  0.002  0.001  0.003  0.006
   32  0.002  0.001  0.003  0.006
   33  0.002  0.001  0.003  0.006
   34  0.002  0.001  0.003  0.006
   35  0.000  0.001  0.002  0.003
   36  0.020  0.002  0.000  0.022
tot    0.349  0.109  0.193  0.651
 
band    10 # energy   -5.00796692 # occ.  2.00000000
 
ion      s      p      d    tot
    1  0.000  0.004  0.010  0.013
    2  0.017  0.003  0.005  0.025
    3  0.000  0.001  0.005  0.006
    4  0.017  0.003  0.005  0.025
    5  0.000  0.000  0.010  0.010
    6  0.012  0.003  0.005  0.020
    7  0.000  0.001  0.005  0.007
    8  0.012  0.003  0.005  0.020
    9  0.000  0.005  0.008  0.013
   10  0.000  0.004  0.017  0.022
   11  0.003  0.002  0.009  0.014
   12  0.007  0.002  0.009  0.018
   13  0.003  0.002  0.009  0.014
   14  0.000  0.002  0.014  0.016
   15  0.019  0.004  0.009  0.031
   16  0.007  0.002  0.009  0.018
   17  0.019  0.004  0.009  0.032
   18  0.000  0.000  0.021  0.021
   19  0.009  0.005  0.010  0.023
   20  0.000  0.003  0.017  0.020
   21  0.000  0.001  0.012  0.014
   22  0.008  0.003  0.009  0.019
   23  0.000  0.001  0.012  0.014
   24  0.000  0.002  0.028  0.030
   25  0.000  0.000  0.013  0.013
   26  0.009  0.005  0.010  0.023
   27  0.007  0.003  0.009  0.019
   28  0.000  0.004  0.008  0.012
   29  0.022  0.003  0.009  0.034
   30  0.000  0.002  0.009  0.011
   31  0.022  0.003  0.009  0.033
   32  0.018  0.002  0.009  0.029
   33  0.000  0.002  0.009  0.011
   34  0.018  0.002  0.009  0.030
   35  0.000  0.005  0.010  0.015
   36  0.000  0.000  0.029  0.029
tot    0.231  0.092  0.382  0.705
 
band    11 # energy   -5.00794553 # occ.  2.00000000
 
ion      s      p      d    tot
    1  0.000  0.004  0.010  0.013
    2  0.003  0.002  0.005  0.009
    3  0.019  0.004  0.005  0.028
    4  0.003  0.002  0.005  0.009
    5  0.000  0.000  0.010  0.010
    6  0.008  0.002  0.005  0.014
    7  0.019  0.004  0.005  0.028
    8  0.007  0.002  0.005  0.014
    9  0.000  0.005  0.008  0.013
   10  0.009  0.001  0.006  0.016
   11  0.001  0.002  0.012  0.016
   12  0.002  0.004  0.015  0.020
   13  0.001  0.002  0.013  0.016
   14  0.004  0.002  0.007  0.013
   15  0.007  0.001  0.017  0.025
   16  0.002  0.003  0.015  0.020
   17  0.006  0.001  0.017  0.025
   18  0.026  0.005  0.005  0.035
   19  0.003  0.002  0.012  0.017
   20  0.000  0.001  0.011  0.012
   21  0.000  0.002  0.015  0.018
   22  0.002  0.002  0.022  0.026
   23  0.000  0.002  0.015  0.018
   24  0.010  0.003  0.003  0.016
   25  0.012  0.006  0.008  0.026
   26  0.003  0.002  0.012  0.017
   27  0.003  0.002  0.021  0.026
   28  0.000  0.004  0.008  0.012
   29  0.005  0.002  0.009  0.016
   30  0.026  0.003  0.009  0.038
   31  0.005  0.002  0.009  0.016
   32  0.009  0.003  0.009  0.020
   33  0.026  0.003  0.009  0.038
   34  0.008  0.003  0.009  0.020
   35  0.000  0.005  0.010  0.015
   36  0.000  0.000  0.029  0.029
tot    0.231  0.092  0.382  0.705
 
band    12 # energy   -4.98949672 # occ.  2.00000000
 
ion      s      p      d    tot
    1  0.004  0.001  0.010  0.014
    2  0.005  0.001  0.009  0.015
    3  0.005  0.001  0.009  0.015
    4  0.005  0.001  0.009  0.015
    5  0.001  0.001  0.009  0.012
    6  0.005  0.001  0.009  0.015
    7  0.005  0.001  0.009  0.015
    8  0.005  0.001  0.009  0.015
    9  0.014  0.000  0.008  0.022
   10  0.009  0.000  0.025  0.034
   11  0.009  0.000  0.022  0.031
   12  0.009  0.000  0.025  0.034
   13  0.009  0.000  0.022  0.031
   14  0.009  0.000  0.022  0.031
   15  0.003  0.000  0.022  0.025
   16  0.009  0.000  0.025  0.034
   17  0.003  0.000  0.022  0.025
   18  0.003  0.000  0.022  0.025
   19  0.006  0.000  0.020  0.025
   20  0.009  0.000  0.027  0.037
   21  0.009  0.000  0.027  0.037
   22  0.003  0.000  0.019  0.022
   23  0.009  0.000  0.027  0.037
   24  0.003  0.000  0.019  0.022
   25  0.006  0.000  0.020  0.025
   26  0.006  0.000  0.020  0.025
   27  0.003  0.000  0.019  0.022
   28  0.002  0.001  0.007  0.009
   29  0.004  0.000  0.008  0.012
   30  0.004  0.000  0.008  0.012
   31  0.004  0.000  0.008  0.012
   32  0.004  0.000  0.008  0.012
   33  0.004  0.000  0.008  0.012
   34  0.004  0.000  0.008  0.012
   35  0.009  0.000  0.006  0.015
   36  0.001  0.002  0.014  0.017
tot    0.201  0.014  0.566  0.781
 
band    13 # energy   -4.95535059 # occ.  2.00000000
 
ion      s      p      d    tot
    1  0.034  0.003  0.000  0.038
    2  0.000  0.003  0.010  0.013
    3  0.000  0.003  0.010  0.013
    4  0.000  0.003  0.010  0.013
    5  0.000  0.000  0.001  0.001
    6  0.000  0.003  0.010  0.013
    7  0.000  0.003  0.010  0.013
    8  0.000  0.003  0.010  0.013
    9  0.027  0.004  0.001  0.031
   10  0.007  0.003  0.011  0.021
   11  0.001  0.000  0.015  0.016
   12  0.007  0.003  0.011  0.021
   13  0.001  0.000  0.015  0.016
   14  0.001  0.000  0.015  0.016
   15  0.008  0.003  0.016  0.027
   16  0.007  0.003  0.011  0.021
   17  0.008  0.003  0.016  0.027
   18  0.008  0.003  0.016  0.027
   19  0.004  0.003  0.018  0.026
   20  0.000  0.000  0.015  0.015
   21  0.000  0.000  0.015  0.015
   22  0.012  0.003  0.009  0.025
   23  0.000  0.000  0.015  0.015
   24  0.012  0.003  0.009  0.025
   25  0.004  0.003  0.018  0.026
   26  0.004  0.003  0.018  0.026
   27  0.012  0.003  0.009  0.025
   28  0.039  0.003  0.000  0.042
   29  0.000  0.003  0.012  0.015
   30  0.000  0.003  0.012  0.015
   31  0.000  0.003  0.012  0.015
   32  0.000  0.003  0.012  0.015
   33  0.000  0.003  0.012  0.015
   34  0.000  0.003  0.012  0.015
   35  0.027  0.004  0.001  0.032
   36  0.000  0.000  0.000  0.000
tot    0.227  0.090  0.389  0.706
 
band    14 # energy   -4.94089223 # occ.  2.00000000
 
ion      s      p      d    tot
    1  0.000  0.003  0.009  0.012
    2  0.019  0.004  0.005  0.028
    3  0.001  0.002  0.005  0.008
    4  0.019  0.004  0.005  0.028
    5  0.000  0.006  0.009  0.015
    6  0.012  0.003  0.005  0.020
    7  0.001  0.002  0.005  0.008
    8  0.012  0.003  0.006  0.021
    9  0.000  0.001  0.013  0.013
   10  0.015  0.005  0.009  0.029
   11  0.005  0.002  0.022  0.029
   12  0.004  0.001  0.016  0.021
   13  0.004  0.002  0.022  0.029
   14  0.018  0.004  0.005  0.026
   15  0.000  0.003  0.016  0.018
   16  0.004  0.001  0.016  0.021
   17  0.000  0.003  0.016  0.018
   18  0.000  0.000  0.008  0.009
   19  0.001  0.003  0.018  0.021
   20  0.022  0.005  0.005  0.032
   21  0.005  0.002  0.025  0.032
   22  0.002  0.002  0.013  0.016
   23  0.006  0.002  0.025  0.032
   24  0.008  0.003  0.009  0.021
   25  0.003  0.000  0.007  0.010
   26  0.001  0.003  0.018  0.022
   27  0.002  0.002  0.013  0.016
   28  0.000  0.002  0.012  0.014
   29  0.016  0.003  0.007  0.026
   30  0.000  0.001  0.005  0.007
   31  0.015  0.003  0.007  0.026
   32  0.012  0.003  0.007  0.022
   33  0.000  0.001  0.005  0.007
   34  0.012  0.003  0.007  0.022
   35  0.000  0.001  0.010  0.011
   36  0.000  0.008  0.013  0.020
tot    0.219  0.093  0.400  0.713
 
band    15 # energy   -4.94084806 # occ.  2.00000000
 
ion      s      p      d    tot
    1  0.000  0.003  0.009  0.012
    2  0.002  0.002  0.005  0.009
    3  0.021  0.004  0.006  0.030
    4  0.002  0.002  0.005  0.010
    5  0.000  0.006  0.009  0.015
    6  0.010  0.003  0.005  0.017
    7  0.020  0.004  0.006  0.030
    8  0.009  0.002  0.005  0.017
    9  0.000  0.001  0.013  0.013
   10  0.000  0.000  0.018  0.018
   11  0.013  0.003  0.011  0.027
   12  0.012  0.004  0.011  0.026
   13  0.014  0.003  0.010  0.027
   14  0.000  0.002  0.028  0.030
   15  0.000  0.001  0.011  0.012
   16  0.011  0.004  0.011  0.026
   17  0.000  0.001  0.011  0.012
   18  0.000  0.004  0.018  0.022
   19  0.002  0.001  0.011  0.014
   20  0.000  0.001  0.032  0.033
   21  0.016  0.004  0.011  0.032
   22  0.006  0.003  0.010  0.020
   23  0.016  0.004  0.012  0.032
   24  0.000  0.001  0.014  0.015
   25  0.000  0.003  0.022  0.025
   26  0.002  0.001  0.011  0.014
   27  0.006  0.003  0.011  0.019
   28  0.000  0.002  0.012  0.014
   29  0.003  0.002  0.006  0.010
   30  0.018  0.004  0.008  0.030
   31  0.003  0.002  0.006  0.011
   32  0.007  0.002  0.006  0.015
   33  0.018  0.004  0.008  0.030
   34  0.006  0.002  0.006  0.014
   35  0.000  0.001  0.010  0.011
   36  0.000  0.008  0.013  0.020
tot    0.219  0.093  0.400  0.713
 
band    16 # energy   -4.78586491 # occ.  2.00000000
 
ion      s      p      d    tot
    1  0.015  0.001  0.000  0.016
    2  0.000  0.003  0.012  0.015
    3  0.000  0.003  0.012  0.015
    4  0.000  0.003  0.012  0.015
    5  0.045  0.004  0.000  0.049
    6  0.000  0.003  0.012  0.015
    7  0.000  0.003  0.012  0.015
    8  0.000  0.003  0.012  0.015
    9  0.006  0.001  0.001  0.007
   10  0.001  0.001  0.028  0.030
   11  0.004  0.004  0.021  0.030
   12  0.001  0.001  0.028  0.030
   13  0.004  0.004  0.021  0.030
   14  0.004  0.004  0.021  0.030
   15  0.003  0.001  0.008  0.013
   16  0.001  0.001  0.028  0.030
   17  0.003  0.001  0.008  0.013
   18  0.003  0.001  0.008  0.013
   19  0.010  0.001  0.022  0.033
   20  0.013  0.004  0.007  0.024
   21  0.013  0.004  0.007  0.024
   22  0.002  0.002  0.017  0.021
   23  0.013  0.004  0.007  0.024
   24  0.002  0.002  0.017  0.021
   25  0.010  0.001  0.022  0.033
   26  0.010  0.001  0.022  0.033
   27  0.002  0.002  0.017  0.021
   28  0.003  0.002  0.005  0.009
   29  0.001  0.002  0.010  0.013
   30  0.001  0.002  0.010  0.013
   31  0.001  0.002  0.010  0.013
   32  0.001  0.002  0.010  0.013
   33  0.001  0.002  0.010  0.013
   34  0.001  0.002  0.010  0.013
   35  0.004  0.001  0.001  0.007
   36  0.039  0.005  0.000  0.044
tot    0.214  0.083  0.448  0.745
 
band    17 # energy   -4.36322176 # occ.  2.00000000
 
ion      s      p      d    tot
    1  0.000  0.001  0.028  0.029
    2  0.015  0.001  0.008  0.024
    3  0.007  0.001  0.008  0.015
    4  0.015  0.001  0.008  0.024
    5  0.000  0.001  0.013  0.014
    6  0.002  0.001  0.008  0.010
    7  0.006  0.001  0.008  0.015
    8  0.002  0.001  0.008  0.010
    9  0.000  0.003  0.004  0.007
   10  0.000  0.000  0.061  0.061
   11  0.000  0.003  0.016  0.019
   12  0.000  0.000  0.019  0.019
   13  0.000  0.003  0.016  0.019
   14  0.000  0.000  0.006  0.006
   15  0.000  0.005  0.015  0.020
   16  0.000  0.000  0.019  0.019
   17  0.000  0.005  0.015  0.020
   18  0.000  0.000  0.028  0.028
   19  0.004  0.003  0.014  0.021
   20  0.000  0.000  0.062  0.062
   21  0.000  0.000  0.025  0.026
   22  0.003  0.002  0.015  0.019
   23  0.000  0.000  0.025  0.025
   24  0.000  0.000  0.018  0.018
   25  0.000  0.000  0.017  0.018
   26  0.004  0.003  0.014  0.021
   27  0.003  0.002  0.015  0.019
   28  0.000  0.001  0.007  0.008
   29  0.009  0.000  0.021  0.030
   30  0.000  0.001  0.016  0.017
   31  0.009  0.000  0.021  0.030
   32  0.011  0.000  0.019  0.030
   33  0.000  0.001  0.016  0.017
   34  0.011  0.000  0.019  0.030
   35  0.000  0.001  0.009  0.011
   36  0.000  0.000  0.048  0.048
tot    0.100  0.045  0.665  0.810
 
band    18 # energy   -4.36315396 # occ.  2.00000000
 
ion      s      p      d    tot
    1  0.000  0.001  0.028  0.029
    2  0.001  0.001  0.008  0.009
    3  0.009  0.001  0.008  0.018
    4  0.001  0.001  0.008  0.009
    5  0.000  0.001  0.013  0.014
    6  0.014  0.001  0.008  0.023
    7  0.009  0.001  0.008  0.018
    8  0.014  0.001  0.008  0.023
    9  0.000  0.003  0.004  0.007
   10  0.000  0.000  0.005  0.005
   11  0.000  0.001  0.009  0.010
   12  0.000  0.000  0.046  0.047
   13  0.000  0.001  0.009  0.011
   14  0.000  0.004  0.019  0.023
   15  0.000  0.002  0.024  0.025
   16  0.000  0.000  0.047  0.047
   17  0.000  0.002  0.023  0.025
   18  0.000  0.006  0.011  0.018
   19  0.001  0.001  0.016  0.019
   20  0.000  0.000  0.013  0.013
   21  0.000  0.000  0.049  0.050
   22  0.001  0.001  0.017  0.018
   23  0.000  0.000  0.050  0.050
   24  0.003  0.003  0.014  0.020
   25  0.005  0.004  0.013  0.022
   26  0.001  0.001  0.016  0.019
   27  0.001  0.001  0.017  0.018
   28  0.000  0.001  0.007  0.008
   29  0.004  0.001  0.016  0.021
   30  0.014  0.000  0.021  0.035
   31  0.004  0.001  0.016  0.021
   32  0.003  0.001  0.018  0.021
   33  0.014  0.000  0.021  0.035
   34  0.003  0.001  0.018  0.022
   35  0.000  0.001  0.009  0.011
   36  0.000  0.000  0.048  0.048
tot    0.100  0.045  0.665  0.810
 
band    19 # energy   -4.27082268 # occ.  2.00000000
 
ion      s      p      d    tot
    1  0.003  0.000  0.001  0.004
    2  0.000  0.001  0.017  0.018
    3  0.000  0.001  0.017  0.018
    4  0.000  0.001  0.017  0.018
    5  0.012  0.000  0.000  0.013
    6  0.000  0.001  0.017  0.018
    7  0.000  0.001  0.017  0.018
    8  0.000  0.001  0.017  0.018
    9  0.028  0.001  0.002  0.030
   10  0.000  0.001  0.010  0.011
   11  0.000  0.000  0.018  0.019
   12  0.000  0.001  0.010  0.011
   13  0.000  0.000  0.018  0.019
   14  0.000  0.000  0.018  0.019
   15  0.000  0.003  0.037  0.040
   16  0.000  0.001  0.010  0.011
   17  0.000  0.003  0.037  0.040
   18  0.000  0.003  0.037  0.040
   19  0.000  0.001  0.026  0.027
   20  0.000  0.000  0.011  0.011
   21  0.000  0.000  0.011  0.011
   22  0.001  0.003  0.031  0.036
   23  0.000  0.000  0.011  0.011
   24  0.001  0.003  0.031  0.036
   25  0.000  0.001  0.026  0.027
   26  0.000  0.001  0.026  0.027
   27  0.001  0.003  0.031  0.036
   28  0.021  0.001  0.001  0.023
   29  0.000  0.001  0.025  0.027
   30  0.000  0.001  0.025  0.027
   31  0.000  0.001  0.025  0.027
   32  0.000  0.001  0.025  0.027
   33  0.000  0.001  0.025  0.027
   34  0.000  0.001  0.025  0.027
   35  0.024  0.000  0.005  0.030
   36  0.000  0.000  0.001  0.001
tot    0.096  0.049  0.658  0.803
 
band    20 # energy   -4.25466435 # occ.  2.00000000
 
ion      s      p      d    tot
    1  0.000  0.002  0.002  0.004
    2  0.014  0.001  0.010  0.025
    3  0.007  0.001  0.009  0.017
    4  0.014  0.001  0.010  0.025
    5  0.000  0.002  0.020  0.022
    6  0.001  0.001  0.009  0.011
    7  0.007  0.001  0.009  0.017
    8  0.001  0.001  0.009  0.011
    9  0.000  0.000  0.032  0.032
   10  0.001  0.007  0.021  0.029
   11  0.000  0.001  0.039  0.040
   12  0.000  0.002  0.011  0.013
   13  0.000  0.001  0.040  0.040
   14  0.001  0.002  0.005  0.008
   15  0.000  0.000  0.030  0.031
   16  0.000  0.002  0.011  0.013
   17  0.000  0.000  0.030  0.031
   18  0.000  0.001  0.011  0.012
   19  0.000  0.000  0.045  0.046
   20  0.002  0.007  0.022  0.030
   21  0.000  0.002  0.016  0.018
   22  0.000  0.001  0.022  0.023
   23  0.000  0.002  0.016  0.018
   24  0.000  0.003  0.015  0.017
   25  0.001  0.001  0.003  0.005
   26  0.000  0.000  0.045  0.046
   27  0.000  0.001  0.022  0.023
   28  0.000  0.001  0.034  0.035
   29  0.012  0.001  0.013  0.026
   30  0.000  0.001  0.011  0.012
   31  0.012  0.001  0.013  0.026
   32  0.011  0.001  0.013  0.024
   33  0.000  0.001  0.011  0.012
   34  0.011  0.001  0.013  0.024
   35  0.000  0.000  0.031  0.031
   36  0.000  0.003  0.000  0.003
tot    0.097  0.052  0.654  0.802
 
band    21 # energy   -4.25458440 # occ.  2.00000000
 
ion      s      p      d    tot
    1  0.000  0.002  0.002  0.004
    2  0.001  0.001  0.009  0.011
    3  0.008  0.001  0.010  0.018
    4  0.001  0.001  0.009  0.011
    5  0.000  0.002  0.020  0.022
    6  0.014  0.001  0.009  0.025
    7  0.008  0.001  0.010  0.018
    8  0.014  0.001  0.009  0.025
    9  0.000  0.000  0.032  0.032
   10  0.000  0.000  0.007  0.007
   11  0.001  0.002  0.016  0.019
   12  0.001  0.005  0.018  0.024
   13  0.001  0.002  0.016  0.019
   14  0.000  0.000  0.051  0.051
   15  0.000  0.001  0.018  0.019
   16  0.001  0.005  0.018  0.024
   17  0.000  0.001  0.017  0.018
   18  0.000  0.000  0.037  0.037
   19  0.000  0.001  0.017  0.018
   20  0.000  0.000  0.014  0.014
   21  0.001  0.005  0.020  0.026
   22  0.000  0.002  0.017  0.019
   23  0.001  0.005  0.020  0.026
   24  0.000  0.000  0.025  0.025
   25  0.000  0.000  0.059  0.059
   26  0.000  0.001  0.017  0.018
   27  0.000  0.002  0.017  0.019
   28  0.000  0.001  0.034  0.035
   29  0.003  0.001  0.012  0.016
   30  0.015  0.001  0.013  0.030
   31  0.003  0.001  0.012  0.016
   32  0.004  0.001  0.012  0.017
   33  0.015  0.001  0.013  0.030
   34  0.004  0.001  0.012  0.017
   35  0.000  0.000  0.031  0.031
   36  0.000  0.003  0.000  0.003
tot    0.097  0.052  0.654  0.802
 
band    22 # energy   -4.16696955 # occ.  2.00000000
 
ion      s      p      d    tot
    1  0.025  0.001  0.002  0.028
    2  0.000  0.001  0.018  0.019
    3  0.000  0.001  0.018  0.019
    4  0.000  0.001  0.018  0.019
    5  0.008  0.000  0.005  0.012
    6  0.000  0.001  0.018  0.019
    7  0.000  0.001  0.018  0.019
    8  0.000  0.001  0.018  0.019
    9  0.005  0.000  0.000  0.005
   10  0.000  0.002  0.027  0.029
   11  0.001  0.001  0.025  0.027
   12  0.000  0.002  0.027  0.029
   13  0.001  0.001  0.025  0.027
   14  0.001  0.001  0.025  0.027
   15  0.000  0.000  0.012  0.012
   16  0.000  0.002  0.027  0.029