PROCAR new format
# of k-points:   10         # of bands:  252         # of ions:   36

 k-point     1 :    0.00000000 0.00000000 0.00000000     weight = 0.01562500

band     1 # energy   -6.25726799 # occ.  2.00000000
 
ion      s      p      d    tot
    1  0.007  0.001  0.000  0.007
    2  0.007  0.001  0.000  0.007
    3  0.007  0.001  0.000  0.007
    4  0.007  0.001  0.000  0.007
    5  0.007  0.001  0.000  0.007
    6  0.007  0.001  0.000  0.007
    7  0.007  0.001  0.000  0.007
    8  0.007  0.001  0.000  0.007
    9  0.007  0.001  0.000  0.007
   10  0.024  0.000  0.000  0.025
   11  0.025  0.000  0.000  0.025
   12  0.024  0.000  0.000  0.025
   13  0.025  0.000  0.000  0.025
   14  0.025  0.000  0.000  0.025
   15  0.025  0.000  0.000  0.025
   16  0.024  0.000  0.000  0.025
   17  0.025  0.000  0.000  0.025
   18  0.025  0.000  0.000  0.025
   19  0.022  0.000  0.000  0.022
   20  0.022  0.000  0.000  0.022
   21  0.022  0.000  0.000  0.022
   22  0.022  0.000  0.000  0.023
   23  0.022  0.000  0.000  0.022
   24  0.022  0.000  0.000  0.023
   25  0.022  0.000  0.000  0.022
   26  0.022  0.000  0.000  0.022
   27  0.022  0.000  0.000  0.023
   28  0.005  0.001  0.000  0.006
   29  0.005  0.001  0.000  0.005
   30  0.005  0.001  0.000  0.005
   31  0.005  0.001  0.000  0.005
   32  0.005  0.001  0.000  0.005
   33  0.005  0.001  0.000  0.005
   34  0.005  0.001  0.000  0.005
   35  0.005  0.001  0.000  0.006
   36  0.006  0.001  0.000  0.007
tot    0.526  0.013  0.006  0.545
 
band     2 # energy   -5.38118912 # occ.  2.00000000
 
ion      s      p      d    tot
    1  0.008  0.000  0.000  0.009
    2  0.007  0.000  0.000  0.008
    3  0.007  0.000  0.000  0.008
    4  0.007  0.000  0.000  0.008
    5  0.007  0.000  0.000  0.008
    6  0.007  0.000  0.000  0.008
    7  0.007  0.000  0.000  0.008
    8  0.007  0.000  0.000  0.008
    9  0.007  0.000  0.000  0.008
   10  0.010  0.001  0.015  0.026
   11  0.010  0.001  0.015  0.026
   12  0.010  0.001  0.015  0.026
   13  0.010  0.001  0.015  0.026
   14  0.010  0.001  0.015  0.026
   15  0.009  0.001  0.015  0.026
   16  0.010  0.001  0.015  0.026
   17  0.009  0.001  0.015  0.026
   18  0.009  0.001  0.015  0.026
   19  0.014  0.001  0.017  0.032
   20  0.012  0.001  0.018  0.030
   21  0.012  0.001  0.018  0.030
   22  0.014  0.001  0.017  0.032
   23  0.012  0.001  0.018  0.030
   24  0.014  0.001  0.017  0.032
   25  0.014  0.001  0.017  0.032
   26  0.014  0.001  0.017  0.032
   27  0.014  0.001  0.017  0.032
   28  0.008  0.001  0.000  0.008
   29  0.007  0.000  0.000  0.007
   30  0.007  0.000  0.000  0.007
   31  0.007  0.000  0.000  0.007
   32  0.007  0.000  0.000  0.007
   33  0.007  0.000  0.000  0.007
   34  0.007  0.000  0.000  0.007
   35  0.008  0.001  0.000  0.008
   36  0.006  0.000  0.000  0.007
tot    0.337  0.024  0.298  0.659
 
band     3 # energy   -5.11606734 # occ.  2.00000000
 
ion      s      p      d    tot
    1  0.017  0.000  0.029  0.046
    2  0.017  0.000  0.028  0.045
    3  0.017  0.000  0.028  0.045
    4  0.017  0.000  0.028  0.045
    5  0.016  0.000  0.028  0.045
    6  0.017  0.000  0.028  0.045
    7  0.017  0.000  0.028  0.045
    8  0.017  0.000  0.028  0.045
    9  0.017  0.000  0.028  0.045
   10  0.001  0.001  0.023  0.025
   11  0.001  0.001  0.024  0.025
   12  0.001  0.001  0.023  0.025
   13  0.001  0.001  0.024  0.025
   14  0.001  0.001  0.024  0.025
   15  0.001  0.001  0.023  0.025
   16  0.001  0.001  0.023  0.025
   17  0.001  0.001  0.023  0.025
   18  0.001  0.001  0.023  0.025
   19  0.000  0.000  0.006  0.006
   20  0.000  0.000  0.006  0.006
   21  0.000  0.000  0.006  0.006
   22  0.000  0.000  0.008  0.008
   23  0.000  0.000  0.006  0.006
   24  0.000  0.000  0.008  0.008
   25  0.000  0.000  0.006  0.006
   26  0.000  0.000  0.006  0.006
   27  0.000  0.000  0.008  0.008
   28  0.004  0.000  0.005  0.009
   29  0.004  0.000  0.004  0.008
   30  0.004  0.000  0.004  0.008
   31  0.004  0.000  0.004  0.008
   32  0.004  0.000  0.004  0.008
   33  0.004  0.000  0.004  0.008
   34  0.004  0.000  0.004  0.008
   35  0.005  0.000  0.005  0.010
   36  0.003  0.000  0.001  0.004
tot    0.195  0.006  0.563  0.764
 
band     4 # energy   -4.98924500 # occ.  2.00000000
 
ion      s      p      d    tot
    1  0.001  0.000  0.000  0.001
    2  0.000  0.000  0.006  0.006
    3  0.000  0.000  0.006  0.006
    4  0.000  0.000  0.006  0.006
    5  0.005  0.001  0.006  0.012
    6  0.000  0.000  0.006  0.006
    7  0.000  0.000  0.006  0.006
    8  0.000  0.000  0.006  0.006
    9  0.002  0.000  0.006  0.008
   10  0.007  0.001  0.007  0.016
   11  0.015  0.001  0.040  0.056
   12  0.007  0.001  0.007  0.016
   13  0.015  0.001  0.040  0.056
   14  0.015  0.001  0.040  0.055
   15  0.002  0.000  0.069  0.071
   16  0.007  0.001  0.007  0.016
   17  0.002  0.000  0.069  0.071
   18  0.002  0.000  0.070  0.072
   19  0.009  0.000  0.026  0.036
   20  0.006  0.001  0.011  0.017
   21  0.006  0.001  0.011  0.017
   22  0.001  0.000  0.040  0.041
   23  0.006  0.001  0.011  0.017
   24  0.000  0.000  0.040  0.041
   25  0.009  0.000  0.026  0.035
   26  0.009  0.000  0.026  0.036
   27  0.001  0.000  0.040  0.041
   28  0.004  0.001  0.003  0.007
   29  0.000  0.000  0.003  0.004
   30  0.000  0.000  0.003  0.003
   31  0.000  0.000  0.003  0.004
   32  0.000  0.000  0.003  0.004
   33  0.000  0.000  0.003  0.003
   34  0.000  0.000  0.003  0.004
   35  0.002  0.000  0.003  0.006
   36  0.000  0.000  0.000  0.000
tot    0.130  0.017  0.654  0.801
 
band     5 # energy   -4.98575822 # occ.  2.00000000
 
ion      s      p      d    tot
    1  0.000  0.000  0.001  0.001
    2  0.000  0.000  0.004  0.004
    3  0.002  0.001  0.007  0.009
    4  0.000  0.000  0.004  0.004
    5  0.000  0.000  0.010  0.011
    6  0.001  0.001  0.004  0.006
    7  0.002  0.001  0.007  0.009
    8  0.001  0.001  0.004  0.005
    9  0.000  0.000  0.005  0.005
   10  0.001  0.000  0.028  0.029
   11  0.007  0.000  0.086  0.094
   12  0.000  0.001  0.051  0.052
   13  0.007  0.000  0.088  0.095
   14  0.029  0.001  0.004  0.033
   15  0.005  0.001  0.021  0.028
   16  0.000  0.001  0.050  0.051
   17  0.005  0.001  0.021  0.027
   18  0.019  0.000  0.038  0.058
   19  0.001  0.000  0.029  0.030
   20  0.006  0.000  0.026  0.032
   21  0.001  0.001  0.018  0.020
   22  0.004  0.001  0.031  0.036
   23  0.002  0.001  0.018  0.021
   24  0.018  0.001  0.010  0.030
   25  0.003  0.000  0.011  0.015
   26  0.001  0.000  0.029  0.030
   27  0.005  0.001  0.031  0.036
   28  0.000  0.000  0.002  0.002
   29  0.001  0.000  0.003  0.004
   30  0.000  0.000  0.002  0.002
   31  0.001  0.000  0.003  0.004
   32  0.001  0.000  0.002  0.003
   33  0.000  0.000  0.002  0.002
   34  0.001  0.000  0.003  0.004
   35  0.000  0.000  0.008  0.008
   36  0.000  0.000  0.001  0.001
tot    0.125  0.017  0.662  0.803
 
band     6 # energy   -4.98574968 # occ.  2.00000000
 
ion      s      p      d    tot
    1  0.000  0.000  0.001  0.001
    2  0.002  0.001  0.006  0.009
    3  0.000  0.000  0.003  0.003
    4  0.002  0.001  0.006  0.009
    5  0.000  0.000  0.010  0.011
    6  0.001  0.000  0.006  0.007
    7  0.000  0.000  0.003  0.003
    8  0.001  0.000  0.006  0.007
    9  0.000  0.000  0.005  0.005
   10  0.000  0.001  0.060  0.061
   11  0.021  0.001  0.033  0.055
   12  0.001  0.000  0.034  0.035
   13  0.022  0.001  0.030  0.053
   14  0.000  0.000  0.114  0.114
   15  0.014  0.001  0.032  0.047
   16  0.001  0.000  0.035  0.036
   17  0.015  0.001  0.033  0.048
   18  0.000  0.002  0.015  0.017
   19  0.002  0.000  0.017  0.020
   20  0.000  0.001  0.015  0.017
   21  0.005  0.001  0.024  0.029
   22  0.014  0.001  0.017  0.032
   23  0.004  0.001  0.023  0.028
   24  0.000  0.001  0.038  0.038
   25  0.000  0.000  0.035  0.035
   26  0.003  0.000  0.017  0.020
   27  0.013  0.001  0.018  0.032
   28  0.000  0.000  0.002  0.002
   29  0.000  0.000  0.002  0.002
   30  0.001  0.000  0.003  0.005
   31  0.000  0.000  0.002  0.002
   32  0.001  0.000  0.002  0.003
   33  0.001  0.000  0.003  0.005
   34  0.001  0.000  0.002  0.003
   35  0.000  0.000  0.008  0.008
   36  0.000  0.000  0.001  0.001
tot    0.125  0.017  0.662  0.803
 
band     7 # energy   -4.98494577 # occ.  2.00000000
 
ion      s      p      d    tot
    1  0.002  0.001  0.014  0.016
    2  0.000  0.000  0.005  0.005
    3  0.000  0.000  0.005  0.005
    4  0.000  0.000  0.005  0.005
    5  0.000  0.000  0.001  0.001
    6  0.000  0.000  0.005  0.005
    7  0.000  0.000  0.005  0.005
    8  0.000  0.000  0.005  0.005
    9  0.003  0.001  0.003  0.007
   10  0.008  0.000  0.087  0.095
   11  0.001  0.001  0.040  0.042
   12  0.008  0.000  0.090  0.098
   13  0.001  0.001  0.040  0.042
   14  0.001  0.001  0.040  0.042
   15  0.014  0.001  0.015  0.030
   16  0.008  0.000  0.090  0.098
   17  0.014  0.001  0.015  0.030
   18  0.015  0.001  0.014  0.030
   19  0.002  0.001  0.017  0.019
   20  0.003  0.000  0.025  0.028
   21  0.003  0.000  0.025  0.028
   22  0.006  0.001  0.018  0.025
   23  0.003  0.000  0.025  0.028
   24  0.006  0.001  0.018  0.025
   25  0.001  0.001  0.017  0.019
   26  0.002  0.001  0.017  0.019
   27  0.006  0.001  0.018  0.025
   28  0.001  0.000  0.000  0.001
   29  0.000  0.000  0.004  0.004
   30  0.000  0.000  0.004  0.004
   31  0.000  0.000  0.004  0.004
   32  0.000  0.000  0.004  0.004
   33  0.000  0.000  0.004  0.004
   34  0.000  0.000  0.004  0.004
   35  0.001  0.000  0.001  0.002
   36  0.002  0.001  0.001  0.003
tot    0.114  0.016  0.683  0.812
 
band     8 # energy   -4.97887352 # occ.  2.00000000
 
ion      s      p      d    tot
    1  0.000  0.000  0.010  0.010
    2  0.000  0.000  0.003  0.004
    3  0.001  0.001  0.008  0.010
    4  0.000  0.000  0.004  0.004
    5  0.000  0.000  0.000  0.000
    6  0.001  0.001  0.005  0.007
    7  0.001  0.001  0.008  0.009
    8  0.001  0.001  0.004  0.005
    9  0.000  0.000  0.007  0.007
   10  0.000  0.001  0.065  0.066
   11  0.002  0.001  0.033  0.036
   12  0.026  0.001  0.031  0.057
   13  0.003  0.000  0.039  0.043
   14  0.000  0.002  0.015  0.016
   15  0.009  0.000  0.049  0.059
   16  0.020  0.001  0.039  0.060
   17  0.012  0.001  0.026  0.038
   18  0.000  0.000  0.125  0.125
   19  0.007  0.001  0.021  0.028
   20  0.000  0.000  0.030  0.030
   21  0.008  0.001  0.010  0.019
   22  0.000  0.000  0.023  0.024
   23  0.006  0.001  0.015  0.022
   24  0.000  0.001  0.026  0.026
   25  0.000  0.001  0.021  0.022
   26  0.009  0.001  0.020  0.030
   27  0.000  0.000  0.024  0.024
   28  0.000  0.000  0.006  0.007
   29  0.001  0.000  0.002  0.003
   30  0.000  0.000  0.002  0.002
   31  0.001  0.000  0.002  0.003
   32  0.000  0.000  0.002  0.003
   33  0.000  0.000  0.002  0.002
   34  0.000  0.000  0.002  0.003
   35  0.000  0.000  0.002  0.002
   36  0.000  0.000  0.001  0.001
tot    0.111  0.015  0.683  0.810
 
band     9 # energy   -4.97887041 # occ.  2.00000000
 
ion      s      p      d    tot
    1  0.000  0.000  0.010  0.011
    2  0.002  0.001  0.007  0.010
    3  0.000  0.000  0.003  0.003
    4  0.002  0.001  0.006  0.009
    5  0.000  0.000  0.000  0.000
    6  0.000  0.000  0.006  0.006
    7  0.001  0.000  0.003  0.004
    8  0.001  0.000  0.007  0.008
    9  0.000  0.000  0.007  0.007
   10  0.031  0.001  0.025  0.056
   11  0.001  0.001  0.025  0.027
   12  0.005  0.001  0.059  0.065
   13  0.001  0.001  0.019  0.021
   14  0.004  0.000  0.044  0.047
   15  0.005  0.000  0.084  0.089
   16  0.011  0.001  0.051  0.063
   17  0.002  0.000  0.108  0.110
   18  0.014  0.001  0.008  0.023
   19  0.004  0.001  0.021  0.026
   20  0.010  0.001  0.007  0.018
   21  0.002  0.000  0.027  0.029
   22  0.000  0.000  0.025  0.026
   23  0.004  0.000  0.022  0.026
   24  0.000  0.000  0.023  0.023
   25  0.010  0.001  0.020  0.031
   26  0.002  0.001  0.021  0.024
   27  0.000  0.000  0.025  0.025
   28  0.000  0.000  0.006  0.006
   29  0.000  0.000  0.002  0.002
   30  0.001  0.000  0.002  0.004
   31  0.000  0.000  0.002  0.002
   32  0.001  0.000  0.002  0.003
   33  0.001  0.000  0.002  0.003
   34  0.001  0.000  0.002  0.002
   35  0.000  0.000  0.002  0.002
   36  0.000  0.000  0.001  0.001
tot    0.111  0.015  0.683  0.810
 
band    10 # energy   -4.95027374 # occ.  2.00000000
 
ion      s      p      d    tot
    1  0.000  0.000  0.007  0.008
    2  0.000  0.000  0.011  0.011
    3  0.000  0.000  0.011  0.011
    4  0.000  0.000  0.011  0.011
    5  0.001  0.000  0.002  0.003
    6  0.000  0.000  0.011  0.011
    7  0.000  0.000  0.011  0.011
    8  0.000  0.000  0.011  0.011
    9  0.007  0.000  0.003  0.011
   10  0.002  0.000  0.016  0.019
   11  0.000  0.000  0.044  0.044
   12  0.002  0.000  0.016  0.019
   13  0.000  0.000  0.044  0.044
   14  0.000  0.000  0.044  0.044
   15  0.000  0.000  0.027  0.027
   16  0.002  0.000  0.016  0.019
   17  0.000  0.000  0.027  0.027
   18  0.000  0.000  0.027  0.027
   19  0.004  0.000  0.004  0.009
   20  0.001  0.000  0.045  0.046
   21  0.001  0.000  0.045  0.046
   22  0.004  0.000  0.071  0.076
   23  0.001  0.000  0.045  0.046
   24  0.004  0.000  0.071  0.076
   25  0.004  0.000  0.004  0.009
   26  0.004  0.000  0.004  0.009
   27  0.004  0.000  0.071  0.076
   28  0.007  0.001  0.000  0.008
   29  0.001  0.000  0.008  0.010
   30  0.001  0.000  0.008  0.010
   31  0.001  0.000  0.008  0.010
   32  0.001  0.000  0.008  0.010
   33  0.001  0.000  0.008  0.010
   34  0.001  0.000  0.008  0.010
   35  0.000  0.000  0.024  0.025
   36  0.000  0.000  0.000  0.000
tot    0.061  0.007  0.774  0.841
 
band    11 # energy   -4.93419062 # occ.  2.00000000
 
ion      s      p      d    tot
    1  0.000  0.000  0.012  0.012
    2  0.003  0.000  0.008  0.011
    3  0.000  0.000  0.009  0.010
    4  0.003  0.000  0.008  0.011
    5  0.000  0.000  0.004  0.005
    6  0.003  0.001  0.007  0.010
    7  0.000  0.000  0.009  0.009
    8  0.003  0.000  0.007  0.010
    9  0.000  0.000  0.023  0.023
   10  0.002  0.000  0.032  0.034
   11  0.001  0.000  0.032  0.033
   12  0.001  0.000  0.025  0.025
   13  0.001  0.000  0.029  0.031
   14  0.005  0.000  0.009  0.014
   15  0.000  0.000  0.034  0.035
   16  0.000  0.000  0.023  0.024
   17  0.000  0.000  0.034  0.034
   18  0.000  0.000  0.030  0.030
   19  0.003  0.000  0.090  0.093
   20  0.000  0.000  0.033  0.034
   21  0.000  0.000  0.029  0.029
   22  0.003  0.000  0.037  0.041
   23  0.000  0.000  0.029  0.029
   24  0.011  0.000  0.036  0.047
   25  0.016  0.000  0.003  0.019
   26  0.005  0.000  0.078  0.083
   27  0.002  0.000  0.037  0.040
   28  0.000  0.000  0.008  0.008
   29  0.001  0.000  0.005  0.006
   30  0.002  0.001  0.003  0.006
   31  0.000  0.000  0.006  0.006
   32  0.000  0.000  0.008  0.009
   33  0.002  0.001  0.004  0.006
   34  0.001  0.001  0.008  0.009
   35  0.000  0.000  0.010  0.010
   36  0.000  0.000  0.001  0.001
tot    0.070  0.009  0.759  0.837
 
band    12 # energy   -4.93418229 # occ.  2.00000000
 
ion      s      p      d    tot
    1  0.000  0.000  0.012  0.013
    2  0.001  0.000  0.008  0.009
    3  0.004  0.000  0.007  0.011
    4  0.001  0.000  0.008  0.009
    5  0.000  0.000  0.004  0.005
    6  0.001  0.000  0.009  0.010
    7  0.004  0.000  0.007  0.011
    8  0.001  0.000  0.009  0.010
    9  0.000  0.000  0.023  0.023
   10  0.000  0.000  0.021  0.021
   11  0.004  0.000  0.015  0.019
   12  0.002  0.000  0.029  0.030
   13  0.003  0.000  0.018  0.021
   14  0.000  0.000  0.038  0.038
   15  0.000  0.000  0.031  0.031
   16  0.002  0.000  0.030  0.032
   17  0.000  0.000  0.031  0.032
   18  0.000  0.000  0.036  0.036
   19  0.013  0.000  0.024  0.037
   20  0.000  0.000  0.028  0.028
   21  0.000  0.000  0.031  0.032
   22  0.008  0.000  0.036  0.044
   23  0.000  0.000  0.032  0.032
   24  0.000  0.000  0.037  0.038
   25  0.000  0.000  0.111  0.111
   26  0.011  0.000  0.036  0.047
   27  0.009  0.000  0.036  0.045
   28  0.000  0.000  0.008  0.008
   29  0.001  0.001  0.006  0.008
   30  0.000  0.000  0.008  0.008
   31  0.002  0.001  0.006  0.008
   32  0.002  0.000  0.003  0.005
   33  0.000  0.000  0.008  0.008
   34  0.001  0.000  0.003  0.005
   35  0.000  0.000  0.009  0.010
   36  0.000  0.000  0.001  0.001
tot    0.070  0.009  0.759  0.837
 
band    13 # energy   -4.93001267 # occ.  2.00000000
 
ion      s      p      d    tot
    1  0.008  0.000  0.003  0.011
    2  0.000  0.000  0.013  0.013
    3  0.000  0.000  0.013  0.013
    4  0.000  0.000  0.013  0.013
    5  0.003  0.001  0.002  0.005
    6  0.000  0.000  0.013  0.013
    7  0.000  0.000  0.013  0.013
    8  0.000  0.000  0.013  0.013
    9  0.001  0.000  0.004  0.005
   10  0.001  0.000  0.031  0.032
   11  0.002  0.000  0.017  0.019
   12  0.001  0.000  0.031  0.032
   13  0.002  0.000  0.017  0.019
   14  0.002  0.000  0.017  0.019
   15  0.000  0.000  0.029  0.030
   16  0.001  0.000  0.031  0.032
   17  0.000  0.000  0.029  0.030
   18  0.000  0.000  0.029  0.030
   19  0.000  0.000  0.082  0.082
   20  0.008  0.000  0.034  0.042
   21  0.008  0.000  0.035  0.043
   22  0.006  0.000  0.010  0.017
   23  0.008  0.000  0.035  0.043
   24  0.006  0.000  0.010  0.017
   25  0.000  0.000  0.081  0.081
   26  0.000  0.000  0.082  0.082
   27  0.006  0.000  0.010  0.017
   28  0.001  0.000  0.016  0.017
   29  0.000  0.000  0.007  0.008
   30  0.000  0.000  0.007  0.008
   31  0.000  0.000  0.007  0.008
   32  0.000  0.000  0.007  0.008
   33  0.000  0.000  0.007  0.008
   34  0.000  0.000  0.007  0.008
   35  0.002  0.001  0.000  0.003
   36  0.005  0.002  0.002  0.008
tot    0.073  0.009  0.760  0.842
 
band    14 # energy   -4.92818847 # occ.  2.00000000
 
ion      s      p      d    tot
    1  0.000  0.000  0.015  0.015
    2  0.002  0.000  0.009  0.012
    3  0.000  0.000  0.009  0.009
    4  0.003  0.000  0.009  0.012
    5  0.000  0.000  0.022  0.022
    6  0.003  0.000  0.007  0.010
    7  0.000  0.000  0.009  0.009
    8  0.002  0.000  0.007  0.009
    9  0.000  0.000  0.003  0.003
   10  0.000  0.000  0.052  0.052
   11  0.000  0.000  0.040  0.040
   12  0.001  0.000  0.024  0.025
   13  0.000  0.000  0.039  0.039
   14  0.000  0.000  0.027  0.027
   15  0.001  0.000  0.021  0.023
   16  0.002  0.000  0.020  0.022
   17  0.001  0.000  0.021  0.022
   18  0.000  0.000  0.017  0.017
   19  0.003  0.000  0.038  0.041
   20  0.000  0.000  0.095  0.095
   21  0.012  0.000  0.038  0.050
   22  0.003  0.000  0.033  0.037
   23  0.013  0.000  0.032  0.045
   24  0.000  0.000  0.079  0.079
   25  0.000  0.001  0.007  0.007
   26  0.003  0.000  0.035  0.038
   27  0.004  0.000  0.028  0.032
   28  0.000  0.000  0.006  0.006
   29  0.000  0.000  0.005  0.005
   30  0.002  0.000  0.003  0.005
   31  0.000  0.000  0.005  0.006
   32  0.001  0.000  0.007  0.008
   33  0.002  0.000  0.003  0.006
   34  0.001  0.000  0.007  0.008
   35  0.000  0.000  0.003  0.004
   36  0.000  0.001  0.003  0.003
tot    0.059  0.008  0.777  0.844
 
band    15 # energy   -4.92817868 # occ.  2.00000000
 
ion      s      p      d    tot
    1  0.000  0.000  0.015  0.016
    2  0.001  0.000  0.007  0.008
    3  0.003  0.000  0.007  0.011
    4  0.001  0.000  0.007  0.008
    5  0.000  0.000  0.022  0.022
    6  0.001  0.000  0.010  0.011
    7  0.003  0.000  0.007  0.011
    8  0.001  0.000  0.010  0.011
    9  0.000  0.000  0.003  0.003
   10  0.002  0.001  0.012  0.014
   11  0.000  0.000  0.030  0.030
   12  0.001  0.000  0.041  0.041
   13  0.000  0.000  0.032  0.032
   14  0.000  0.000  0.043  0.044
   15  0.000  0.000  0.018  0.018
   16  0.000  0.000  0.044  0.044
   17  0.000  0.000  0.018  0.019
   18  0.002  0.000  0.022  0.024
   19  0.001  0.000  0.015  0.016
   20  0.016  0.000  0.015  0.031
   21  0.005  0.000  0.072  0.077
   22  0.001  0.000  0.060  0.062
   23  0.004  0.000  0.079  0.082
   24  0.005  0.000  0.015  0.020
   25  0.004  0.000  0.047  0.051
   26  0.001  0.000  0.018  0.020
   27  0.001  0.000  0.065  0.066
   28  0.000  0.000  0.006  0.006
   29  0.002  0.001  0.005  0.008
   30  0.000  0.000  0.007  0.007
   31  0.002  0.001  0.005  0.007
   32  0.001  0.000  0.003  0.005
   33  0.000  0.000  0.007  0.007
   34  0.001  0.000  0.003  0.005
   35  0.000  0.000  0.003  0.004
   36  0.000  0.001  0.003  0.003
tot    0.059  0.008  0.777  0.844
 
band    16 # energy   -4.89230737 # occ.  2.00000000
 
ion      s      p      d    tot
    1  0.002  0.000  0.003  0.005
    2  0.002  0.000  0.009  0.011
    3  0.002  0.000  0.009  0.011
    4  0.002  0.000  0.009  0.011
    5  0.005  0.000  0.011  0.016
    6  0.002  0.000  0.009  0.011
    7  0.002  0.000  0.009  0.011
    8  0.002  0.000  0.009  0.011
    9  0.000  0.000  0.010  0.010
   10  0.000  0.000  0.005  0.005
   11  0.001  0.000  0.014  0.016
   12  0.000  0.000  0.005  0.005
   13  0.001  0.000  0.014  0.016
   14  0.001  0.000  0.014  0.016
   15  0.003  0.000  0.007  0.010
   16  0.000  0.000  0.005  0.005
   17  0.003  0.000  0.007  0.010
   18  0.003  0.000  0.007  0.010
   19  0.002  0.000  0.019  0.022
   20  0.001  0.001  0.022  0.024
   21  0.001  0.001  0.022  0.024
   22  0.000  0.001  0.021  0.022
   23  0.001  0.001  0.022  0.024
   24  0.000  0.001  0.021  0.022
   25  0.002  0.000  0.019  0.022
   26  0.002  0.000  0.019  0.022
   27  0.000  0.001  0.021  0.022
   28  0.012  0.000  0.038  0.050
   29  0.015  0.000  0.029  0.044
   30  0.015  0.000  0.029  0.044
   31  0.015  0.000  0.029  0.044
   32  0.015  0.000  0.029  0.044
   33  0.015  0.000  0.029  0.044
   34  0.015  0.000  0.029  0.044
   35  0.023  0.000  0.026  0.049
   36  0.013  0.000  0.007  0.020
tot    0.178  0.009  0.592  0.779
 
band    17 # energy   -4.77324307 # occ.  2.00000000
 
ion      s      p      d    tot
    1  0.000  0.000  0.011  0.011
    2  0.000  0.000  0.010  0.011
    3  0.000  0.000  0.010  0.011
    4  0.000  0.000  0.010  0.011
    5  0.002  0.001  0.006  0.010
    6  0.000  0.000  0.010  0.010
    7  0.000  0.000  0.010  0.011
    8  0.000  0.000  0.010  0.010
    9  0.002  0.000  0.002  0.004
   10  0.002  0.001  0.064  0.066
   11  0.000  0.001  0.037  0.038
   12  0.002  0.001  0.064  0.066
   13  0.000  0.001  0.037  0.038
   14  0.000  0.001  0.036  0.037
   15  0.001  0.000  0.022  0.023
   16  0.002  0.001  0.064  0.066
   17  0.001  0.000  0.022  0.023
   18  0.001  0.000  0.023  0.024
   19  0.002  0.001  0.051  0.053
   20  0.001  0.000  0.023  0.024
   21  0.001  0.000  0.023  0.024
   22  0.000  0.000  0.032  0.033
   23  0.001  0.000  0.023  0.024
   24  0.000  0.000  0.031  0.032
   25  0.002  0.001  0.051  0.054
   26  0.002  0.001  0.051  0.053
   27  0.000  0.000  0.032  0.033
   28  0.001  0.000  0.005  0.006
   29  0.000  0.000  0.008  0.008
   30  0.000  0.000  0.008  0.008
   31  0.000  0.000  0.008  0.008
   32  0.000  0.000  0.008  0.008
   33  0.000  0.000  0.008  0.008
   34  0.000  0.000  0.008  0.008
   35  0.002  0.001  0.005  0.007
   36  0.002  0.000  0.001  0.004
tot    0.026  0.015  0.822  0.863
 
band    18 # energy   -4.76960409 # occ.  2.00000000
 
ion      s      p      d    tot
    1  0.000  0.001  0.021  0.022
    2  0.002  0.001  0.009  0.011
    3  0.000  0.000  0.012  0.012
    4  0.002  0.001  0.009  0.011
    5  0.000  0.000  0.004  0.004
    6  0.001  0.000  0.006  0.007
    7  0.000  0.000  0.012  0.012
    8  0.001  0.000  0.006  0.007
    9  0.000  0.000  0.008  0.008
   10  0.000  0.000  0.061  0.061
   11  0.001  0.001  0.026  0.028
   12  0.002  0.000  0.053  0.055
   13  0.001  0.001  0.028  0.029
   14  0.000  0.000  0.000  0.000
   15  0.000  0.000  0.039  0.040
   16  0.002  0.000  0.054  0.056
   17  0.000  0.000  0.037  0.038
   18  0.000  0.000  0.075  0.075
   19  0.000  0.000  0.037  0.038
   20  0.000  0.000  0.007  0.007
   21  0.001  0.001  0.019  0.020
   22  0.002  0.000  0.045  0.047
   23  0.001  0.001  0.018  0.020
   24  0.000  0.000  0.039  0.039
   25  0.000  0.000  0.071  0.071
   26  0.000  0.000  0.036  0.036
   27  0.002  0.000  0.044  0.047
   28  0.000  0.000  0.007  0.007
   29  0.000  0.000  0.004  0.005
   30  0.000  0.000  0.007  0.008
   31  0.000  0.000  0.004  0.005
   32  0.001  0.001  0.004  0.006
   33  0.000  0.000  0.007  0.008
   34  0.001  0.001  0.004  0.006
   35  0.000  0.001  0.016  0.017
   36  0.000  0.000  0.000  0.000
tot    0.022  0.014  0.829  0.865
 
band    19 # energy   -4.76958094 # occ.  2.00000000
 
ion      s      p      d    tot
    1  0.000  0.001  0.021  0.022
    2  0.000  0.000  0.009  0.009
    3  0.002  0.001  0.006  0.008
    4  0.000  0.000  0.009  0.009
    5  0.000  0.000  0.004  0.004
    6  0.001  0.001  0.012  0.013
    7  0.002  0.001  0.006  0.008
    8  0.001  0.001  0.012  0.013
    9  0.000  0.000  0.008  0.009
   10  0.003  0.000  0.052  0.054
   11  0.000  0.000  0.010  0.010
   12  0.001  0.000  0.058  0.059
   13  0.000  0.000  0.008  0.009
   14  0.001  0.001  0.036  0.038
   15  0.000  0.000  0.062  0.063
   16  0.001  0.000  0.058  0.058
   17  0.000  0.000  0.064  0.065
   18  0.001  0.001  0.025  0.026
   19  0.000  0.000  0.059  0.059
   20  0.001  0.001  0.023  0.025
   21  0.000  0.000  0.010  0.011
   22  0.001  0.000  0.041  0.042
   23  0.000  0.000  0.011  0.011
   24  0.003  0.000  0.047  0.050
   25  0.001  0.000  0.024  0.025
   26  0.000  0.000  0.060  0.061
   27  0.001  0.000  0.041  0.042
   28  0.000  0.000  0.007  0.007
   29  0.001  0.000  0.007  0.008
   30  0.001  0.000  0.003  0.005
   31  0.001  0.001  0.006  0.008
   32  0.000  0.000  0.006  0.006
   33  0.001  0.000  0.003  0.005
   34  0.000  0.000  0.006  0.006
   35  0.000  0.001  0.016  0.017
   36  0.000  0.000  0.000  0.000
tot    0.022  0.014  0.829  0.865
 
band    20 # energy   -4.76751702 # occ.  2.00000000
 
ion      s      p      d    tot
    1  0.005  0.001  0.001  0.006
    2  0.000  0.000  0.011  0.012
    3  0.000  0.000  0.012  0.012
    4  0.000  0.000  0.011  0.012
    5  0.001  0.000  0.009  0.010
    6  0.000  0.000  0.011  0.012
    7  0.000  0.000  0.012  0.012
    8  0.000  0.000  0.011  0.012
    9  0.003  0.001  0.009  0.013
   10  0.001  0.000  0.023  0.023
   11  0.001  0.000  0.039  0.040
   12  0.001  0.000  0.023  0.024
   13  0.001  0.000  0.039  0.040
   14  0.001  0.000  0.039  0.040
   15  0.000  0.001  0.063  0.064
   16  0.001  0.000  0.023  0.024
   17  0.000  0.001  0.063  0.064
   18  0.000  0.001  0.065  0.066
   19  0.000  0.000  0.022  0.022
   20  0.000  0.001  0.044  0.045
   21  0.000  0.000  0.045  0.046
   22  0.002  0.000  0.036  0.038
   23  0.000  0.000  0.045  0.046
   24  0.002  0.000  0.035  0.037
   25  0.000  0.000  0.023  0.023
   26  0.000  0.000  0.022  0.022
   27  0.002  0.000  0.036  0.038
   28  0.005  0.001  0.000  0.006
   29  0.000  0.000  0.007  0.008
   30  0.000  0.000  0.008  0.008
   31  0.000  0.000  0.007  0.008
   32  0.000  0.000  0.008  0.008
   33  0.000  0.000  0.008  0.008
   34  0.000  0.000  0.008  0.008
   35  0.000  0.000  0.003  0.003
   36  0.001  0.001  0.003  0.005
tot    0.027  0.015  0.823  0.865
 
band    21 # energy   -4.76396248 # occ.  2.00000000
 
ion      s      p      d    tot
    1  0.000  0.000  0.001  0.001
    2  0.002  0.001  0.008  0.011
    3  0.000  0.000  0.012  0.012
    4  0.002  0.001  0.008  0.011
    5  0.000  0.001  0.016  0.017
    6  0.001  0.000  0.006  0.008
    7  0.000  0.000  0.012  0.012
    8  0.001  0.000  0.006  0.008
    9  0.000  0.001  0.016  0.016
   10  0.000  0.001  0.024  0.025
   11  0.000  0.000  0.081  0.081
   12  0.000  0.000  0.030  0.031
   13  0.000  0.000  0.082  0.083
   14  0.002  0.000  0.037  0.039
   15  0.001  0.000  0.028  0.029
   16  0.000  0.000  0.030  0.030
   17  0.001  0.000  0.027  0.028
   18  0.003  0.001  0.051  0.055
   19  0.001  0.000  0.014  0.015
   20  0.003  0.000  0.032  0.035
   21  0.001  0.000  0.058  0.059
   22  0.000  0.000  0.037  0.037
   23  0.001  0.000  0.057  0.058
   24  0.000  0.001  0.018  0.019
   25  0.003  0.001  0.038  0.042
   26  0.001  0.000  0.014  0.014
   27  0.000  0.000  0.036  0.037
   28  0.000  0.000  0.010  0.010
   29  0.001  0.000  0.004  0.005
   30  0.000  0.000  0.007  0.007
   31  0.000  0.000  0.004  0.005
   32  0.001  0.001  0.004  0.006
   33  0.000  0.000  0.007  0.007
   34  0.001  0.001  0.004  0.006
   35  0.000  0.000  0.001  0.002
   36  0.000  0.001  0.003  0.004
tot    0.024  0.016  0.824  0.865
 
band    22 # energy   -4.76393812 # occ.  2.00000000
 
ion      s      p      d    tot
    1  0.000  0.000  0.001  0.001
    2  0.000  0.000  0.009  0.009
    3  0.002  0.001  0.006  0.008
    4  0.000  0.000  0.009  0.009
    5  0.000  0.001  0.016  0.017
    6  0.001  0.001  0.012  0.013
    7  0.002  0.001  0.006  0.008
    8  0.001  0.001  0.012  0.013
    9  0.000  0.001  0.016  0.016
   10  0.000  0.000  0.031  0.032
   11  0.001  0.000  0.052  0.053
   12  0.000  0.001  0.026  0.027
   13  0.001  0.000  0.051  0.052
   14  0.000  0.000  0.097  0.097
   15  0.002  0.001  0.044  0.046
   16  0.000  0.001  0.026  0.027