PROCAR new format
# of k-points:   10         # of bands:  252         # of ions:   38

 k-point     1 :    0.00000000 0.00000000 0.00000000     weight = 0.01562500

band     1 # energy  -20.22364772 # occ.  2.00000000
 
ion      s      p      d    tot
    1  0.000  0.000  0.000  0.000
    2  0.000  0.000  0.000  0.000
    3  0.000  0.000  0.000  0.000
    4  0.000  0.000  0.000  0.000
    5  0.000  0.000  0.000  0.000
    6  0.000  0.000  0.000  0.000
    7  0.000  0.000  0.000  0.000
    8  0.000  0.000  0.000  0.000
    9  0.000  0.000  0.000  0.000
   10  0.000  0.000  0.000  0.000
   11  0.000  0.000  0.000  0.000
   12  0.000  0.000  0.000  0.000
   13  0.000  0.000  0.000  0.000
   14  0.000  0.000  0.000  0.000
   15  0.000  0.000  0.000  0.000
   16  0.000  0.000  0.000  0.000
   17  0.000  0.000  0.000  0.000
   18  0.000  0.000  0.000  0.000
   19  0.000  0.000  0.000  0.000
   20  0.000  0.000  0.000  0.000
   21  0.000  0.000  0.000  0.000
   22  0.000  0.000  0.000  0.000
   23  0.000  0.000  0.000  0.000
   24  0.000  0.000  0.000  0.000
   25  0.000  0.000  0.000  0.000
   26  0.000  0.000  0.000  0.000
   27  0.000  0.000  0.000  0.000
   28  0.000  0.000  0.000  0.000
   29  0.000  0.000  0.000  0.000
   30  0.000  0.000  0.000  0.000
   31  0.000  0.000  0.000  0.000
   32  0.000  0.000  0.000  0.000
   33  0.000  0.000  0.000  0.000
   34  0.000  0.000  0.000  0.000
   35  0.000  0.000  0.000  0.000
   36  0.012  0.013  0.021  0.045
   37  0.745  0.013  0.000  0.757
   38  0.113  0.023  0.000  0.136
tot    0.869  0.049  0.021  0.939
 
band     2 # energy   -9.12513575 # occ.  2.00000000
 
ion      s      p      d    tot
    1  0.000  0.000  0.000  0.000
    2  0.000  0.000  0.000  0.000
    3  0.000  0.000  0.000  0.000
    4  0.000  0.000  0.000  0.000
    5  0.000  0.000  0.000  0.000
    6  0.000  0.000  0.000  0.000
    7  0.000  0.000  0.000  0.000
    8  0.000  0.000  0.000  0.000
    9  0.000  0.000  0.000  0.000
   10  0.001  0.000  0.000  0.001
   11  0.001  0.000  0.000  0.001
   12  0.001  0.000  0.000  0.001
   13  0.001  0.000  0.000  0.001
   14  0.001  0.000  0.000  0.001
   15  0.001  0.000  0.000  0.001
   16  0.001  0.000  0.000  0.001
   17  0.001  0.000  0.000  0.001
   18  0.001  0.000  0.000  0.001
   19  0.001  0.000  0.000  0.001
   20  0.006  0.001  0.001  0.008
   21  0.006  0.001  0.001  0.008
   22  0.001  0.000  0.000  0.002
   23  0.006  0.001  0.001  0.008
   24  0.001  0.000  0.000  0.002
   25  0.001  0.000  0.000  0.001
   26  0.001  0.000  0.000  0.001
   27  0.001  0.000  0.000  0.002
   28  0.001  0.000  0.000  0.001
   29  0.002  0.000  0.000  0.002
   30  0.002  0.000  0.000  0.002
   31  0.002  0.000  0.000  0.002
   32  0.002  0.000  0.000  0.002
   33  0.002  0.000  0.000  0.002
   34  0.002  0.000  0.000  0.002
   35  0.001  0.000  0.000  0.001
   36  0.080  0.023  0.117  0.220
   37  0.016  0.482  0.000  0.498
   38  0.161  0.018  0.000  0.179
tot    0.299  0.527  0.121  0.947
 
band     3 # energy   -8.35846036 # occ.  2.00000000
 
ion      s      p      d    tot
    1  0.007  0.001  0.000  0.008
    2  0.007  0.001  0.000  0.007
    3  0.007  0.001  0.000  0.007
    4  0.007  0.001  0.000  0.007
    5  0.007  0.001  0.000  0.007
    6  0.007  0.001  0.000  0.007
    7  0.007  0.001  0.000  0.007
    8  0.007  0.001  0.000  0.007
    9  0.007  0.001  0.000  0.007
   10  0.024  0.000  0.000  0.024
   11  0.024  0.000  0.000  0.024
   12  0.024  0.000  0.000  0.024
   13  0.024  0.000  0.000  0.024
   14  0.024  0.000  0.000  0.024
   15  0.024  0.000  0.000  0.024
   16  0.024  0.000  0.000  0.024
   17  0.024  0.000  0.000  0.024
   18  0.024  0.000  0.000  0.024
   19  0.023  0.000  0.000  0.023
   20  0.021  0.000  0.000  0.021
   21  0.021  0.000  0.000  0.021
   22  0.022  0.000  0.000  0.022
   23  0.021  0.000  0.000  0.021
   24  0.022  0.000  0.000  0.022
   25  0.023  0.000  0.000  0.023
   26  0.023  0.000  0.000  0.023
   27  0.022  0.000  0.000  0.022
   28  0.006  0.001  0.000  0.007
   29  0.006  0.001  0.000  0.006
   30  0.006  0.001  0.000  0.006
   31  0.006  0.001  0.000  0.006
   32  0.006  0.001  0.000  0.006
   33  0.006  0.001  0.000  0.006
   34  0.006  0.001  0.000  0.006
   35  0.006  0.001  0.000  0.007
   36  0.001  0.007  0.013  0.021
   37  0.002  0.036  0.000  0.038
   38  0.012  0.001  0.000  0.013
tot    0.535  0.060  0.014  0.608
 
band     4 # energy   -7.12740372 # occ.  2.00000000
 
ion      s      p      d    tot
    1  0.017  0.001  0.000  0.018
    2  0.017  0.001  0.000  0.018
    3  0.017  0.001  0.000  0.018
    4  0.017  0.001  0.000  0.018
    5  0.017  0.001  0.000  0.018
    6  0.017  0.001  0.000  0.018
    7  0.017  0.001  0.000  0.018
    8  0.017  0.001  0.000  0.018
    9  0.017  0.001  0.000  0.018
   10  0.010  0.002  0.000  0.013
   11  0.010  0.002  0.001  0.012
   12  0.010  0.002  0.000  0.013
   13  0.010  0.002  0.001  0.012
   14  0.010  0.002  0.001  0.012
   15  0.010  0.002  0.001  0.012
   16  0.010  0.002  0.000  0.013
   17  0.010  0.002  0.001  0.012
   18  0.010  0.002  0.001  0.012
   19  0.009  0.002  0.000  0.012
   20  0.008  0.002  0.000  0.011
   21  0.008  0.002  0.000  0.011
   22  0.010  0.002  0.000  0.012
   23  0.008  0.002  0.000  0.011
   24  0.010  0.002  0.000  0.012
   25  0.009  0.002  0.000  0.012
   26  0.009  0.002  0.000  0.012
   27  0.010  0.002  0.000  0.012
   28  0.018  0.001  0.001  0.019
   29  0.019  0.001  0.001  0.021
   30  0.019  0.001  0.001  0.021
   31  0.019  0.001  0.001  0.021
   32  0.019  0.001  0.001  0.021
   33  0.019  0.001  0.001  0.021
   34  0.019  0.001  0.001  0.021
   35  0.018  0.001  0.001  0.019
   36  0.021  0.004  0.015  0.040
   37  0.001  0.008  0.000  0.010
   38  0.002  0.000  0.000  0.002
tot    0.500  0.063  0.033  0.597
 
band     5 # energy   -5.58237433 # occ.  2.00000000
 
ion      s      p      d    tot
    1  0.015  0.000  0.005  0.020
    2  0.016  0.000  0.005  0.021
    3  0.016  0.000  0.005  0.021
    4  0.016  0.000  0.005  0.021
    5  0.014  0.000  0.005  0.020
    6  0.016  0.000  0.005  0.021
    7  0.016  0.000  0.005  0.021
    8  0.016  0.000  0.005  0.021
    9  0.019  0.000  0.005  0.024
   10  0.004  0.004  0.001  0.009
   11  0.003  0.004  0.001  0.008
   12  0.004  0.004  0.001  0.009
   13  0.003  0.004  0.001  0.008
   14  0.003  0.004  0.001  0.008
   15  0.001  0.003  0.002  0.006
   16  0.004  0.004  0.001  0.009
   17  0.001  0.003  0.002  0.006
   18  0.001  0.003  0.002  0.006
   19  0.007  0.003  0.003  0.013
   20  0.009  0.003  0.006  0.019
   21  0.009  0.003  0.006  0.019
   22  0.003  0.003  0.003  0.010
   23  0.009  0.003  0.006  0.019
   24  0.003  0.003  0.003  0.010
   25  0.007  0.003  0.003  0.013
   26  0.007  0.003  0.003  0.013
   27  0.003  0.003  0.003  0.010
   28  0.012  0.000  0.006  0.019
   29  0.018  0.000  0.009  0.027
   30  0.018  0.000  0.009  0.027
   31  0.018  0.000  0.009  0.027
   32  0.018  0.000  0.009  0.027
   33  0.018  0.000  0.009  0.027
   34  0.018  0.000  0.009  0.027
   35  0.015  0.000  0.006  0.021
   36  0.024  0.001  0.033  0.058
   37  0.000  0.000  0.000  0.000
   38  0.000  0.000  0.000  0.000
tot    0.387  0.062  0.194  0.643
 
band     6 # energy   -5.46374245 # occ.  2.00000000
 
ion      s      p      d    tot
    1  0.000  0.002  0.005  0.007
    2  0.008  0.002  0.002  0.012
    3  0.001  0.001  0.002  0.003
    4  0.008  0.002  0.002  0.012
    5  0.000  0.002  0.003  0.005
    6  0.003  0.001  0.002  0.007
    7  0.001  0.001  0.002  0.003
    8  0.003  0.001  0.002  0.007
    9  0.000  0.000  0.002  0.002
   10  0.052  0.005  0.003  0.060
   11  0.007  0.009  0.005  0.021
   12  0.013  0.002  0.011  0.026
   13  0.007  0.009  0.005  0.021
   14  0.029  0.001  0.006  0.036
   15  0.001  0.005  0.006  0.011
   16  0.013  0.002  0.011  0.026
   17  0.001  0.005  0.006  0.012
   18  0.003  0.002  0.003  0.008
   19  0.005  0.010  0.003  0.018
   20  0.072  0.003  0.008  0.083
   21  0.018  0.003  0.016  0.036
   22  0.002  0.004  0.008  0.015
   23  0.018  0.003  0.016  0.037
   24  0.009  0.003  0.003  0.015
   25  0.021  0.000  0.006  0.028
   26  0.005  0.010  0.003  0.018
   27  0.002  0.004  0.008  0.015
   28  0.000  0.002  0.003  0.005
   29  0.010  0.003  0.004  0.017
   30  0.003  0.001  0.003  0.007
   31  0.010  0.003  0.004  0.017
   32  0.002  0.001  0.004  0.007
   33  0.003  0.001  0.003  0.007
   34  0.002  0.001  0.004  0.007
   35  0.000  0.000  0.003  0.003
   36  0.000  0.005  0.030  0.035
   37  0.000  0.005  0.000  0.005
   38  0.000  0.000  0.000  0.000
tot    0.334  0.113  0.206  0.653
 
band     7 # energy   -5.46358715 # occ.  2.00000000
 
ion      s      p      d    tot
    1  0.000  0.002  0.005  0.007
    2  0.000  0.001  0.002  0.003
    3  0.007  0.002  0.002  0.011
    4  0.000  0.001  0.002  0.003
    5  0.000  0.002  0.003  0.005
    6  0.005  0.001  0.002  0.008
    7  0.007  0.002  0.002  0.011
    8  0.005  0.001  0.002  0.008
    9  0.000  0.000  0.002  0.002
   10  0.000  0.001  0.014  0.015
   11  0.022  0.003  0.006  0.031
   12  0.039  0.004  0.006  0.049
   13  0.022  0.003  0.006  0.031
   14  0.000  0.012  0.004  0.016
   15  0.002  0.003  0.004  0.009
   16  0.039  0.004  0.006  0.049
   17  0.002  0.003  0.004  0.009
   18  0.000  0.006  0.007  0.013
   19  0.016  0.003  0.005  0.025
   20  0.000  0.003  0.018  0.021
   21  0.054  0.003  0.011  0.068
   22  0.007  0.003  0.005  0.015
   23  0.054  0.003  0.011  0.067
   24  0.000  0.004  0.010  0.014
   25  0.000  0.013  0.002  0.015
   26  0.016  0.003  0.005  0.025
   27  0.007  0.003  0.005  0.015
   28  0.000  0.002  0.003  0.005
   29  0.000  0.001  0.003  0.004
   30  0.007  0.003  0.005  0.014
   31  0.000  0.001  0.003  0.004
   32  0.008  0.002  0.003  0.014
   33  0.007  0.003  0.005  0.014
   34  0.008  0.002  0.003  0.014
   35  0.000  0.000  0.003  0.003
   36  0.000  0.005  0.030  0.035
   37  0.000  0.005  0.000  0.005
   38  0.000  0.000  0.000  0.000
tot    0.334  0.113  0.206  0.653
 
band     8 # energy   -5.38710661 # occ.  2.00000000
 
ion      s      p      d    tot
    1  0.002  0.000  0.000  0.003
    2  0.000  0.002  0.004  0.006
    3  0.000  0.002  0.004  0.006
    4  0.000  0.002  0.004  0.006
    5  0.022  0.003  0.001  0.026
    6  0.000  0.002  0.004  0.006
    7  0.000  0.002  0.004  0.006
    8  0.000  0.002  0.004  0.006
    9  0.007  0.001  0.001  0.010
   10  0.003  0.005  0.009  0.017
   11  0.031  0.008  0.003  0.042
   12  0.002  0.005  0.007  0.013
   13  0.032  0.008  0.003  0.043
   14  0.023  0.010  0.003  0.035
   15  0.020  0.001  0.011  0.031
   16  0.002  0.005  0.007  0.013
   17  0.020  0.001  0.011  0.031
   18  0.011  0.001  0.012  0.024
   19  0.015  0.000  0.011  0.026
   20  0.029  0.008  0.004  0.041
   21  0.027  0.007  0.005  0.039
   22  0.004  0.006  0.005  0.015
   23  0.027  0.007  0.005  0.039
   24  0.010  0.005  0.006  0.021
   25  0.008  0.000  0.010  0.019
   26  0.015  0.000  0.011  0.026
   27  0.004  0.006  0.005  0.015
   28  0.004  0.001  0.001  0.006
   29  0.000  0.002  0.005  0.007
   30  0.000  0.002  0.005  0.006
   31  0.000  0.002  0.005  0.007
   32  0.000  0.002  0.005  0.007
   33  0.000  0.002  0.005  0.006
   34  0.000  0.002  0.005  0.007
   35  0.004  0.001  0.000  0.005
   36  0.023  0.010  0.001  0.034
   37  0.001  0.004  0.000  0.006
   38  0.002  0.000  0.000  0.002
tot    0.348  0.126  0.182  0.656
 
band     9 # energy   -5.38691535 # occ.  2.00000000
 
ion      s      p      d    tot
    1  0.000  0.001  0.002  0.003
    2  0.009  0.002  0.002  0.014
    3  0.001  0.001  0.002  0.004
    4  0.009  0.002  0.002  0.014
    5  0.000  0.001  0.004  0.005
    6  0.004  0.001  0.002  0.008
    7  0.001  0.001  0.002  0.004
    8  0.004  0.001  0.002  0.007
    9  0.000  0.003  0.005  0.008
   10  0.000  0.012  0.002  0.014
   11  0.022  0.003  0.005  0.030
   12  0.003  0.003  0.005  0.011
   13  0.022  0.003  0.005  0.030
   14  0.000  0.001  0.014  0.015
   15  0.041  0.004  0.006  0.051
   16  0.003  0.003  0.005  0.011
   17  0.041  0.004  0.006  0.051
   18  0.000  0.007  0.010  0.017
   19  0.030  0.003  0.006  0.039
   20  0.000  0.013  0.002  0.015
   21  0.001  0.004  0.005  0.009
   22  0.040  0.004  0.006  0.050
   23  0.001  0.004  0.005  0.009
   24  0.000  0.009  0.007  0.016
   25  0.000  0.000  0.017  0.017
   26  0.030  0.003  0.006  0.039
   27  0.040  0.004  0.006  0.049
   28  0.000  0.002  0.005  0.006
   29  0.013  0.003  0.003  0.018
   30  0.002  0.002  0.004  0.008
   31  0.013  0.003  0.003  0.018
   32  0.004  0.001  0.003  0.008
   33  0.002  0.002  0.004  0.008
   34  0.004  0.001  0.003  0.008
   35  0.000  0.004  0.005  0.009
   36  0.000  0.001  0.010  0.011
   37  0.000  0.000  0.000  0.000
   38  0.000  0.000  0.000  0.000
tot    0.341  0.115  0.180  0.637
 
band    10 # energy   -5.38677371 # occ.  2.00000000
 
ion      s      p      d    tot
    1  0.000  0.001  0.002  0.003
    2  0.000  0.001  0.002  0.003
    3  0.008  0.002  0.003  0.013
    4  0.000  0.001  0.002  0.003
    5  0.000  0.001  0.004  0.005
    6  0.006  0.002  0.002  0.010
    7  0.008  0.002  0.003  0.013
    8  0.006  0.002  0.002  0.010
    9  0.000  0.003  0.005  0.008
   10  0.004  0.000  0.004  0.008
   11  0.004  0.002  0.011  0.018
   12  0.001  0.009  0.004  0.014
   13  0.004  0.002  0.011  0.018
   14  0.035  0.003  0.002  0.040
   15  0.011  0.006  0.009  0.025
   16  0.001  0.009  0.004  0.014
   17  0.011  0.006  0.009  0.025
   18  0.061  0.002  0.004  0.068
   19  0.008  0.001  0.013  0.022
   20  0.000  0.001  0.006  0.007
   21  0.001  0.010  0.003  0.014
   22  0.015  0.007  0.007  0.029
   23  0.001  0.010  0.003  0.014
   24  0.049  0.003  0.004  0.056
   25  0.045  0.005  0.002  0.052
   26  0.008  0.001  0.013  0.022
   27  0.015  0.007  0.007  0.029
   28  0.000  0.002  0.005  0.006
   29  0.000  0.001  0.003  0.004
   30  0.010  0.002  0.003  0.015
   31  0.000  0.001  0.003  0.004
   32  0.009  0.003  0.003  0.014
   33  0.010  0.002  0.003  0.015
   34  0.009  0.003  0.003  0.014
   35  0.000  0.004  0.005  0.009
   36  0.000  0.001  0.010  0.012
   37  0.000  0.000  0.000  0.000
   38  0.000  0.000  0.000  0.000
tot    0.341  0.115  0.180  0.637
 
band    11 # energy   -5.37319865 # occ.  2.00000000
 
ion      s      p      d    tot
    1  0.022  0.003  0.001  0.026
    2  0.000  0.002  0.004  0.006
    3  0.000  0.002  0.004  0.006
    4  0.000  0.002  0.004  0.006
    5  0.000  0.000  0.000  0.001
    6  0.000  0.002  0.004  0.006
    7  0.000  0.002  0.004  0.006
    8  0.000  0.002  0.004  0.006
    9  0.011  0.002  0.001  0.013
   10  0.028  0.004  0.007  0.040
   11  0.003  0.001  0.011  0.015
   12  0.028  0.004  0.007  0.040
   13  0.003  0.001  0.011  0.015
   14  0.003  0.001  0.011  0.015
   15  0.017  0.009  0.002  0.028
   16  0.028  0.004  0.007  0.040
   17  0.017  0.009  0.002  0.028
   18  0.017  0.009  0.002  0.028
   19  0.017  0.009  0.002  0.029
   20  0.000  0.002  0.012  0.014
   21  0.000  0.002  0.012  0.014
   22  0.028  0.003  0.008  0.038
   23  0.000  0.002  0.012  0.014
   24  0.028  0.003  0.007  0.039
   25  0.018  0.009  0.002  0.029
   26  0.017  0.009  0.002  0.029
   27  0.028  0.003  0.008  0.038
   28  0.017  0.002  0.000  0.020
   29  0.000  0.002  0.004  0.006
   30  0.000  0.002  0.004  0.006
   31  0.000  0.002  0.004  0.006
   32  0.000  0.002  0.004  0.006
   33  0.000  0.002  0.004  0.006
   34  0.000  0.002  0.004  0.006
   35  0.013  0.003  0.002  0.017
   36  0.000  0.000  0.000  0.000
   37  0.000  0.000  0.000  0.000
   38  0.000  0.000  0.000  0.000
tot    0.344  0.114  0.182  0.639
 
band    12 # energy   -4.73104018 # occ.  2.00000000
 
ion      s      p      d    tot
    1  0.000  0.000  0.007  0.007
    2  0.013  0.003  0.004  0.019
    3  0.007  0.002  0.003  0.012
    4  0.013  0.003  0.004  0.019
    5  0.000  0.002  0.006  0.008
    6  0.001  0.001  0.003  0.006
    7  0.007  0.002  0.003  0.012
    8  0.001  0.001  0.003  0.005
    9  0.000  0.004  0.006  0.010
   10  0.000  0.003  0.010  0.013
   11  0.013  0.002  0.006  0.021
   12  0.000  0.001  0.007  0.008
   13  0.012  0.002  0.007  0.021
   14  0.000  0.000  0.015  0.015
   15  0.012  0.002  0.006  0.020
   16  0.000  0.001  0.007  0.007
   17  0.011  0.002  0.006  0.019
   18  0.000  0.002  0.013  0.015
   19  0.003  0.002  0.007  0.012
   20  0.000  0.003  0.041  0.044
   21  0.001  0.001  0.018  0.021
   22  0.007  0.004  0.008  0.019
   23  0.001  0.001  0.017  0.020
   24  0.000  0.000  0.018  0.018
   25  0.000  0.000  0.005  0.005
   26  0.003  0.002  0.007  0.012
   27  0.007  0.004  0.008  0.019
   28  0.000  0.002  0.004  0.006
   29  0.015  0.003  0.007  0.026
   30  0.001  0.003  0.014  0.018
   31  0.016  0.003  0.007  0.026
   32  0.010  0.000  0.010  0.020
   33  0.001  0.003  0.014  0.018
   34  0.009  0.000  0.010  0.020
   35  0.000  0.004  0.005  0.009
   36  0.000  0.000  0.094  0.094
   37  0.000  0.076  0.000  0.076
   38  0.000  0.001  0.000  0.001
tot    0.164  0.146  0.411  0.722
 
band    13 # energy   -4.73100609 # occ.  2.00000000
 
ion      s      p      d    tot
    1  0.000  0.000  0.007  0.007
    2  0.001  0.001  0.003  0.005
    3  0.007  0.002  0.003  0.012
    4  0.001  0.001  0.003  0.005
    5  0.000  0.002  0.006  0.008
    6  0.013  0.003  0.003  0.019
    7  0.007  0.002  0.003  0.013
    8  0.013  0.003  0.003  0.019
    9  0.000  0.004  0.006  0.010
   10  0.000  0.000  0.005  0.006
   11  0.004  0.001  0.012  0.017
   12  0.000  0.002  0.009  0.011
   13  0.004  0.001  0.012  0.017
   14  0.017  0.003  0.004  0.024
   15  0.004  0.002  0.011  0.017
   16  0.000  0.002  0.009  0.011
   17  0.004  0.002  0.011  0.017
   18  0.015  0.002  0.004  0.021
   19  0.001  0.001  0.006  0.007
   20  0.002  0.001  0.010  0.012
   21  0.000  0.002  0.033  0.036
   22  0.002  0.002  0.014  0.018
   23  0.000  0.003  0.034  0.037
   24  0.009  0.005  0.005  0.019
   25  0.004  0.003  0.007  0.014
   26  0.001  0.001  0.006  0.008
   27  0.002  0.001  0.015  0.018
   28  0.000  0.002  0.004  0.006
   29  0.002  0.001  0.014  0.017
   30  0.016  0.001  0.007  0.024
   31  0.001  0.001  0.014  0.016
   32  0.007  0.004  0.011  0.022
   33  0.016  0.001  0.007  0.024
   34  0.008  0.004  0.011  0.022
   35  0.000  0.004  0.005  0.009
   36  0.000  0.000  0.094  0.094
   37  0.000  0.076  0.000  0.076
   38  0.000  0.001  0.000  0.001
tot    0.164  0.146  0.411  0.722
 
band    14 # energy   -4.71247290 # occ.  2.00000000
 
ion      s      p      d    tot
    1  0.001  0.001  0.011  0.013
    2  0.006  0.001  0.010  0.017
    3  0.006  0.001  0.010  0.017
    4  0.006  0.001  0.010  0.017
    5  0.015  0.000  0.008  0.023
    6  0.006  0.001  0.010  0.017
    7  0.006  0.001  0.010  0.017
    8  0.006  0.001  0.010  0.017
    9  0.007  0.000  0.010  0.017
   10  0.012  0.000  0.023  0.035
   11  0.003  0.000  0.023  0.026
   12  0.012  0.000  0.023  0.035
   13  0.003  0.000  0.023  0.026
   14  0.003  0.000  0.023  0.026
   15  0.008  0.000  0.022  0.030
   16  0.012  0.000  0.023  0.035
   17  0.008  0.000  0.022  0.030
   18  0.008  0.000  0.022  0.030
   19  0.009  0.001  0.016  0.025
   20  0.003  0.000  0.030  0.033
   21  0.003  0.000  0.030  0.033
   22  0.004  0.000  0.014  0.018
   23  0.003  0.000  0.030  0.033
   24  0.004  0.000  0.014  0.018
   25  0.009  0.001  0.016  0.025
   26  0.009  0.001  0.016  0.025
   27  0.004  0.000  0.014  0.018
   28  0.000  0.001  0.005  0.006
   29  0.002  0.001  0.009  0.012
   30  0.002  0.001  0.009  0.012
   31  0.002  0.001  0.009  0.012
   32  0.002  0.001  0.009  0.012
   33  0.002  0.001  0.009  0.012
   34  0.002  0.001  0.009  0.012
   35  0.001  0.000  0.004  0.005
   36  0.016  0.000  0.021  0.036
   37  0.000  0.000  0.000  0.000
   38  0.000  0.000  0.000  0.000
tot    0.207  0.019  0.555  0.780
 
band    15 # energy   -4.67870178 # occ.  2.00000000
 
ion      s      p      d    tot
    1  0.000  0.006  0.009  0.015
    2  0.019  0.004  0.005  0.028
    3  0.012  0.003  0.005  0.020
    4  0.019  0.004  0.005  0.028
    5  0.000  0.003  0.011  0.013
    6  0.001  0.002  0.005  0.008
    7  0.012  0.003  0.005  0.020
    8  0.001  0.002  0.005  0.007
    9  0.000  0.001  0.010  0.011
   10  0.027  0.004  0.006  0.038
   11  0.001  0.004  0.015  0.020
   12  0.007  0.002  0.018  0.027
   13  0.001  0.003  0.015  0.020
   14  0.005  0.000  0.006  0.011
   15  0.002  0.002  0.013  0.017
   16  0.007  0.002  0.018  0.027
   17  0.002  0.002  0.013  0.017
   18  0.009  0.003  0.007  0.019
   19  0.002  0.001  0.014  0.017
   20  0.011  0.006  0.006  0.022
   21  0.003  0.002  0.012  0.016
   22  0.000  0.001  0.011  0.012
   23  0.003  0.001  0.012  0.016
   24  0.000  0.000  0.005  0.006
   25  0.007  0.003  0.003  0.013
   26  0.002  0.001  0.014  0.017
   27  0.000  0.001  0.011  0.012
   28  0.000  0.003  0.004  0.008
   29  0.009  0.003  0.008  0.020
   30  0.012  0.001  0.005  0.018
   31  0.008  0.003  0.008  0.020
   32  0.000  0.001  0.011  0.012
   33  0.011  0.001  0.005  0.018
   34  0.000  0.001  0.011  0.012
   35  0.000  0.001  0.005  0.006
   36  0.000  0.000  0.069  0.069
   37  0.000  0.058  0.000  0.058
   38  0.000  0.001  0.000  0.001
tot    0.193  0.139  0.383  0.715
 
band    16 # energy   -4.67862005 # occ.  2.00000000
 
ion      s      p      d    tot
    1  0.000  0.006  0.009  0.015
    2  0.002  0.002  0.005  0.009
    3  0.009  0.003  0.005  0.017
    4  0.002  0.002  0.005  0.009
    5  0.000  0.003  0.011  0.013
    6  0.020  0.004  0.005  0.029
    7  0.009  0.003  0.005  0.017
    8  0.020  0.004  0.005  0.029
    9  0.000  0.001  0.010  0.011
   10  0.000  0.001  0.023  0.024
   11  0.004  0.001  0.009  0.014
   12  0.020  0.004  0.010  0.034
   13  0.003  0.001  0.009  0.014
   14  0.000  0.005  0.018  0.022
   15  0.007  0.003  0.009  0.018
   16  0.020  0.004  0.010  0.034
   17  0.007  0.003  0.009  0.018
   18  0.000  0.002  0.015  0.016
   19  0.006  0.003  0.006  0.014
   20  0.000  0.000  0.014  0.014
   21  0.008  0.004  0.008  0.020
   22  0.000  0.000  0.007  0.008
   23  0.008  0.004  0.008  0.020
   24  0.000  0.001  0.012  0.014
   25  0.000  0.000  0.017  0.018
   26  0.005  0.003  0.006  0.014
   27  0.000  0.000  0.007  0.008
   28  0.000  0.003  0.004  0.008
   29  0.005  0.000  0.008  0.013
   30  0.002  0.003  0.011  0.015
   31  0.005  0.000  0.008  0.013
   32  0.013  0.003  0.005  0.021
   33  0.002  0.003  0.011  0.015
   34  0.013  0.003  0.005  0.021
   35  0.000  0.001  0.005  0.006
   36  0.000  0.000  0.069  0.069
   37  0.000  0.058  0.000  0.058
   38  0.000  0.001  0.000  0.001
tot    0.193  0.139  0.383  0.715
 
band    17 # energy   -4.62277239 # occ.  2.00000000
 
ion      s      p      d    tot
    1  0.044  0.003  0.000  0.047
    2  0.000  0.003  0.010  0.013
    3  0.000  0.003  0.010  0.013
    4  0.000  0.003  0.010  0.013
    5  0.012  0.003  0.002  0.017
    6  0.000  0.003  0.010  0.013
    7  0.000  0.003  0.010  0.013
    8  0.000  0.003  0.010  0.013
    9  0.001  0.001  0.001  0.003
   10  0.004  0.004  0.018  0.026
   11  0.011  0.002  0.010  0.024
   12  0.004  0.004  0.018  0.026
   13  0.011  0.002  0.010  0.024
   14  0.011  0.002  0.010  0.024
   15  0.001  0.000  0.015  0.016
   16  0.004  0.004  0.018  0.026
   17  0.001  0.000  0.015  0.016
   18  0.001  0.000  0.015  0.016
   19  0.006  0.004  0.012  0.022
   20  0.006  0.002  0.021  0.029
   21  0.006  0.002  0.021  0.029
   22  0.005  0.000  0.014  0.020
   23  0.006  0.002  0.021  0.029
   24  0.005  0.000  0.014  0.020
   25  0.006  0.004  0.012  0.022
   26  0.006  0.004  0.012  0.022
   27  0.005  0.000  0.014  0.020
   28  0.045  0.003  0.000  0.049
   29  0.000  0.003  0.012  0.015
   30  0.000  0.003  0.012  0.015
   31  0.000  0.003  0.012  0.015
   32  0.000  0.003  0.012  0.015
   33  0.000  0.003  0.012  0.015
   34  0.000  0.003  0.012  0.015
   35  0.001  0.001  0.002  0.003
   36  0.017  0.008  0.000  0.025
   37  0.001  0.002  0.000  0.003
   38  0.001  0.000  0.000  0.001
tot    0.226  0.092  0.405  0.723
 
band    18 # energy   -4.60926260 # occ.  2.00000000
 
ion      s      p      d    tot
    1  0.002  0.000  0.000  0.003
    2  0.000  0.003  0.010  0.014
    3  0.000  0.003  0.010  0.014
    4  0.000  0.003  0.010  0.014
    5  0.021  0.002  0.000  0.024
    6  0.000  0.003  0.010  0.014
    7  0.000  0.003  0.010  0.014
    8  0.000  0.003  0.010  0.014
    9  0.041  0.004  0.000  0.046
   10  0.003  0.000  0.013  0.016
   11  0.003  0.002  0.019  0.024
   12  0.003  0.000  0.013  0.016
   13  0.003  0.002  0.019  0.024
   14  0.003  0.002  0.019  0.024
   15  0.010  0.004  0.012  0.026
   16  0.003  0.000  0.013  0.016
   17  0.010  0.004  0.012  0.026
   18  0.010  0.004  0.012  0.026
   19  0.000  0.000  0.016  0.016
   20  0.009  0.002  0.011  0.022
   21  0.009  0.002  0.011  0.022
   22  0.008  0.004  0.015  0.028
   23  0.009  0.002  0.011  0.022
   24  0.008  0.004  0.015  0.028
   25  0.000  0.000  0.016  0.016
   26  0.000  0.000  0.016  0.016
   27  0.008  0.004  0.015  0.028
   28  0.003  0.000  0.000  0.003
   29  0.000  0.003  0.012  0.014
   30  0.000  0.003  0.012  0.014
   31  0.000  0.003  0.012  0.014
   32  0.000  0.003  0.012  0.014
   33  0.000  0.003  0.012  0.014
   34  0.000  0.003  0.012  0.014
   35  0.042  0.004  0.000  0.047
   36  0.020  0.007  0.000  0.027
   37  0.001  0.002  0.000  0.003
   38  0.001  0.000  0.000  0.001
tot    0.229  0.100  0.389  0.718
 
band    19 # energy   -4.57318619 # occ.  2.00000000
 
ion      s      p      d    tot
    1  0.000  0.000  0.003  0.003
    2  0.004  0.001  0.002  0.006
    3  0.000  0.000  0.002  0.002
    4  0.003  0.001  0.002  0.006
    5  0.000  0.002  0.002  0.004
    6  0.005  0.001  0.002  0.008
    7  0.000  0.000  0.002  0.002
    8  0.005  0.001  0.002  0.008
    9  0.000  0.001  0.004  0.004
   10  0.002  0.001  0.003  0.005
   11  0.001  0.001  0.007  0.008
   12  0.000  0.001  0.003  0.004
   13  0.001  0.000  0.007  0.008
   14  0.005  0.002  0.002  0.009
   15  0.000  0.001  0.006  0.007
   16  0.000  0.001  0.003  0.004
   17  0.000  0.001  0.006  0.007
   18  0.001  0.000  0.002  0.003
   19  0.000  0.002  0.010  0.012
   20  0.006  0.002  0.011  0.019
   21  0.001  0.001  0.007  0.009
   22  0.002  0.001  0.006  0.009
   23  0.002  0.001  0.007  0.009
   24  0.007  0.002  0.003  0.012
   25  0.001  0.000  0.003  0.004
   26  0.000  0.002  0.010  0.012
   27  0.002  0.001  0.006  0.009
   28  0.000  0.001  0.013  0.014
   29  0.019  0.002  0.005  0.026
   30  0.000  0.002  0.006  0.008
   31  0.018  0.002  0.005  0.025
   32  0.019  0.002  0.005  0.027
   33  0.000  0.002  0.006  0.008
   34  0.020  0.002  0.005  0.027
   35  0.000  0.001  0.011  0.012
   36  0.000  0.022  0.062  0.084
   37  0.000  0.261  0.000  0.261
   38  0.000  0.004  0.000  0.004
tot    0.126  0.327  0.236  0.688
 
band    20 # energy   -4.57310387 # occ.  2.00000000
 
ion      s      p      d    tot
    1  0.000  0.000  0.003  0.003
    2  0.002  0.001  0.002  0.005
    3  0.006  0.001  0.002  0.008
    4  0.002  0.001  0.002  0.005
    5  0.000  0.002  0.002  0.004
    6  0.001  0.000  0.001  0.003
    7  0.006  0.001  0.002  0.008
    8  0.001  0.000  0.001  0.003
    9  0.000  0.001  0.004  0.004
   10  0.000  0.001  0.003  0.004
   11  0.004  0.001  0.003  0.008
   12  0.001  0.001  0.003  0.005
   13  0.004  0.001  0.003  0.008
   14  0.000  0.000  0.008  0.008
   15  0.001  0.000  0.003  0.005
   16  0.001  0.001  0.003  0.005
   17  0.001  0.000  0.003  0.005
   18  0.000  0.001  0.008  0.008
   19  0.001  0.001  0.005  0.007
   20  0.000  0.000  0.005  0.005
   21  0.004  0.001  0.010  0.016
   22  0.005  0.001  0.004  0.011
   23  0.004  0.001  0.010  0.016
   24  0.000  0.000  0.007  0.008
   25  0.000  0.003  0.012  0.015
   26  0.001  0.001  0.005  0.007
   27  0.005  0.001  0.004  0.011
   28  0.000  0.001  0.013  0.014
   29  0.007  0.002  0.006  0.014
   30  0.025  0.003  0.005  0.032
   31  0.007  0.002  0.006  0.015
   32  0.006  0.002  0.005  0.013
   33  0.025  0.003  0.005  0.033
   34  0.006  0.002  0.005  0.013
   35  0.000  0.001  0.011  0.012
   36  0.000  0.022  0.062  0.084
   37  0.000  0.261  0.000  0.261
   38  0.000  0.004  0.000  0.004
tot    0.126  0.327  0.236  0.688
 
band    21 # energy   -4.10239572 # occ.  2.00000000
 
ion      s      p      d    tot
    1  0.000  0.001  0.025  0.026
    2  0.015  0.002  0.007  0.023
    3  0.007  0.001  0.007  0.015
    4  0.015  0.002  0.007  0.023
    5  0.000  0.001  0.011  0.012
    6  0.001  0.001  0.007  0.009
    7  0.007  0.001  0.007  0.015
    8  0.001  0.001  0.007  0.009
    9  0.000  0.003  0.005  0.008
   10  0.000  0.000  0.057  0.057
   11  0.000  0.003  0.015  0.018
   12  0.000  0.000  0.019  0.020
   13  0.000  0.003  0.014  0.018
   14  0.000  0.000  0.002  0.002
   15  0.000  0.005  0.014  0.019
   16  0.000  0.000  0.019  0.019