PROCAR new format
# of k-points:   10         # of bands:  252         # of ions:   38

 k-point     1 :    0.00000000 0.00000000 0.00000000     weight = 0.01562500

band     1 # energy  -17.93016755 # occ.  2.00000000
 
ion      s      p      d    tot
    1  0.000  0.000  0.000  0.000
    2  0.000  0.000  0.000  0.000
    3  0.000  0.000  0.000  0.000
    4  0.000  0.000  0.000  0.000
    5  0.000  0.000  0.000  0.000
    6  0.000  0.000  0.000  0.000
    7  0.000  0.000  0.000  0.000
    8  0.000  0.000  0.000  0.000
    9  0.000  0.000  0.000  0.000
   10  0.000  0.000  0.000  0.000
   11  0.000  0.000  0.000  0.000
   12  0.000  0.000  0.000  0.000
   13  0.000  0.000  0.000  0.000
   14  0.000  0.000  0.000  0.000
   15  0.000  0.000  0.000  0.000
   16  0.000  0.000  0.000  0.000
   17  0.000  0.000  0.000  0.000
   18  0.000  0.000  0.000  0.000
   19  0.000  0.000  0.000  0.000
   20  0.000  0.000  0.000  0.000
   21  0.000  0.000  0.000  0.000
   22  0.000  0.000  0.000  0.000
   23  0.000  0.000  0.000  0.000
   24  0.000  0.000  0.000  0.000
   25  0.000  0.000  0.000  0.000
   26  0.000  0.000  0.000  0.000
   27  0.000  0.000  0.000  0.000
   28  0.000  0.000  0.000  0.000
   29  0.000  0.000  0.000  0.000
   30  0.000  0.000  0.000  0.000
   31  0.000  0.000  0.000  0.000
   32  0.000  0.000  0.000  0.000
   33  0.000  0.000  0.000  0.000
   34  0.000  0.000  0.000  0.000
   35  0.000  0.000  0.000  0.000
   36  0.005  0.007  0.010  0.023
   37  0.731  0.020  0.000  0.751
   38  0.122  0.024  0.000  0.146
tot    0.859  0.052  0.010  0.920
 
band     2 # energy   -8.63471179 # occ.  2.00000000
 
ion      s      p      d    tot
    1  0.007  0.001  0.000  0.007
    2  0.007  0.001  0.000  0.007
    3  0.007  0.001  0.000  0.007
    4  0.007  0.001  0.000  0.007
    5  0.007  0.001  0.000  0.007
    6  0.007  0.001  0.000  0.007
    7  0.007  0.001  0.000  0.007
    8  0.007  0.001  0.000  0.007
    9  0.007  0.001  0.000  0.007
   10  0.025  0.000  0.000  0.025
   11  0.024  0.000  0.000  0.025
   12  0.025  0.000  0.000  0.025
   13  0.024  0.000  0.000  0.025
   14  0.024  0.000  0.000  0.025
   15  0.025  0.000  0.000  0.025
   16  0.025  0.000  0.000  0.025
   17  0.025  0.000  0.000  0.025
   18  0.025  0.000  0.000  0.025
   19  0.025  0.000  0.000  0.026
   20  0.024  0.000  0.000  0.024
   21  0.024  0.000  0.000  0.024
   22  0.025  0.000  0.000  0.025
   23  0.024  0.000  0.000  0.024
   24  0.025  0.000  0.000  0.025
   25  0.025  0.000  0.000  0.026
   26  0.025  0.000  0.000  0.026
   27  0.025  0.000  0.000  0.025
   28  0.007  0.001  0.000  0.008
   29  0.007  0.001  0.000  0.007
   30  0.007  0.001  0.000  0.007
   31  0.007  0.001  0.000  0.007
   32  0.007  0.001  0.000  0.007
   33  0.007  0.001  0.000  0.007
   34  0.007  0.001  0.000  0.007
   35  0.007  0.001  0.000  0.008
   36  0.008  0.001  0.000  0.009
   37  0.000  0.001  0.000  0.001
   38  0.000  0.000  0.000  0.001
tot    0.567  0.018  0.001  0.585
 
band     3 # energy   -7.33775462 # occ.  2.00000000
 
ion      s      p      d    tot
    1  0.018  0.001  0.000  0.019
    2  0.018  0.001  0.000  0.019
    3  0.018  0.001  0.000  0.019
    4  0.018  0.001  0.000  0.019
    5  0.018  0.001  0.000  0.019
    6  0.018  0.001  0.000  0.019
    7  0.018  0.001  0.000  0.019
    8  0.018  0.001  0.000  0.019
    9  0.018  0.001  0.000  0.019
   10  0.010  0.002  0.001  0.013
   11  0.010  0.002  0.001  0.013
   12  0.010  0.002  0.001  0.013
   13  0.010  0.002  0.001  0.013
   14  0.010  0.002  0.001  0.013
   15  0.010  0.002  0.001  0.012
   16  0.010  0.002  0.001  0.013
   17  0.010  0.002  0.001  0.012
   18  0.010  0.002  0.001  0.012
   19  0.010  0.002  0.000  0.013
   20  0.009  0.002  0.001  0.011
   21  0.009  0.002  0.001  0.011
   22  0.010  0.002  0.000  0.013
   23  0.009  0.002  0.001  0.011
   24  0.010  0.002  0.000  0.013
   25  0.010  0.002  0.000  0.013
   26  0.010  0.002  0.000  0.013
   27  0.010  0.002  0.000  0.013
   28  0.019  0.001  0.001  0.020
   29  0.018  0.001  0.000  0.019
   30  0.018  0.001  0.000  0.019
   31  0.018  0.001  0.000  0.019
   32  0.018  0.001  0.000  0.019
   33  0.018  0.001  0.000  0.019
   34  0.018  0.001  0.000  0.019
   35  0.019  0.001  0.001  0.020
   36  0.025  0.000  0.000  0.026
   37  0.000  0.014  0.000  0.014
   38  0.005  0.001  0.000  0.006
tot    0.510  0.067  0.018  0.594
 
band     4 # energy   -6.59249400 # occ.  2.00000000
 
ion      s      p      d    tot
    1  0.001  0.000  0.000  0.001
    2  0.001  0.000  0.000  0.001
    3  0.001  0.000  0.000  0.001
    4  0.001  0.000  0.000  0.001
    5  0.001  0.000  0.000  0.001
    6  0.001  0.000  0.000  0.001
    7  0.001  0.000  0.000  0.001
    8  0.001  0.000  0.000  0.001
    9  0.000  0.000  0.000  0.000
   10  0.000  0.000  0.000  0.000
   11  0.000  0.000  0.000  0.001
   12  0.000  0.000  0.000  0.000
   13  0.000  0.000  0.000  0.001
   14  0.000  0.000  0.000  0.001
   15  0.000  0.000  0.000  0.000
   16  0.000  0.000  0.000  0.000
   17  0.000  0.000  0.000  0.000
   18  0.000  0.000  0.000  0.000
   19  0.002  0.000  0.000  0.003
   20  0.000  0.001  0.002  0.003
   21  0.000  0.001  0.002  0.003
   22  0.002  0.000  0.000  0.002
   23  0.000  0.001  0.002  0.003
   24  0.002  0.000  0.000  0.002
   25  0.002  0.000  0.000  0.003
   26  0.002  0.000  0.000  0.003
   27  0.002  0.000  0.000  0.002
   28  0.002  0.000  0.000  0.002
   29  0.000  0.000  0.000  0.001
   30  0.000  0.000  0.000  0.001
   31  0.000  0.000  0.000  0.001
   32  0.000  0.000  0.000  0.001
   33  0.000  0.000  0.000  0.001
   34  0.000  0.000  0.000  0.001
   35  0.002  0.000  0.000  0.002
   36  0.041  0.023  0.162  0.225
   37  0.023  0.440  0.000  0.464
   38  0.150  0.014  0.000  0.164
tot    0.241  0.486  0.170  0.898
 
band     5 # energy   -5.71817449 # occ.  2.00000000
 
ion      s      p      d    tot
    1  0.017  0.000  0.006  0.023
    2  0.016  0.000  0.006  0.022
    3  0.016  0.000  0.006  0.022
    4  0.016  0.000  0.006  0.022
    5  0.008  0.000  0.007  0.015
    6  0.016  0.000  0.006  0.022
    7  0.016  0.000  0.006  0.022
    8  0.016  0.000  0.006  0.022
    9  0.023  0.000  0.005  0.028
   10  0.003  0.003  0.003  0.009
   11  0.010  0.004  0.001  0.016
   12  0.003  0.003  0.003  0.009
   13  0.010  0.004  0.001  0.016
   14  0.010  0.004  0.001  0.016
   15  0.000  0.003  0.004  0.007
   16  0.003  0.003  0.003  0.009
   17  0.000  0.003  0.004  0.007
   18  0.000  0.003  0.004  0.007
   19  0.002  0.003  0.004  0.009
   20  0.015  0.004  0.002  0.021
   21  0.014  0.004  0.002  0.021
   22  0.001  0.004  0.004  0.008
   23  0.014  0.004  0.002  0.021
   24  0.001  0.004  0.004  0.008
   25  0.002  0.003  0.004  0.009
   26  0.002  0.003  0.004  0.009
   27  0.001  0.004  0.004  0.008
   28  0.021  0.000  0.006  0.026
   29  0.016  0.000  0.007  0.024
   30  0.016  0.000  0.007  0.024
   31  0.016  0.000  0.007  0.024
   32  0.016  0.000  0.007  0.024
   33  0.016  0.000  0.007  0.024
   34  0.016  0.000  0.007  0.024
   35  0.024  0.000  0.006  0.030
   36  0.008  0.001  0.020  0.029
   37  0.000  0.001  0.000  0.001
   38  0.000  0.000  0.000  0.000
tot    0.385  0.069  0.180  0.634
 
band     6 # energy   -5.66577435 # occ.  2.00000000
 
ion      s      p      d    tot
    1  0.000  0.003  0.004  0.006
    2  0.005  0.002  0.002  0.009
    3  0.008  0.002  0.002  0.012
    4  0.005  0.002  0.002  0.008
    5  0.000  0.000  0.002  0.002
    6  0.000  0.001  0.002  0.003
    7  0.008  0.002  0.002  0.012
    8  0.000  0.001  0.002  0.003
    9  0.000  0.002  0.005  0.006
   10  0.038  0.001  0.006  0.045
   11  0.000  0.006  0.005  0.012
   12  0.010  0.008  0.005  0.023
   13  0.000  0.006  0.005  0.011
   14  0.001  0.002  0.004  0.006
   15  0.012  0.001  0.012  0.025
   16  0.009  0.009  0.005  0.023
   17  0.012  0.001  0.012  0.026
   18  0.049  0.005  0.003  0.056
   19  0.016  0.004  0.012  0.032
   20  0.017  0.004  0.003  0.024
   21  0.005  0.003  0.010  0.018
   22  0.004  0.011  0.002  0.017
   23  0.004  0.003  0.010  0.017
   24  0.016  0.000  0.007  0.023
   25  0.066  0.004  0.005  0.074
   26  0.017  0.004  0.012  0.033
   27  0.004  0.011  0.002  0.017
   28  0.000  0.004  0.007  0.011
   29  0.005  0.002  0.003  0.010
   30  0.014  0.003  0.003  0.020
   31  0.005  0.002  0.003  0.009
   32  0.002  0.001  0.003  0.007
   33  0.014  0.003  0.003  0.020
   34  0.002  0.001  0.003  0.007
   35  0.000  0.002  0.004  0.006
   36  0.000  0.000  0.013  0.013
   37  0.000  0.000  0.000  0.000
   38  0.000  0.000  0.000  0.000
tot    0.348  0.115  0.182  0.645
 
band     7 # energy   -5.66563962 # occ.  2.00000000
 
ion      s      p      d    tot
    1  0.000  0.003  0.004  0.006
    2  0.004  0.001  0.002  0.007
    3  0.001  0.001  0.002  0.003
    4  0.004  0.001  0.002  0.007
    5  0.000  0.000  0.002  0.002
    6  0.008  0.002  0.002  0.013
    7  0.001  0.001  0.002  0.004
    8  0.008  0.002  0.002  0.013
    9  0.000  0.002  0.005  0.006
   10  0.000  0.011  0.005  0.016
   11  0.001  0.003  0.004  0.008
   12  0.028  0.004  0.006  0.037
   13  0.001  0.003  0.004  0.008
   14  0.000  0.008  0.006  0.013
   15  0.037  0.004  0.006  0.046
   16  0.028  0.003  0.006  0.038
   17  0.036  0.004  0.006  0.045
   18  0.000  0.000  0.015  0.016
   19  0.050  0.004  0.007  0.061
   20  0.000  0.003  0.012  0.015
   21  0.013  0.004  0.005  0.022
   22  0.012  0.004  0.005  0.021
   23  0.013  0.004  0.005  0.022
   24  0.000  0.014  0.001  0.015
   25  0.000  0.004  0.014  0.018
   26  0.049  0.004  0.007  0.060
   27  0.012  0.003  0.005  0.021
   28  0.000  0.004  0.007  0.010
   29  0.009  0.002  0.003  0.014
   30  0.000  0.001  0.003  0.004
   31  0.009  0.002  0.003  0.015
   32  0.012  0.003  0.003  0.017
   33  0.000  0.001  0.003  0.004
   34  0.012  0.003  0.003  0.017
   35  0.000  0.002  0.004  0.006
   36  0.000  0.000  0.013  0.013
   37  0.000  0.000  0.000  0.000
   38  0.000  0.000  0.000  0.000
tot    0.348  0.115  0.182  0.645
 
band     8 # energy   -5.64809275 # occ.  2.00000000
 
ion      s      p      d    tot
    1  0.019  0.003  0.001  0.022
    2  0.000  0.002  0.004  0.005
    3  0.000  0.002  0.004  0.005
    4  0.000  0.002  0.004  0.005
    5  0.001  0.000  0.000  0.001
    6  0.000  0.002  0.004  0.005
    7  0.000  0.002  0.004  0.005
    8  0.000  0.002  0.004  0.005
    9  0.010  0.002  0.000  0.012
   10  0.028  0.005  0.006  0.039
   11  0.004  0.001  0.011  0.015
   12  0.029  0.005  0.006  0.040
   13  0.004  0.001  0.011  0.015
   14  0.003  0.001  0.011  0.015
   15  0.014  0.008  0.003  0.025
   16  0.029  0.005  0.006  0.040
   17  0.014  0.008  0.003  0.025
   18  0.014  0.008  0.003  0.025
   19  0.021  0.010  0.002  0.033
   20  0.000  0.002  0.010  0.012
   21  0.000  0.002  0.010  0.012
   22  0.028  0.003  0.009  0.039
   23  0.000  0.002  0.010  0.012
   24  0.027  0.003  0.009  0.038
   25  0.022  0.010  0.002  0.033
   26  0.021  0.010  0.002  0.033
   27  0.028  0.003  0.009  0.039
   28  0.020  0.003  0.000  0.023
   29  0.000  0.002  0.004  0.006
   30  0.000  0.002  0.004  0.006
   31  0.000  0.002  0.004  0.006
   32  0.000  0.002  0.004  0.006
   33  0.000  0.002  0.004  0.006
   34  0.000  0.002  0.004  0.006
   35  0.015  0.003  0.001  0.019
   36  0.000  0.000  0.000  0.000
   37  0.000  0.000  0.000  0.000
   38  0.000  0.000  0.000  0.000
tot    0.348  0.117  0.174  0.640
 
band     9 # energy   -5.64181952 # occ.  2.00000000
 
ion      s      p      d    tot
    1  0.000  0.000  0.003  0.004
    2  0.005  0.002  0.002  0.009
    3  0.009  0.002  0.002  0.013
    4  0.005  0.002  0.002  0.009
    5  0.000  0.003  0.005  0.008
    6  0.000  0.001  0.002  0.003
    7  0.009  0.002  0.002  0.013
    8  0.001  0.001  0.002  0.003
    9  0.000  0.001  0.003  0.004
   10  0.000  0.002  0.013  0.015
   11  0.046  0.004  0.006  0.056
   12  0.016  0.003  0.005  0.025
   13  0.044  0.004  0.007  0.055
   14  0.000  0.005  0.012  0.017
   15  0.007  0.003  0.005  0.016
   16  0.017  0.004  0.005  0.025
   17  0.007  0.004  0.005  0.016
   18  0.000  0.013  0.002  0.015
   19  0.000  0.003  0.005  0.008
   20  0.000  0.011  0.006  0.017
   21  0.036  0.004  0.006  0.046
   22  0.036  0.004  0.006  0.046
   23  0.037  0.004  0.006  0.047
   24  0.000  0.000  0.018  0.018
   25  0.000  0.010  0.005  0.015
   26  0.000  0.004  0.005  0.008
   27  0.038  0.004  0.006  0.047
   28  0.000  0.000  0.002  0.003
   29  0.004  0.002  0.002  0.008
   30  0.010  0.003  0.003  0.016
   31  0.004  0.001  0.002  0.007
   32  0.001  0.001  0.002  0.005
   33  0.010  0.003  0.003  0.016
   34  0.001  0.001  0.003  0.005
   35  0.000  0.002  0.006  0.007
   36  0.000  0.005  0.015  0.019
   37  0.000  0.000  0.000  0.000
   38  0.000  0.000  0.000  0.000
tot    0.343  0.117  0.187  0.646
 
band    10 # energy   -5.64169286 # occ.  2.00000000
 
ion      s      p      d    tot
    1  0.000  0.000  0.003  0.004
    2  0.004  0.001  0.002  0.008
    3  0.001  0.001  0.002  0.004
    4  0.005  0.002  0.002  0.008
    5  0.000  0.003  0.005  0.008
    6  0.009  0.002  0.002  0.014
    7  0.001  0.001  0.002  0.004
    8  0.009  0.002  0.002  0.014
    9  0.000  0.001  0.003  0.004
   10  0.022  0.004  0.002  0.029
   11  0.014  0.005  0.010  0.029
   12  0.006  0.002  0.010  0.018
   13  0.016  0.005  0.010  0.031
   14  0.060  0.003  0.005  0.068
   15  0.002  0.010  0.003  0.015
   16  0.005  0.002  0.011  0.018
   17  0.003  0.010  0.003  0.015
   18  0.009  0.000  0.006  0.016
   19  0.000  0.008  0.005  0.013
   20  0.048  0.001  0.007  0.056
   21  0.013  0.008  0.006  0.027
   22  0.013  0.001  0.014  0.028
   23  0.011  0.009  0.006  0.026
   24  0.050  0.005  0.002  0.057
   25  0.000  0.001  0.005  0.006
   26  0.000  0.008  0.005  0.013
   27  0.011  0.001  0.014  0.027
   28  0.000  0.000  0.002  0.003
   29  0.006  0.002  0.003  0.011
   30  0.000  0.001  0.002  0.003
   31  0.006  0.002  0.003  0.011
   32  0.009  0.002  0.003  0.014
   33  0.000  0.001  0.002  0.003
   34  0.009  0.002  0.003  0.014
   35  0.000  0.002  0.006  0.007
   36  0.000  0.005  0.015  0.019
   37  0.000  0.000  0.000  0.000
   38  0.000  0.000  0.000  0.000
tot    0.343  0.117  0.187  0.646
 
band    11 # energy   -5.52733397 # occ.  2.00000000
 
ion      s      p      d    tot
    1  0.000  0.000  0.001  0.002
    2  0.001  0.002  0.006  0.009
    3  0.001  0.002  0.006  0.009
    4  0.001  0.002  0.006  0.009
    5  0.036  0.004  0.000  0.040
    6  0.001  0.002  0.006  0.009
    7  0.001  0.002  0.006  0.009
    8  0.001  0.002  0.006  0.009
    9  0.005  0.002  0.003  0.010
   10  0.004  0.005  0.008  0.017
   11  0.025  0.009  0.004  0.038
   12  0.004  0.005  0.008  0.017
   13  0.025  0.009  0.004  0.038
   14  0.025  0.009  0.004  0.038
   15  0.024  0.001  0.012  0.038
   16  0.004  0.005  0.008  0.017
   17  0.024  0.001  0.012  0.038
   18  0.024  0.001  0.012  0.038
   19  0.009  0.001  0.009  0.019
   20  0.019  0.004  0.006  0.030
   21  0.019  0.004  0.006  0.030
   22  0.005  0.006  0.005  0.017
   23  0.019  0.004  0.006  0.030
   24  0.005  0.006  0.005  0.017
   25  0.009  0.001  0.009  0.019
   26  0.009  0.001  0.009  0.019
   27  0.005  0.006  0.005  0.017
   28  0.000  0.000  0.003  0.003
   29  0.002  0.001  0.003  0.006
   30  0.002  0.001  0.003  0.006
   31  0.002  0.001  0.003  0.006
   32  0.002  0.001  0.003  0.006
   33  0.002  0.001  0.003  0.006
   34  0.002  0.001  0.003  0.006
   35  0.000  0.001  0.001  0.002
   36  0.011  0.007  0.007  0.025
   37  0.001  0.010  0.000  0.011
   38  0.003  0.000  0.000  0.004
tot    0.335  0.122  0.202  0.659
 
band    12 # energy   -4.92672610 # occ.  2.00000000
 
ion      s      p      d    tot
    1  0.000  0.004  0.010  0.014
    2  0.003  0.002  0.005  0.010
    3  0.020  0.004  0.005  0.028
    4  0.003  0.002  0.005  0.010
    5  0.000  0.000  0.010  0.010
    6  0.007  0.002  0.005  0.014
    7  0.020  0.004  0.005  0.028
    8  0.007  0.002  0.005  0.014
    9  0.000  0.005  0.008  0.013
   10  0.010  0.001  0.006  0.017
   11  0.001  0.002  0.013  0.016
   12  0.003  0.004  0.014  0.021
   13  0.001  0.002  0.013  0.016
   14  0.004  0.001  0.007  0.013
   15  0.007  0.001  0.017  0.025
   16  0.002  0.004  0.015  0.021
   17  0.007  0.001  0.017  0.025
   18  0.027  0.005  0.005  0.036
   19  0.003  0.002  0.013  0.017
   20  0.000  0.001  0.010  0.011
   21  0.000  0.002  0.013  0.015
   22  0.002  0.002  0.023  0.028
   23  0.000  0.002  0.013  0.015
   24  0.009  0.003  0.003  0.014
   25  0.012  0.006  0.009  0.027
   26  0.003  0.002  0.013  0.017
   27  0.002  0.002  0.023  0.028
   28  0.000  0.004  0.007  0.011
   29  0.005  0.002  0.007  0.015
   30  0.026  0.003  0.007  0.036
   31  0.005  0.002  0.007  0.015
   32  0.008  0.002  0.007  0.017
   33  0.026  0.003  0.007  0.036
   34  0.008  0.002  0.007  0.017
   35  0.000  0.005  0.010  0.015
   36  0.000  0.000  0.048  0.048
   37  0.000  0.000  0.000  0.000
   38  0.000  0.000  0.000  0.000
tot    0.229  0.091  0.392  0.712
 
band    13 # energy   -4.92667109 # occ.  2.00000000
 
ion      s      p      d    tot
    1  0.000  0.004  0.010  0.014
    2  0.017  0.003  0.005  0.025
    3  0.000  0.001  0.005  0.006
    4  0.017  0.003  0.005  0.025
    5  0.000  0.000  0.010  0.010
    6  0.013  0.003  0.005  0.021
    7  0.000  0.001  0.005  0.006
    8  0.013  0.003  0.005  0.021
    9  0.000  0.005  0.008  0.013
   10  0.000  0.004  0.017  0.022
   11  0.003  0.002  0.009  0.014
   12  0.008  0.002  0.009  0.018
   13  0.003  0.002  0.009  0.014
   14  0.000  0.002  0.014  0.017
   15  0.020  0.004  0.009  0.033
   16  0.008  0.002  0.009  0.018
   17  0.020  0.004  0.009  0.033
   18  0.000  0.000  0.022  0.022
   19  0.009  0.005  0.010  0.023
   20  0.000  0.002  0.014  0.017
   21  0.000  0.001  0.011  0.012
   22  0.007  0.003  0.010  0.019
   23  0.000  0.001  0.011  0.012
   24  0.000  0.002  0.030  0.032
   25  0.000  0.000  0.014  0.014
   26  0.009  0.005  0.010  0.023
   27  0.007  0.003  0.010  0.019
   28  0.000  0.004  0.007  0.011
   29  0.020  0.003  0.007  0.031
   30  0.000  0.002  0.007  0.009
   31  0.021  0.003  0.007  0.031
   32  0.018  0.002  0.008  0.028
   33  0.000  0.002  0.007  0.009
   34  0.018  0.002  0.008  0.028
   35  0.000  0.005  0.010  0.015
   36  0.000  0.000  0.048  0.048
   37  0.000  0.000  0.000  0.000
   38  0.000  0.000  0.000  0.000
tot    0.229  0.091  0.392  0.712
 
band    14 # energy   -4.88456777 # occ.  2.00000000
 
ion      s      p      d    tot
    1  0.011  0.000  0.008  0.019
    2  0.005  0.001  0.009  0.015
    3  0.005  0.001  0.009  0.015
    4  0.005  0.001  0.009  0.015
    5  0.003  0.001  0.009  0.013
    6  0.005  0.001  0.009  0.015
    7  0.005  0.001  0.009  0.015
    8  0.005  0.001  0.009  0.015
    9  0.003  0.001  0.009  0.013
   10  0.004  0.000  0.024  0.029
   11  0.009  0.000  0.023  0.032
   12  0.004  0.000  0.024  0.029
   13  0.009  0.000  0.023  0.032
   14  0.009  0.000  0.023  0.032
   15  0.007  0.000  0.023  0.030
   16  0.004  0.000  0.024  0.029
   17  0.007  0.000  0.023  0.030
   18  0.007  0.000  0.023  0.030
   19  0.004  0.000  0.023  0.027
   20  0.007  0.000  0.021  0.028
   21  0.007  0.000  0.021  0.028
   22  0.007  0.000  0.022  0.030
   23  0.007  0.000  0.021  0.028
   24  0.007  0.000  0.022  0.030
   25  0.004  0.000  0.023  0.027
   26  0.004  0.000  0.023  0.027
   27  0.007  0.000  0.022  0.030
   28  0.008  0.000  0.007  0.016
   29  0.004  0.001  0.008  0.013
   30  0.004  0.001  0.008  0.013
   31  0.004  0.001  0.008  0.013
   32  0.004  0.001  0.008  0.013
   33  0.004  0.001  0.008  0.013
   34  0.004  0.001  0.008  0.013
   35  0.002  0.001  0.008  0.011
   36  0.004  0.002  0.015  0.020
   37  0.000  0.001  0.000  0.001
   38  0.001  0.000  0.000  0.001
tot    0.200  0.013  0.570  0.783
 
band    15 # energy   -4.87401311 # occ.  2.00000000
 
ion      s      p      d    tot
    1  0.027  0.004  0.002  0.032
    2  0.000  0.003  0.010  0.013
    3  0.000  0.003  0.010  0.013
    4  0.000  0.003  0.010  0.013
    5  0.000  0.000  0.000  0.000
    6  0.000  0.003  0.010  0.013
    7  0.000  0.003  0.010  0.013
    8  0.000  0.003  0.010  0.013
    9  0.037  0.003  0.000  0.040
   10  0.013  0.003  0.010  0.026
   11  0.000  0.000  0.014  0.015
   12  0.013  0.003  0.010  0.027
   13  0.000  0.000  0.014  0.015
   14  0.000  0.000  0.014  0.015
   15  0.005  0.004  0.017  0.026
   16  0.013  0.003  0.010  0.027
   17  0.005  0.004  0.017  0.026
   18  0.005  0.004  0.017  0.026
   19  0.006  0.003  0.019  0.029
   20  0.001  0.000  0.013  0.015
   21  0.001  0.000  0.013  0.015
   22  0.007  0.004  0.010  0.021
   23  0.001  0.000  0.013  0.015
   24  0.007  0.004  0.010  0.021
   25  0.006  0.003  0.019  0.029
   26  0.006  0.003  0.019  0.029
   27  0.007  0.004  0.010  0.021
   28  0.031  0.004  0.001  0.035
   29  0.000  0.003  0.010  0.014
   30  0.000  0.003  0.010  0.014
   31  0.000  0.003  0.010  0.014
   32  0.000  0.003  0.010  0.014
   33  0.000  0.003  0.010  0.014
   34  0.000  0.003  0.010  0.014
   35  0.036  0.003  0.000  0.039
   36  0.000  0.000  0.001  0.001
   37  0.000  0.000  0.000  0.000
   38  0.000  0.000  0.000  0.000
tot    0.230  0.095  0.380  0.705
 
band    16 # energy   -4.86213025 # occ.  2.00000000
 
ion      s      p      d    tot
    1  0.000  0.002  0.010  0.012
    2  0.003  0.002  0.005  0.011
    3  0.021  0.004  0.006  0.031
    4  0.003  0.002  0.005  0.010
    5  0.000  0.006  0.009  0.015
    6  0.008  0.002  0.005  0.016
    7  0.021  0.004  0.006  0.031
    8  0.009  0.002  0.005  0.017
    9  0.000  0.001  0.013  0.013
   10  0.000  0.000  0.018  0.018
   11  0.015  0.003  0.010  0.029
   12  0.011  0.003  0.011  0.026
   13  0.015  0.003  0.011  0.029
   14  0.000  0.002  0.027  0.029
   15  0.000  0.001  0.011  0.012
   16  0.012  0.004  0.011  0.026
   17  0.000  0.001  0.011  0.012
   18  0.000  0.004  0.018  0.022
   19  0.002  0.001  0.010  0.013
   20  0.000  0.001  0.027  0.028
   21  0.014  0.004  0.010  0.029
   22  0.006  0.003  0.011  0.020
   23  0.015  0.004  0.010  0.029
   24  0.000  0.001  0.013  0.014
   25  0.000  0.003  0.022  0.026
   26  0.002  0.001  0.011  0.014
   27  0.006  0.003  0.011  0.020
   28  0.000  0.002  0.012  0.014
   29  0.004  0.002  0.005  0.011
   30  0.018  0.004  0.006  0.028
   31  0.003  0.002  0.005  0.010
   32  0.006  0.002  0.005  0.013
   33  0.018  0.004  0.006  0.029
   34  0.006  0.002  0.005  0.014
   35  0.000  0.001  0.010  0.011
   36  0.000  0.008  0.026  0.034
   37  0.000  0.000  0.000  0.000
   38  0.000  0.000  0.000  0.000
tot    0.220  0.095  0.399  0.714
 
band    17 # energy   -4.86209709 # occ.  2.00000000
 
ion      s      p      d    tot
    1  0.000  0.002  0.010  0.012
    2  0.019  0.004  0.005  0.028
    3  0.001  0.002  0.005  0.008
    4  0.019  0.004  0.005  0.028
    5  0.000  0.006  0.009  0.015
    6  0.014  0.003  0.006  0.022
    7  0.000  0.002  0.005  0.007
    8  0.013  0.003  0.006  0.021
    9  0.000  0.001  0.013  0.013
   10  0.016  0.004  0.009  0.029
   11  0.005  0.002  0.022  0.029
   12  0.004  0.001  0.016  0.021
   13  0.005  0.002  0.021  0.029
   14  0.020  0.004  0.005  0.029
   15  0.000  0.003  0.016  0.019
   16  0.004  0.001  0.016  0.021
   17  0.000  0.003  0.016  0.019
   18  0.000  0.000  0.008  0.009
   19  0.001  0.003  0.019  0.022
   20  0.020  0.005  0.004  0.029
   21  0.005  0.002  0.021  0.028
   22  0.002  0.002  0.013  0.016
   23  0.005  0.002  0.022  0.028
   24  0.008  0.003  0.010  0.022
   25  0.002  0.000  0.007  0.009
   26  0.001  0.002  0.018  0.021
   27  0.002  0.001  0.013  0.016
   28  0.000  0.002  0.012  0.014
   29  0.015  0.003  0.006  0.024
   30  0.000  0.001  0.005  0.006
   31  0.015  0.003  0.006  0.025
   32  0.013  0.003  0.006  0.022
   33  0.000  0.001  0.005  0.006
   34  0.012  0.003  0.006  0.021
   35  0.000  0.001  0.010  0.011
   36  0.000  0.008  0.026  0.034
   37  0.000  0.000  0.000  0.000
   38  0.000  0.000  0.000  0.000
tot    0.220  0.095  0.399  0.714
 
band    18 # energy   -4.69389282 # occ.  2.00000000
 
ion      s      p      d    tot
    1  0.017  0.002  0.000  0.019
    2  0.000  0.003  0.011  0.014
    3  0.000  0.003  0.011  0.014
    4  0.000  0.003  0.011  0.014
    5  0.042  0.004  0.000  0.046
    6  0.000  0.003  0.011  0.014
    7  0.000  0.003  0.011  0.014
    8  0.000  0.003  0.011  0.014
    9  0.005  0.001  0.000  0.006
   10  0.001  0.001  0.028  0.030
   11  0.005  0.004  0.021  0.030
   12  0.001  0.001  0.028  0.030
   13  0.005  0.004  0.021  0.030
   14  0.005  0.004  0.021  0.030
   15  0.002  0.001  0.008  0.012
   16  0.001  0.001  0.028  0.030
   17  0.002  0.001  0.008  0.012
   18  0.002  0.001  0.008  0.012
   19  0.008  0.001  0.022  0.031
   20  0.014  0.003  0.004  0.021
   21  0.014  0.003  0.004  0.021
   22  0.001  0.002  0.020  0.023
   23  0.014  0.003  0.004  0.021
   24  0.001  0.002  0.020  0.023
   25  0.008  0.001  0.022  0.031
   26  0.008  0.001  0.022  0.031
   27  0.001  0.002  0.020  0.023
   28  0.004  0.001  0.004  0.009
   29  0.001  0.002  0.010  0.013
   30  0.001  0.002  0.010  0.013
   31  0.001  0.002  0.010  0.013
   32  0.001  0.002  0.010  0.013
   33  0.001  0.002  0.010  0.013
   34  0.001  0.002  0.010  0.013
   35  0.006  0.001  0.001  0.008
   36  0.029  0.011  0.006  0.046
   37  0.001  0.005  0.000  0.006
   38  0.002  0.000  0.000  0.002
tot    0.204  0.094  0.446  0.744
 
band    19 # energy   -4.28194942 # occ.  2.00000000
 
ion      s      p      d    tot
    1  0.000  0.001  0.026  0.027
    2  0.014  0.001  0.007  0.023
    3  0.006  0.001  0.007  0.014
    4  0.014  0.001  0.007  0.023
    5  0.000  0.001  0.013  0.014
    6  0.002  0.001  0.007  0.010
    7  0.006  0.001  0.007  0.014
    8  0.002  0.001  0.007  0.010
    9  0.000  0.003  0.003  0.006
   10  0.000  0.000  0.058  0.058
   11  0.000  0.003  0.016  0.019
   12  0.000  0.000  0.018  0.018
   13  0.000  0.003  0.015  0.019
   14  0.000  0.000  0.006  0.006
   15  0.000  0.005  0.015  0.020
   16  0.000  0.000  0.017  0.018
   17  0.000  0.005  0.015  0.020
   18  0.000  0.000  0.026  0.026
   19  0.004  0.003  0.013  0.021
   20  0.000  0.000  0.050  0.050
   21  0.000  0.000  0.020  0.020
   22  0.003  0.002  0.015  0.020
   23  0.000  0.000  0.019  0.019
   24  0.000  0.000  0.017  0.017
   25  0.000  0.000  0.019  0.019
   26  0.004  0.003  0.014  0.021
   27  0.003  0.002  0.015  0.020
   28  0.000  0.001  0.006  0.007
   29  0.009  0.000  0.018  0.027
   30  0.000  0.001  0.014  0.015
   31  0.009  0.000  0.018  0.028
   32  0.010  0.000  0.016  0.027
   33  0.000  0.001  0.014  0.015
   34  0.010  0.000  0.016  0.026
   35  0.000  0.001  0.007  0.008
   36  0.000  0.000  0.112  0.112
   37  0.000  0.000  0.000  0.000
   38  0.000  0.000  0.000  0.000
tot    0.097  0.043  0.676  0.815
 
band    20 # energy   -4.28190600 # occ.  2.00000000
 
ion      s      p      d    tot
    1  0.000  0.001  0.026  0.027
    2  0.000  0.001  0.007  0.008
    3  0.009  0.001  0.007  0.017
    4  0.000  0.001  0.007  0.008
    5  0.000  0.001  0.013  0.014
    6  0.013  0.001  0.007  0.021
    7  0.009  0.001  0.007  0.018
    8  0.013  0.001  0.007  0.021
    9  0.000  0.003  0.003  0.006
   10  0.000  0.000  0.004  0.004
   11  0.000  0.001  0.009  0.010
   12  0.000  0.000  0.044  0.045
   13  0.000  0.001  0.009  0.010
   14  0.000  0.004  0.019  0.023
   15  0.000  0.002  0.023  0.024
   16  0.000  0.000  0.045  0.045
   17  0.000  0.002  0.022  0.024
   18  0.000  0.007  0.012  0.018
   19  0.001  0.001  0.017  0.019
   20  0.000  0.000  0.009  0.010
   21  0.000  0.000  0.039  0.039
   22  0.001  0.001  0.016  0.018
   23  0.000  0.000  0.040  0.040
   24  0.004  0.002  0.015  0.021
   25  0.006  0.004  0.012  0.021
   26  0.001  0.001  0.017  0.019
   27  0.001  0.001  0.016  0.018
   28  0.000  0.001  0.006  0.007
   29  0.004  0.001  0.014  0.018
   30  0.013  0.000  0.018  0.031
   31  0.004  0.001  0.014  0.018
   32  0.003  0.001  0.016  0.019
   33  0.013  0.000  0.018  0.031
   34  0.003  0.001  0.016  0.020
   35  0.000  0.001  0.007  0.008
   36  0.000  0.000  0.112  0.112
   37  0.000  0.000  0.000  0.000
   38  0.000  0.000  0.000  0.000
tot    0.097  0.043  0.676  0.815
 
band    21 # energy   -4.17348710 # occ.  2.00000000
 
ion      s      p      d    tot
    1  0.002  0.000  0.001  0.003
    2  0.000  0.002  0.018  0.020
    3  0.000  0.002  0.018  0.020
    4  0.000  0.002  0.018  0.020
    5  0.017  0.001  0.000  0.017
    6  0.000  0.002  0.018  0.020
    7  0.000  0.002  0.018  0.020
    8  0.000  0.002  0.018  0.020
    9  0.030  0.001  0.002  0.033
   10  0.000  0.001  0.008  0.010
   11  0.000  0.001  0.022  0.022
   12  0.000  0.001  0.008  0.010
   13  0.000  0.001  0.022  0.022
   14  0.000  0.001  0.022  0.022
   15  0.000  0.004  0.042  0.046
   16  0.000  0.001  0.008  0.010