 vasp.6.2.0 18Jan21 (build Jun 12 2021 23:27:24) complex                        
  
 executed on             LinuxIFC date 2022.05.26  19:51:17
 running on   28 total cores
 distrk:  each k-point on   28 cores,    1 groups
 distr:  one band on NCORE=   1 cores,   28 groups


--------------------------------------------------------------------------------------------------------


 INCAR:
   ISMEAR = -5
   SIGMA = 0.1
   ISPIN = 1
   EDIFF = 1.d-5
   EDIFFG = -0.01
   NSW = 0
   NELM = 150
   ENCUT = 500
   ISIF = 2
   IBRION = 2
   LREAL = Auto
   ALGO = Fast
   ICHARG = 11
   LORBIT = 10
   LCHARG = .F.
   LWAVE = .F.

 POTCAR:    PAW_PBE Ag 02Apr2005                  
 POTCAR:    PAW_PBE Ta 17Jan2003                  
 POTCAR:    PAW_PBE H 15Jun2001                   
 -----------------------------------------------------------------------------
|                                                                             |
|           W    W    AA    RRRRR   N    N  II  N    N   GGGG   !!!           |
|           W    W   A  A   R    R  NN   N  II  NN   N  G    G  !!!           |
|           W    W  A    A  R    R  N N  N  II  N N  N  G       !!!           |
|           W WW W  AAAAAA  RRRRR   N  N N  II  N  N N  G  GGG   !            |
|           WW  WW  A    A  R   R   N   NN  II  N   NN  G    G                |
|           W    W  A    A  R    R  N    N  II  N    N   GGGG   !!!           |
|                                                                             |
|     For optimal performance we recommend to set                             |
|       NCORE = 2 up to number-of-cores-per-socket                            |
|     NCORE specifies how many cores store one orbital (NPAR=cpu/NCORE).      |
|     This setting can greatly improve the performance of VASP for DFT.       |
|     The default, NCORE=1 might be grossly inefficient on modern             |
|     multi-core architectures or massively parallel machines. Do your        |
|     own testing! More info at https://www.vasp.at/wiki/index.php/NCORE      |
|     Unfortunately you need to use the default for GW and RPA                |
|     calculations (for HF NCORE is supported but not extensively tested      |
|     yet).                                                                   |
|                                                                             |
 -----------------------------------------------------------------------------

 POTCAR:    PAW_PBE Ag 02Apr2005                  
   VRHFIN =Ag : s1 d10                                                                              
   LEXCH  = PE                                                                                      
   EATOM  =  1037.2675 eV,   76.2370 Ry                                                             
                                                                                                    
   TITEL  = PAW_PBE Ag 02Apr2005                                                                    
   LULTRA =        F    use ultrasoft PP ?                                                          
   IUNSCR =        1    unscreen: 0-lin 1-nonlin 2-no                                               
   RPACOR =    2.000    partial core radius                                                         
   POMASS =  107.868; ZVAL   =   11.000    mass and valenz                                          
   RCORE  =    2.500    outmost cutoff radius                                                       
   RWIGS  =    2.840; RWIGS  =    1.503    wigner-seitz radius (au A)                               
   ENMAX  =  249.844; ENMIN  =  187.383 eV                                                          
   ICORE  =        3    local potential                                                             
   LCOR   =        T    correct aug charges                                                         
   LPAW   =        T    paw PP                                                                      
   EAUG   =  412.496                                                                                
   DEXC   =    0.000                                                                                
   RMAX   =    2.560    core radius for proj-oper                                                   
   RAUG   =    1.300    factor for augmentation sphere                                              
   RDEP   =    2.576    radius for radial grids                                                     
   RDEPT  =    2.072    core radius for aug-charge                                                  
                                                                                                    
   Atomic configuration                                                                             
   12 entries                                                                                       
     n  l   j            E        occ.                                                              
     1  0  0.50    -25324.9161   2.0000                                                             
     2  0  0.50     -3728.5341   2.0000                                                             
     2  1  1.50     -3344.0404   6.0000                                                             
     3  0  0.50      -683.5581   2.0000                                                             
     3  1  1.50      -557.3225   6.0000                                                             
     3  2  2.50      -358.3853  10.0000                                                             
     4  0  0.50       -95.0341   2.0000                                                             
     4  1  1.50       -58.5511   6.0000                                                             
     4  2  2.50        -7.4440  10.0000                                                             
     5  0  0.50        -4.4045   1.0000                                                             
     5  1  0.50        -1.3606   0.0000                                                             
     4  3  2.50        -1.3606   0.0000                                                             
   Description                                                                                      
     l       E           TYP  RCUT    TYP  RCUT                                                     
     2     -7.4439781     23  2.400                                                                 
     2     -8.8045607     23  2.400                                                                 
     0     -4.4044681     23  2.400                                                                 
     0      1.9520038     23  2.400                                                                 
     1     -1.3605826     23  2.500                                                                 
     1     27.2116520     23  2.500                                                                 
     3     -4.0817478     23  2.400                                                                 
  local pseudopotential read in
  partial core-charges read in
  partial kinetic energy density read in
  atomic valenz-charges read in
  non local Contribution for L=           2  read in
    real space projection operators read in
  non local Contribution for L=           2  read in
    real space projection operators read in
  non local Contribution for L=           0  read in
    real space projection operators read in
  non local Contribution for L=           0  read in
    real space projection operators read in
  non local Contribution for L=           1  read in
    real space projection operators read in
  non local Contribution for L=           1  read in
    real space projection operators read in
    PAW grid and wavefunctions read in
 
   number of l-projection  operators is LMAX  =           6
   number of lm-projection operators is LMMAX =          18
 
 POTCAR:    PAW_PBE Ta 17Jan2003                  
   VRHFIN =Ta:  6s5d                                                                                
   LEXCH  = PE                                                                                      
   EATOM  =   130.6506 eV,    9.6025 Ry                                                             
                                                                                                    
   TITEL  = PAW_PBE Ta 17Jan2003                                                                    
   LULTRA =        F    use ultrasoft PP ?                                                          
   IUNSCR =        1    unscreen: 0-lin 1-nonlin 2-no                                               
   RPACOR =    2.330    partial core radius                                                         
   POMASS =  180.948; ZVAL   =    5.000    mass and valenz                                          
   RCORE  =    2.900    outmost cutoff radius                                                       
   RWIGS  =    2.840; RWIGS  =    1.503    wigner-seitz radius (au A)                               
   ENMAX  =  223.667; ENMIN  =  167.750 eV                                                          
   RCLOC  =    2.205    cutoff for local pot                                                        
   LCOR   =        T    correct aug charges                                                         
   LPAW   =        T    paw PP                                                                      
   EAUG   =  332.075                                                                                
   DEXC   =    0.000                                                                                
   RMAX   =    2.970    core radius for proj-oper                                                   
   RAUG   =    1.300    factor for augmentation sphere                                              
   RDEP   =    3.060    radius for radial grids                                                     
   RDEPT  =    2.354    core radius for aug-charge                                                  
                                                                                                    
   Atomic configuration                                                                             
   16 entries                                                                                       
     n  l   j            E        occ.                                                              
     1  0  0.50    -67341.2807   2.0000                                                             
     2  0  0.50    -11566.9376   2.0000                                                             
     2  1  1.50    -10134.1182   6.0000                                                             
     3  0  0.50     -2648.5620   2.0000                                                             
     3  1  1.50     -2222.6012   6.0000                                                             
     3  2  2.50     -1726.3120  10.0000                                                             
     4  0  0.50      -538.6961   2.0000                                                             
     4  1  1.50      -399.0129   6.0000                                                             
     4  2  2.50      -220.3959  10.0000                                                             
     4  3  3.50       -23.0374  14.0000                                                             
     5  0  0.50       -71.2901   2.0000                                                             
     5  1  1.50       -37.8225   6.0000                                                             
     5  2  2.50        -2.6455   4.0000                                                             
     6  0  0.50        -4.9623   1.0000                                                             
     6  1  1.50        -1.3606   0.0000                                                             
     5  3  2.50        -1.3606   0.0000                                                             
   Description                                                                                      
     l       E           TYP  RCUT    TYP  RCUT                                                     
     2     -2.6455043     23  2.500                                                                 
     2     -0.6258895     23  2.500                                                                 
     0     -4.9622780     23  2.500                                                                 
     0      4.7531321     23  2.500                                                                 
     1     -1.3605826     23  2.900                                                                 
     1     27.2116520     23  2.900                                                                 
  local pseudopotential read in
  partial core-charges read in
  partial kinetic energy density read in
  atomic valenz-charges read in
  non local Contribution for L=           2  read in
    real space projection operators read in
  non local Contribution for L=           2  read in
    real space projection operators read in
  non local Contribution for L=           0  read in
    real space projection operators read in
  non local Contribution for L=           0  read in
    real space projection operators read in
  non local Contribution for L=           1  read in
    real space projection operators read in
  non local Contribution for L=           1  read in
    real space projection operators read in
    PAW grid and wavefunctions read in
 
   number of l-projection  operators is LMAX  =           6
   number of lm-projection operators is LMMAX =          18
 
 POTCAR:    PAW_PBE H 15Jun2001                   
   VRHFIN =H: ultrasoft test                                                                        
   LEXCH  = PE                                                                                      
   EATOM  =    12.4884 eV,    0.9179 Ry                                                             
                                                                                                    
   TITEL  = PAW_PBE H 15Jun2001                                                                     
   LULTRA =        F    use ultrasoft PP ?                                                          
   IUNSCR =        0    unscreen: 0-lin 1-nonlin 2-no                                               
   RPACOR =    0.000    partial core radius                                                         
   POMASS =    1.000; ZVAL   =    1.000    mass and valenz                                          
   RCORE  =    1.100    outmost cutoff radius                                                       
   RWIGS  =    0.700; RWIGS  =    0.370    wigner-seitz radius (au A)                               
   ENMAX  =  250.000; ENMIN  =  200.000 eV                                                          
   RCLOC  =    0.701    cutoff for local pot                                                        
   LCOR   =        T    correct aug charges                                                         
   LPAW   =        T    paw PP                                                                      
   EAUG   =  400.000                                                                                
   RMAX   =    1.123    core radius for proj-oper                                                   
   RAUG   =    1.200    factor for augmentation sphere                                              
   RDEP   =    1.112    radius for radial grids                                                     
   RDEPT  =    0.926    core radius for aug-charge                                                  
                                                                                                    
   Atomic configuration                                                                             
    2 entries                                                                                       
     n  l   j            E        occ.                                                              
     1  0  0.50        -6.4927   1.0000                                                             
     2  1  0.50        -3.4015   0.0000                                                             
   Description                                                                                      
     l       E           TYP  RCUT    TYP  RCUT                                                     
     0     -6.4927494     23  1.100                                                                 
     0      6.8029130     23  1.100                                                                 
     1     -4.0817478     23  1.100                                                                 
  local pseudopotential read in
  atomic valenz-charges read in
  non local Contribution for L=           0  read in
    real space projection operators read in
  non local Contribution for L=           0  read in
    real space projection operators read in
  non local Contribution for L=           1  read in
    real space projection operators read in
    PAW grid and wavefunctions read in
 
   number of l-projection  operators is LMAX  =           3
   number of lm-projection operators is LMMAX =           5
 
 Optimization of the real space projectors (new method)

 maximal supplied QI-value         = 15.12
 optimisation between [QCUT,QGAM] = [ 11.34, 22.83] = [ 36.00,145.93] Ry 
 Optimized for a Real-space Cutoff    1.43 Angstroem

   l    n(q)    QCUT    max X(q) W(low)/X(q) W(high)/X(q)  e(spline) 
   2      9    11.338    53.897    0.16E-03    0.20E-03    0.28E-06
   2      9    11.338    52.416    0.16E-03    0.20E-03    0.29E-06
   0     10    11.338   122.045    0.31E-04    0.76E-04    0.15E-06
   0     10    11.338    73.629    0.30E-04    0.72E-04    0.15E-06
   1      9    11.338    15.255    0.20E-03    0.19E-04    0.17E-06
   1      9    11.338     9.562    0.16E-03    0.15E-04    0.14E-06
 Optimization of the real space projectors (new method)

 maximal supplied QI-value         = 12.85
 optimisation between [QCUT,QGAM] = [ 11.44, 22.87] = [ 36.63,146.51] Ry 
 Optimized for a Real-space Cutoff    1.61 Angstroem

   l    n(q)    QCUT    max X(q) W(low)/X(q) W(high)/X(q)  e(spline) 
   2     10    11.437    62.315    0.14E-03    0.26E-03    0.80E-06
   2     10    11.437    52.185    0.14E-03    0.26E-03    0.80E-06
   0     11    11.437   103.837    0.25E-04    0.17E-04    0.84E-07
   0     11    11.437    59.728    0.20E-04    0.15E-04    0.73E-07
   1     11    11.437    13.958    0.47E-03    0.12E-03    0.89E-06
   1     11    11.437     8.441    0.33E-03    0.88E-04    0.61E-06
 Optimization of the real space projectors (new method)

 maximal supplied QI-value         = 34.20
 optimisation between [QCUT,QGAM] = [ 11.29, 22.57] = [ 35.68,142.71] Ry 
 Optimized for a Real-space Cutoff    1.16 Angstroem

   l    n(q)    QCUT    max X(q) W(low)/X(q) W(high)/X(q)  e(spline) 
   0      8    11.287    19.460    0.40E-03    0.73E-03    0.16E-06
   0      8    11.287    12.209    0.38E-03    0.70E-03    0.15E-06
   1      7    11.287     4.655    0.22E-03    0.25E-04    0.22E-06
  PAW_PBE Ag 02Apr2005                  :
 energy of atom  1       EATOM=-1037.2675
 kinetic energy error for atom=    0.0052 (will be added to EATOM!!)
  PAW_PBE Ta 17Jan2003                  :
 energy of atom  2       EATOM= -130.6506
 kinetic energy error for atom=    0.0012 (will be added to EATOM!!)
  PAW_PBE H 15Jun2001                   :
 energy of atom  3       EATOM=  -12.4884
 kinetic energy error for atom=    0.0020 (will be added to EATOM!!)
 
 
 POSCAR: Ag-Ta-H
  positions in direct lattice
  velocities in cartesian coordinates
 exchange correlation table for  LEXCH =        8
   RHO(1)=    0.500       N(1)  =     2000
   RHO(2)=  100.500       N(2)  =     4000

 VTST: version 3.2, (02/03/18)

 CHAIN: initializing optimizer
 
 OPT: Using VASP Conjugate-Gradient optimizer
 CHAIN: Read ICHAIN            0
 
 POSCAR: Ag-Ta-H
  positions in direct lattice
  velocities in cartesian coordinates
 


--------------------------------------------------------------------------------------------------------


 ion  position               nearest neighbor table
   1  0.000  0.000  0.238-   2 2.93   8 2.93   7 2.93   6 2.93   4 2.93  12 2.93  16 2.93  10 2.93
                             3 2.93
   2  0.333  0.000  0.238-   1 2.93   8 2.93   9 2.93   3 2.93   4 2.93   5 2.93  10 2.93  17 2.93
                            11 2.93
   3  0.667  0.000  0.238-   9 2.93   2 2.93   5 2.93  11 2.93   7 2.93  18 2.93   1 2.93   6 2.93
                            12 2.93
   4  0.000  0.333  0.238-   5 2.93   6 2.93   2 2.93   1 2.93   7 2.93  13 2.93  15 2.93   9 2.93
                            10 2.93
   5  0.333  0.333  0.238-   4 2.93   3 2.93   7 2.93   2 2.93   8 2.93  14 2.93  13 2.93  11 2.93
                             6 2.93
   6  0.667  0.333  0.238-   4 2.93   9 2.93   1 2.93  15 2.93   8 2.93  12 2.93   3 2.93   5 2.93
                            14 2.93
   7  0.000  0.667  0.238-   8 2.93   1 2.93   5 2.93   3 2.93   4 2.93  16 2.93  18 2.93  13 2.93
                             9 2.93
   8  0.333  0.667  0.238-   7 2.93   1 2.93   2 2.93   9 2.93   5 2.93  16 2.93   6 2.93  17 2.93
                            14 2.93
   9  0.667  0.667  0.238-   3 2.93   2 2.93   8 2.93   6 2.93  17 2.93   4 2.93  15 2.93   7 2.93
                            18 2.93
  10  0.111  0.111  0.346-  20 2.89  12 2.93  16 2.93  15 2.93  17 2.93  13 2.93  11 2.93   2 2.93
                             1 2.93   4 2.93  19 2.93  26 2.93
  11  0.444  0.111  0.346-  21 2.90  20 2.90  14 2.93  17 2.93  18 2.93   3 2.93  12 2.93  13 2.93
                            10 2.93   5 2.93   2 2.93  27 2.93
  12  0.778  0.111  0.346-  21 2.89  10 2.93  16 2.93  18 2.93  15 2.93  11 2.93   1 2.93  14 2.93
                             6 2.93   3 2.93  25 2.93  19 2.93
  13  0.111  0.444  0.346-  20 2.90  23 2.90  15 2.93  14 2.93  18 2.93  10 2.93  11 2.93  16 2.93
                             4 2.93   5 2.93   7 2.93  22 2.93
  14  0.444  0.444  0.346-  23 2.90  21 2.90  13 2.93  11 2.93  16 2.93   5 2.93  12 2.93  17 2.93
                             8 2.93  15 2.93   6 2.93  24 2.93
  15  0.778  0.444  0.346-  19 2.93  24 2.93  22 2.93  13 2.93  10 2.93  12 2.93  17 2.93  18 2.93
                             4 2.93   6 2.93   9 2.93  14 2.93
  16  0.111  0.778  0.346-  23 2.89  18 2.93  12 2.93  10 2.93  14 2.93  17 2.93  13 2.93   7 2.93
                             8 2.93   1 2.93  26 2.93  25 2.93
  17  0.444  0.778  0.346-  26 2.93  27 2.93  24 2.93  11 2.93  10 2.93   9 2.93  18 2.93  15 2.93
                            16 2.93   2 2.93  14 2.93   8 2.93
  18  0.778  0.778  0.346-  25 2.93  22 2.93  27 2.93  16 2.93  12 2.93  13 2.93  11 2.93  17 2.93
                            15 2.93   7 2.93   3 2.93   9 2.93
  19  0.889  0.223  0.454-  20 2.92  21 2.92  24 2.93  22 2.93  28 2.93  15 2.93  10 2.93  12 2.93
                            26 2.94  25 2.94  32 2.99  31 2.99
  20  0.222  0.222  0.452-  36 2.78  10 2.89  13 2.90  11 2.90  19 2.92  26 2.92  27 2.93  22 2.93
                            21 2.95  23 2.95  31 2.97  29 2.97
  21  0.557  0.222  0.452-  36 2.78  12 2.89  11 2.90  14 2.90  25 2.92  19 2.92  27 2.93  24 2.93
                            20 2.95  23 2.95  30 2.97  32 2.97
  22  0.888  0.556  0.454-  24 2.92  27 2.92  25 2.93  19 2.93  18 2.93  15 2.93  13 2.93  23 2.93
                            20 2.93  35 2.94  33 2.96  31 2.96
  23  0.222  0.557  0.452-  36 2.78  16 2.89  14 2.90  13 2.90  26 2.92  25 2.92  22 2.93  24 2.93
                            21 2.95  20 2.95  34 2.97  33 2.97
  24  0.556  0.556  0.454-  27 2.92  22 2.92  19 2.93  26 2.93  15 2.93  17 2.93  14 2.93  23 2.93
                            21 2.93  35 2.94  32 2.96  34 2.96
  25  0.889  0.889  0.454-  23 2.92  21 2.92  22 2.93  27 2.93  28 2.93  18 2.93  16 2.93  12 2.93
                            26 2.94  19 2.94  33 2.99  30 2.99
  26  0.223  0.889  0.454-  23 2.92  20 2.92  27 2.93  24 2.93  28 2.93  17 2.93  16 2.93  10 2.93
                            25 2.94  19 2.94  34 2.99  29 2.99
  27  0.556  0.888  0.454-  24 2.92  22 2.92  26 2.93  25 2.93  17 2.93  18 2.93  11 2.93  20 2.93
                            21 2.93  35 2.94  29 2.96  30 2.96
  28  0.000  0.000  0.562-  26 2.93  25 2.93  19 2.93  29 2.96  34 2.96  33 2.96  32 2.96  31 2.96
                            30 2.96
  29  0.334  0.006  0.564-  30 2.88  31 2.88  36 2.89  35 2.96  28 2.96  27 2.96  20 2.97  26 2.99
                            34 3.03
  30  0.661  0.006  0.564-  29 2.88  32 2.88  36 2.89  35 2.96  28 2.96  27 2.96  21 2.97  25 2.99
                            33 3.03
  31  0.006  0.334  0.564-  33 2.88  29 2.88  36 2.89  35 2.96  28 2.96  22 2.96  20 2.97  19 2.99
                            32 3.03
  32  0.661  0.334  0.564-  34 2.88  30 2.88  36 2.89  35 2.96  28 2.96  24 2.96  21 2.97  19 2.99
                            31 3.03
  33  0.006  0.661  0.564-  31 2.88  34 2.88  36 2.89  35 2.96  28 2.96  22 2.96  23 2.97  25 2.99
                            30 3.03
  34  0.334  0.661  0.564-  32 2.88  33 2.88  36 2.89  35 2.96  28 2.96  24 2.96  23 2.97  26 2.99
                            29 3.03
  35  0.667  0.667  0.562-  24 2.94  27 2.94  22 2.94  30 2.96  32 2.96  29 2.96  34 2.96  31 2.96
                            33 2.96
  36  0.333  0.333  0.551-  37 1.78  21 2.78  20 2.78  23 2.78  31 2.89  33 2.89  30 2.89  29 2.89
                            34 2.89  32 2.89
  37  0.333  0.333  0.631-  36 1.78
 
  LATTYP: Found a hexagonal cell.
 ALAT       =     8.7913665772
 C/A-ratio  =     2.5227160501
  
  Lattice vectors:
  
 A1 = (  -4.3956832886,  -7.6135467898,   0.0000000000)
 A2 = (   8.7913665771,   0.0000000000,   0.0000000000)
 A3 = (   0.0000000000,   0.0000000000,  22.1781215668)


Analysis of symmetry for initial positions (statically):
=====================================================================
 Subroutine PRICEL returns:
 Original cell was already a primitive cell.
 

 Routine SETGRP: Setting up the symmetry group for a 
 hexagonal supercell.


 Subroutine GETGRP returns: Found  6 space group operations
 (whereof  6 operations were pure point group operations)
 out of a pool of 24 trial point group operations.


The static configuration has the point symmetry C_3v.


Analysis of symmetry for dynamics (positions and initial velocities):
=====================================================================
 Subroutine PRICEL returns:
 Original cell was already a primitive cell.
 

 Routine SETGRP: Setting up the symmetry group for a 
 hexagonal supercell.


 Subroutine GETGRP returns: Found  6 space group operations
 (whereof  6 operations were pure point group operations)
 out of a pool of 24 trial point group operations.


The dynamic configuration has the point symmetry C_3v.


Analysis of constrained symmetry for selective dynamics:
=====================================================================
 Subroutine PRICEL returns:
 Original cell was already a primitive cell.
 

 Routine SETGRP: Setting up the symmetry group for a 
 hexagonal supercell.


 Subroutine GETGRP returns: Found  6 space group operations
 (whereof  6 operations were pure point group operations)
 out of a pool of 24 trial point group operations.


The constrained configuration has the point symmetry C_3v.


 Subroutine INISYM returns: Found  6 space group operations
 (whereof  6 operations are pure point group operations),
 and found     1 'primitive' translations


----------------------------------------------------------------------------------------

                                     Primitive cell                                     

  volume of cell :    1484.4589

  direct lattice vectors                    reciprocal lattice vectors
     8.791366577  0.000000000  0.000000000     0.113747958 -0.065672414  0.000000000
     4.395683289  7.613546790  0.000000000     0.000000000  0.131344829  0.000000000
     0.000000000  0.000000000 22.178121567     0.000000000  0.000000000  0.045089481

  length of vectors
     8.791366577  8.791366577 22.178121567     0.131344829  0.131344829  0.045089481

  position of ions in fractional coordinates (direct lattice)
     0.000000000  0.000000000  0.238171124
     0.333333313  0.000000000  0.238171124
     0.666666627  0.000000000  0.238171124
     0.000000000  0.333333343  0.238171124
     0.333333313  0.333333343  0.238171124
     0.666666687  0.333333343  0.238171124
     0.000000000  0.666666687  0.238171124
     0.333333313  0.666666687  0.238171124
     0.666666627  0.666666687  0.238171124
     0.111111104  0.111111112  0.346057051
     0.444444448  0.111111112  0.346057051
     0.777777791  0.111111112  0.346057051
     0.111111097  0.444444448  0.346057051
     0.444444418  0.444444448  0.346057051
     0.777777791  0.444444448  0.346057051
     0.111111104  0.777777791  0.346057051
     0.444444448  0.777777791  0.346057051
     0.777777791  0.777777791  0.346057051
     0.888701275  0.222597467  0.454023632
     0.221552221  0.221552236  0.451971225
     0.556895499  0.221552236  0.451971225
     0.888301432  0.555849314  0.454003918
     0.221552236  0.556895559  0.451971225
     0.555849314  0.555849314  0.454003918
     0.888701275  0.888701275  0.454023632
     0.222597437  0.888701275  0.454023632
     0.555849254  0.888301432  0.454003918
     0.000000000  0.000000000  0.561717193
     0.333507489  0.005743574  0.563601249
     0.660748877  0.005743574  0.563601249
     0.005743574  0.333507519  0.563601249
     0.660748937  0.333507519  0.563601249
     0.005743574  0.660748937  0.563601249
     0.333507489  0.660748937  0.563601249
     0.666666627  0.666666687  0.562313347
     0.333333313  0.333333343  0.551278424
     0.333333313  0.333333343  0.631391945

  ion indices of the primitive-cell ions
   primitive index   ion index
                 1           1
                 2           2
                 3           3
                 4           4
                 5           5
                 6           6
                 7           7
                 8           8
                 9           9
                10          10
                11          11
                12          12
                13          13
                14          14
                15          15
                16          16
                17          17
                18          18
                19          19
                20          20
                21          21
                22          22
                23          23
                24          24
                25          25
                26          26
                27          27
                28          28
                29          29
                30          30
                31          31
                32          32
                33          33
                34          34
                35          35
                36          36
                37          37

----------------------------------------------------------------------------------------

 
 
 KPOINTS: Automatic mesh                          

Automatic generation of k-mesh.
 Grid dimensions read from file:
 generate k-points for:    8    8    1

 Generating k-lattice:

  Cartesian coordinates                     Fractional coordinates (reciprocal lattice)
     0.014218495 -0.008209052  0.000000000     0.125000000  0.000000000  0.000000000
     0.000000000  0.016418104  0.000000000     0.000000000  0.125000000  0.000000000
     0.000000000  0.000000000  0.045089481     0.000000000  0.000000000  1.000000000

  Length of vectors
     0.016418104  0.016418104  0.045089481

  Shift w.r.t. Gamma in fractional coordinates (k-lattice)
     0.000000000  0.000000000  0.000000000

 TETIRR: Found     36 inequivalent tetrahedra from      384
 
 Subroutine IBZKPT returns following result:
 ===========================================
 
 Found     10 irreducible k-points:
 
 Following reciprocal coordinates:
            Coordinates               Weight
  0.000000  0.000000  0.000000      1.000000
  0.125000 -0.000000  0.000000      6.000000
  0.250000 -0.000000  0.000000      6.000000
  0.375000 -0.000000  0.000000      6.000000
  0.500000 -0.000000  0.000000      3.000000
  0.250000  0.125000  0.000000      6.000000
  0.375000  0.125000  0.000000     12.000000
  0.500000  0.125000  0.000000     12.000000
  0.500000  0.250000  0.000000      6.000000
 -0.375000  0.250000  0.000000      6.000000
 
 Following cartesian coordinates:
            Coordinates               Weight
  0.000000  0.000000  0.000000      1.000000
  0.014218 -0.008209  0.000000      6.000000
  0.028437 -0.016418  0.000000      6.000000
  0.042655 -0.024627  0.000000      6.000000
  0.056874 -0.032836  0.000000      3.000000
  0.028437 -0.000000  0.000000      6.000000
  0.042655 -0.008209  0.000000     12.000000
  0.056874 -0.016418  0.000000     12.000000
  0.056874 -0.000000  0.000000      6.000000
 -0.042655  0.057463  0.000000      6.000000
 


--------------------------------------------------------------------------------------------------------




 Dimension of arrays:
   k-points           NKPTS =     10   k-points in BZ     NKDIM =     10   number of bands    NBANDS=    252
   number of dos      NEDOS =    301   number of ions     NIONS =     37
   non local maximal  LDIM  =      6   non local SUM 2l+1 LMDIM =     18
   total plane-waves  NPLWV = 290304
   max r-space proj   IRMAX =   3475   max aug-charges    IRDMAX=  13510
   dimension x,y,z NGX =    48 NGY =   48 NGZ =  126
   dimension x,y,z NGXF=    96 NGYF=   96 NGZF=  252
   support grid    NGXF=    96 NGYF=   96 NGZF=  252
   ions per type =              35   1   1
   NGX,Y,Z   is equivalent  to a cutoff of   9.08,  9.08,  9.44 a.u.
   NGXF,Y,Z  is equivalent  to a cutoff of  18.15, 18.15, 18.89 a.u.

 SYSTEM =  unknown system                          
 POSCAR =  Ag-Ta-H                                 

 Startparameter for this run:
   NWRITE =      2    write-flag & timer
   PREC   = normal    normal or accurate (medium, high low for compatibility)
   ISTART =      0    job   : 0-new  1-cont  2-samecut
   ICHARG =     11    charge: 1-file 2-atom 10-const
   ISPIN  =      1    spin polarized calculation?
   LNONCOLLINEAR =      F non collinear calculations
   LSORBIT =      F    spin-orbit coupling
   INIWAV =      1    electr: 0-lowe 1-rand  2-diag
   LASPH  =      F    aspherical Exc in radial PAW
   METAGGA=      F    non-selfconsistent MetaGGA calc.

 Electronic Relaxation 1
   ENCUT  =  500.0 eV  36.75 Ry    6.06 a.u.  16.03 16.03 40.44*2*pi/ulx,y,z
   ENINI  =  500.0     initial cutoff
   ENAUG  =  412.5 eV  augmentation charge cutoff
   NELM   =    150;   NELMIN=  2; NELMDL= -5     # of ELM steps 
   EDIFF  = 0.1E-04   stopping-criterion for ELM
   LREAL  =      T    real-space projection
   NLSPLINE    = F    spline interpolate recip. space projectors
   LCOMPAT=      F    compatible to vasp.4.4
   GGA_COMPAT  = T    GGA compatible to vasp.4.4-vasp.4.6
   LMAXPAW     = -100 max onsite density
   LMAXMIX     =    2 max onsite mixed and CHGCAR
   VOSKOWN=      0    Vosko Wilk Nusair interpolation
   ROPT   =   -0.00050  -0.00050  -0.00050
 Ionic relaxation
   EDIFFG = -.1E-01   stopping-criterion for IOM
   NSW    =      0    number of steps for IOM
   NBLOCK =      1;   KBLOCK =      1    inner block; outer block 
   IBRION =     -1    ionic relax: 0-MD 1-quasi-New 2-CG
   NFREE  =      1    steps in history (QN), initial steepest desc. (CG)
   ISIF   =      2    stress and relaxation
   IWAVPR =     10    prediction:  0-non 1-charg 2-wave 3-comb
   ISYM   =      2    0-nonsym 1-usesym 2-fastsym
   LCORR  =      T    Harris-Foulkes like correction to forces

   POTIM  = 0.5000    time-step for ionic-motion
   TEIN   =    0.0    initial temperature
   TEBEG  =    0.0;   TEEND  =   0.0 temperature during run
   SMASS  =  -3.00    Nose mass-parameter (am)
   estimated Nose-frequenzy (Omega)   =  0.10E-29 period in steps = 0.13E+47 mass=  -0.177E-26a.u.
   SCALEE = 1.0000    scale energy and forces
   NPACO  =    256;   APACO  = 16.0  distance and # of slots for P.C.
   PSTRESS=    0.0 pullay stress

  Mass of Ions in am
   POMASS = 107.87180.95  1.00
  Ionic Valenz
   ZVAL   =  11.00  5.00  1.00
  Atomic Wigner-Seitz radii
   RWIGS  =  -1.00 -1.00 -1.00
  virtual crystal weights 
   VCA    =   1.00  1.00  1.00
   NELECT =     391.0000    total number of electrons
   NUPDOWN=      -1.0000    fix difference up-down

 DOS related values:
   EMIN   =  10.00;   EMAX   =-10.00  energy-range for DOS
   EFERMI =   0.00
   ISMEAR =    -5;   SIGMA  =   0.10  broadening in eV -4-tet -1-fermi 0-gaus

 Electronic relaxation 2 (details)
   IALGO  =     68    algorithm
   LDIAG  =      T    sub-space diagonalisation (order eigenvalues)
   LSUBROT=      F    optimize rotation matrix (better conditioning)
   TURBO    =      0    0=normal 1=particle mesh
   IRESTART =      0    0=no restart 2=restart with 2 vectors
   NREBOOT  =      0    no. of reboots
   NMIN     =      0    reboot dimension
   EREF     =   0.00    reference energy to select bands
   IMIX   =      4    mixing-type and parameters
     AMIX     =   0.40;   BMIX     =  1.00
     AMIX_MAG =   1.60;   BMIX_MAG =  1.00
     AMIN     =   0.10
     WC   =   100.;   INIMIX=   1;  MIXPRE=   1;  MAXMIX= -45

 Intra band minimization:
   WEIMIN = 0.0000     energy-eigenvalue tresh-hold
   EBREAK =  0.99E-08  absolut break condition
   DEPER  =   0.30     relativ break condition  

   TIME   =   0.40     timestep for ELM

  volume/ion in A,a.u.               =      40.12       270.75
  Fermi-wavevector in a.u.,A,eV,Ry     =   1.049408  1.983094 14.983512  1.101257
  Thomas-Fermi vector in A             =   2.184369
 
 Write flags
   LWAVE        =      F    write WAVECAR
   LDOWNSAMPLE  =      F    k-point downsampling of WAVECAR
   LCHARG       =      F    write CHGCAR
   LVTOT        =      F    write LOCPOT, total local potential
   LVHAR        =      F    write LOCPOT, Hartree potential only
   LELF         =      F    write electronic localiz. function (ELF)
   LORBIT       =     10    0 simple, 1 ext, 2 COOP (PROOUT), +10 PAW based schemes


 Dipole corrections
   LMONO  =      F    monopole corrections only (constant potential shift)
   LDIPOL =      F    correct potential (dipole corrections)
   IDIPOL =      0    1-x, 2-y, 3-z, 4-all directions 
   EPSILON=  1.0000000 bulk dielectric constant

 Exchange correlation treatment:
   GGA     =    --    GGA type
   LEXCH   =     8    internal setting for exchange type
   VOSKOWN=      0    Vosko Wilk Nusair interpolation
   LHFCALC =     F    Hartree Fock is set to
   LHFONE  =     F    Hartree Fock one center treatment
   AEXX    =    0.0000 exact exchange contribution

 Linear response parameters
   LEPSILON=     F    determine dielectric tensor
   LRPA    =     F    only Hartree local field effects (RPA)
   LNABLA  =     F    use nabla operator in PAW spheres
   LVEL    =     F    velocity operator in full k-point grid
   LINTERFAST=   F  fast interpolation
   KINTER  =     0    interpolate to denser k-point grid
   CSHIFT  =0.1000    complex shift for real part using Kramers Kronig
   OMEGAMAX=  -1.0    maximum frequency
   DEG_THRESHOLD= 0.2000000E-02 threshold for treating states as degnerate
   RTIME   =   -0.100 relaxation time in fs
  (WPLASMAI=    0.000 imaginary part of plasma frequency in eV, 0.658/RTIME)
   DFIELD  = 0.0000000 0.0000000 0.0000000 field for delta impulse in time
 
 Orbital magnetization related:
   ORBITALMAG=     F  switch on orbital magnetization
   LCHIMAG   =     F  perturbation theory with respect to B field
   DQ        =  0.001000  dq finite difference perturbation B field
   LLRAUG    =     F  two centre corrections for induced B field



--------------------------------------------------------------------------------------------------------


 Static calculation
 charge density and potential remain constant during run
 non-spin polarized calculation
 RMM-DIIS sequential band-by-band and
  variant of blocked Davidson during initial phase
 perform sub-space diagonalisation
    before iterative eigenvector-optimisation
 no mixing
 using additional bands           56
 real space projection scheme for non local part
 use partial core corrections
 calculate Harris-corrections to forces 
   (improved forces if not selfconsistent)
 use gradient corrections 
 WARNING: stress and forces are not correct
  (second derivative of E(xc) not defined)
 use of overlap-Matrix (Vanderbilt PP)
 Fermi weights with tetrahedron method with Bloechl corrections


--------------------------------------------------------------------------------------------------------


  energy-cutoff  :      500.00
  volume of cell :     1484.46
      direct lattice vectors                 reciprocal lattice vectors
     8.791366577  0.000000000  0.000000000     0.113747958 -0.065672414  0.000000000
     4.395683289  7.613546790  0.000000000     0.000000000  0.131344829  0.000000000
     0.000000000  0.000000000 22.178121567     0.000000000  0.000000000  0.045089481

  length of vectors
     8.791366577  8.791366577 22.178121567     0.131344829  0.131344829  0.045089481


 
 k-points in units of 2pi/SCALE and weight: Automatic mesh                          
   0.00000000  0.00000000  0.00000000       0.016
   0.01421849 -0.00820905  0.00000000       0.094
   0.02843699 -0.01641810  0.00000000       0.094
   0.04265548 -0.02462716  0.00000000       0.094
   0.05687398 -0.03283621  0.00000000       0.047
   0.02843699 -0.00000000  0.00000000       0.094
   0.04265548 -0.00820905  0.00000000       0.188
   0.05687398 -0.01641810  0.00000000       0.188
   0.05687398 -0.00000000  0.00000000       0.094
  -0.04265548  0.05746336  0.00000000       0.094
 
 k-points in reciprocal lattice and weights: Automatic mesh                          
   0.00000000  0.00000000  0.00000000       0.016
   0.12500000 -0.00000000  0.00000000       0.094
   0.25000000 -0.00000000  0.00000000       0.094
   0.37500000 -0.00000000  0.00000000       0.094
   0.50000000 -0.00000000  0.00000000       0.047
   0.25000000  0.12500000  0.00000000       0.094
   0.37500000  0.12500000  0.00000000       0.188
   0.50000000  0.12500000  0.00000000       0.188
   0.50000000  0.25000000  0.00000000       0.094
  -0.37500000  0.25000000  0.00000000       0.094
 
 position of ions in fractional coordinates (direct lattice) 
   0.00000000  0.00000000  0.23817112
   0.33333331  0.00000000  0.23817112
   0.66666663  0.00000000  0.23817112
   0.00000000  0.33333334  0.23817112
   0.33333331  0.33333334  0.23817112
   0.66666669  0.33333334  0.23817112
   0.00000000  0.66666669  0.23817112
   0.33333331  0.66666669  0.23817112
   0.66666663  0.66666669  0.23817112
   0.11111110  0.11111111  0.34605705
   0.44444445  0.11111111  0.34605705
   0.77777779  0.11111111  0.34605705
   0.11111110  0.44444445  0.34605705
   0.44444442  0.44444445  0.34605705
   0.77777779  0.44444445  0.34605705
   0.11111110  0.77777779  0.34605705
   0.44444445  0.77777779  0.34605705
   0.77777779  0.77777779  0.34605705
   0.88870127  0.22259747  0.45402363
   0.22155222  0.22155224  0.45197123
   0.55689550  0.22155224  0.45197123
   0.88830143  0.55584931  0.45400392
   0.22155224  0.55689556  0.45197123
   0.55584931  0.55584931  0.45400392
   0.88870127  0.88870127  0.45402363
   0.22259744  0.88870127  0.45402363
   0.55584925  0.88830143  0.45400392
   0.00000000  0.00000000  0.56171719
   0.33350749  0.00574357  0.56360125
   0.66074888  0.00574357  0.56360125
   0.00574357  0.33350752  0.56360125
   0.66074894  0.33350752  0.56360125
   0.00574357  0.66074894  0.56360125
   0.33350749  0.66074894  0.56360125
   0.66666663  0.66666669  0.56231335
   0.33333331  0.33333334  0.55127842
   0.33333331  0.33333334  0.63139195
 
 position of ions in cartesian coordinates  (Angst):
   0.00000000  0.00000000  5.28218814
   2.93045535  0.00000000  5.28218814
   5.86091070  0.00000000  5.28218814
   1.46522781  2.53784900  5.28218814
   4.39568315  2.53784900  5.28218814
   7.32613904  2.53784900  5.28218814
   2.93045562  5.07569801  5.28218814
   5.86091096  5.07569801  5.28218814
   8.79136632  5.07569801  5.28218814
   1.46522770  0.84594965  7.67489535
   4.39568332  0.84594965  7.67489535
   7.32613893  0.84594965  7.67489535
   2.93045542  3.38379860  7.67489535
   5.86091083  3.38379860  7.67489535
   8.79136671  3.38379860  7.67489535
   4.39568328  5.92164760  7.67489535
   7.32613890  5.92164760  7.67489535
  10.25659451  5.92164760  7.67489535
   8.79136665  1.69475623 10.06939130
   2.92162025  1.68679831 10.02387278
   5.86974594  1.68679831 10.02387278
  10.25272106  4.23198476 10.06895410
   4.39568342  4.23995040 10.02387278
   7.33001262  4.23198476 10.06895410
  11.71934803  6.76616874 10.06939130
   5.86338501  6.76616874 10.06939130
   8.79136631  6.76312452 10.06895410
   0.00000000  0.00000000 12.45783220
   2.95723353  0.04372897 12.49961703
   5.83413252  0.04372897 12.49961703
   1.51648729  2.53917510 12.49961703
   7.27487955  2.53917510 12.49961703
   2.95493692  5.03064295 12.49961703
   5.83642965  5.03064295 12.49961703
   8.79136632  5.07569801 12.47105378
   4.39568315  2.53784900 12.22631990
   4.39568315  2.53784900 14.00308732
 


--------------------------------------------------------------------------------------------------------


 k-point   1 :   0.0000 0.0000 0.0000  plane waves:   37683
 k-point   2 :   0.1250-0.0000 0.0000  plane waves:   37658
 k-point   3 :   0.2500-0.0000 0.0000  plane waves:   37682
 k-point   4 :   0.3750-0.0000 0.0000  plane waves:   37686
 k-point   5 :   0.5000-0.0000 0.0000  plane waves:   37668
 k-point   6 :   0.2500 0.1250 0.0000  plane waves:   37666
 k-point   7 :   0.3750 0.1250 0.0000  plane waves:   37708
 k-point   8 :   0.5000 0.1250 0.0000  plane waves:   37726
 k-point   9 :   0.5000 0.2500 0.0000  plane waves:   37706
 k-point  10 :  -0.3750 0.2500 0.0000  plane waves:   37686

 maximum and minimum number of plane-waves per node :     37726    37658

 maximum number of plane-waves:     37726
 maximum index in each direction: 
   IXMAX=   16   IYMAX=   16   IZMAX=   40
   IXMIN=  -16   IYMIN=  -16   IZMIN=  -40


 serial   3D FFT for wavefunctions
 parallel 3D FFT for charge:
    minimum data exchange during FFTs selected (reduces bandwidth)


 total amount of memory used by VASP MPI-rank0   123696. kBytes
=======================================================================

   base      :      30000. kBytes
   nonlr-proj:      15593. kBytes
   fftplans  :       4330. kBytes
   grid      :      17879. kBytes
   one-center:        575. kBytes
   wavefun   :      55319. kBytes
 
     INWAV:  cpu time    0.0000: real time    0.0000
 initial charge density was supplied:
 number of electron     390.9999893 magnetization 
 keeping initial charge density in first step


--------------------------------------------------------------------------------------------------------


 Maximum index for non-local projection operator         3306
 Maximum index for augmentation-charges          706 (set IRDMAX)


--------------------------------------------------------------------------------------------------------


 First call to EWALD:  gamma=   0.155
 Maximum number of real-space cells 4x 4x 2
 Maximum number of reciprocal cells 2x 2x 5

    FEWALD:  cpu time    0.0013: real time    0.0013


--------------------------------------- Iteration      1(   1)  ---------------------------------------


    POTLOK:  cpu time    0.0548: real time    0.0551
    SETDIJ:  cpu time    0.0046: real time    0.0048
     EDDAV:  cpu time    7.2292: real time    7.2309
 BZINTS: Fermi energy:    9.099134;  391.000000 electrons
         Band energy: 0.113779E+04;  BLOECHL correction:   -0.012807
       DOS:  cpu time    0.0104: real time    0.0105
    --------------------------------------------
      LOOP:  cpu time    7.2991: real time    7.3013

 eigenvalue-minimisations  :  5040
 total energy-change (2. order) : 0.2346930E+04  (-0.1800217E+05)
 number of electron     390.9999893 magnetization 
 augmentation part      390.9999893 magnetization 

 Free energy of the ion-electron system (eV)
  ---------------------------------------------------
  alpha Z        PSCENC =       742.70538554
  Ewald energy   TEWEN  =     95780.90134144
  -Hartree energ DENC   =   -132916.20133265
  -exchange      EXHF   =         0.00000000
  -V(xc)+E(xc)   XCENC  =      -453.14446833
  PAW double counting   =     38681.37191305   -37073.81137181
  entropy T*S    EENTRO =         0.00000000
  eigenvalues    EBANDS =      1137.79195586
  atomic energy  EATOM  =     36447.31661904
  Solvation  Ediel_sol  =         0.00000000
  ---------------------------------------------------
  free energy    TOTEN  =      2346.93004213 eV

  energy without entropy =     2346.93004213  energy(sigma->0) =     2346.93004213


--------------------------------------------------------------------------------------------------------




--------------------------------------- Iteration      1(   2)  ---------------------------------------


     EDDAV:  cpu time    7.5204: real time    7.5234
 BZINTS: Fermi energy:    1.268467;  391.000000 electrons
         Band energy:-0.123679E+04;  BLOECHL correction:   -0.035068
       DOS:  cpu time    0.0098: real time    0.0097
    --------------------------------------------
      LOOP:  cpu time    7.5302: real time    7.5332

 eigenvalue-minimisations  :  5320
 total energy-change (2. order) :-0.2374579E+04  (-0.2253315E+04)
 number of electron     390.9999893 magnetization 
 augmentation part      390.9999893 magnetization 

 Free energy of the ion-electron system (eV)
  ---------------------------------------------------
  alpha Z        PSCENC =       742.70538554
  Ewald energy   TEWEN  =     95780.90134144
  -Hartree energ DENC   =   -132916.20133265
  -exchange      EXHF   =         0.00000000
  -V(xc)+E(xc)   XCENC  =      -453.14446833
  PAW double counting   =     38681.37191305   -37073.81137181
  entropy T*S    EENTRO =         0.00000000
  eigenvalues    EBANDS =     -1236.78701135
  atomic energy  EATOM  =     36447.31661904
  Solvation  Ediel_sol  =         0.00000000
  ---------------------------------------------------
  free energy    TOTEN  =       -27.64892508 eV

  energy without entropy =      -27.64892508  energy(sigma->0) =      -27.64892508


--------------------------------------------------------------------------------------------------------




--------------------------------------- Iteration      1(   3)  ---------------------------------------


     EDDAV:  cpu time    8.1742: real time    8.1745
 BZINTS: Fermi energy:    0.785650;  391.000000 electrons
         Band energy:-0.130962E+04;  BLOECHL correction:   -0.024276
       DOS:  cpu time    0.0100: real time    0.0100
    --------------------------------------------
      LOOP:  cpu time    8.1843: real time    8.1845

 eigenvalue-minimisations  :  5880
 total energy-change (2. order) :-0.7282997E+02  (-0.7099049E+02)
 number of electron     390.9999893 magnetization 
 augmentation part      390.9999893 magnetization 

 Free energy of the ion-electron system (eV)
  ---------------------------------------------------
  alpha Z        PSCENC =       742.70538554
  Ewald energy   TEWEN  =     95780.90134144
  -Hartree energ DENC   =   -132916.20133265
  -exchange      EXHF   =         0.00000000
  -V(xc)+E(xc)   XCENC  =      -453.14446833
  PAW double counting   =     38681.37191305   -37073.81137181
  entropy T*S    EENTRO =         0.00000000
  eigenvalues    EBANDS =     -1309.61697694
  atomic energy  EATOM  =     36447.31661904
  Solvation  Ediel_sol  =         0.00000000
  ---------------------------------------------------
  free energy    TOTEN  =      -100.47889067 eV

  energy without entropy =     -100.47889067  energy(sigma->0) =     -100.47889067


--------------------------------------------------------------------------------------------------------




--------------------------------------- Iteration      1(   4)  ---------------------------------------


     EDDAV:  cpu time    8.2621: real time    8.2622
 BZINTS: Fermi energy:    0.767735;  391.000000 electrons
         Band energy:-0.131064E+04;  BLOECHL correction:   -0.023356
       DOS:  cpu time    0.0101: real time    0.0101
    --------------------------------------------
      LOOP:  cpu time    8.2722: real time    8.2723

 eigenvalue-minimisations  :  5964
 total energy-change (2. order) :-0.1020714E+01  (-0.1017475E+01)
 number of electron     390.9999893 magnetization 
 augmentation part      390.9999893 magnetization 

 Free energy of the ion-electron system (eV)
  ---------------------------------------------------
  alpha Z        PSCENC =       742.70538554
  Ewald energy   TEWEN  =     95780.90134144
  -Hartree energ DENC   =   -132916.20133265
  -exchange      EXHF   =         0.00000000
  -V(xc)+E(xc)   XCENC  =      -453.14446833
  PAW double counting   =     38681.37191305   -37073.81137181
  entropy T*S    EENTRO =         0.00000000
  eigenvalues    EBANDS =     -1310.63769093
  atomic energy  EATOM  =     36447.31661904
  Solvation  Ediel_sol  =         0.00000000
  ---------------------------------------------------
  free energy    TOTEN  =      -101.49960466 eV

  energy without entropy =     -101.49960466  energy(sigma->0) =     -101.49960466


--------------------------------------------------------------------------------------------------------




--------------------------------------- Iteration      1(   5)  ---------------------------------------


     EDDAV:  cpu time    8.5467: real time    8.5469
 BZINTS: Fermi energy:    0.767432;  391.000000 electrons
         Band energy:-0.131066E+04;  BLOECHL correction:   -0.023349
       DOS:  cpu time    0.0097: real time    0.0097
    --------------------------------------------
      LOOP:  cpu time    8.5564: real time    8.5566

 eigenvalue-minimisations  :  6216
 total energy-change (2. order) :-0.2242066E-01  (-0.2242562E-01)
 number of electron     390.9999893 magnetization 
 augmentation part      390.9999893 magnetization 

 Free energy of the ion-electron system (eV)
  ---------------------------------------------------
  alpha Z        PSCENC =       742.70538554
  Ewald energy   TEWEN  =     95780.90134144
  -Hartree energ DENC   =   -132916.20133265
  -exchange      EXHF   =         0.00000000
  -V(xc)+E(xc)   XCENC  =      -453.14446833
  PAW double counting   =     38681.37191305   -37073.81137181
  entropy T*S    EENTRO =         0.00000000
  eigenvalues    EBANDS =     -1310.66011159
  atomic energy  EATOM  =     36447.31661904
  Solvation  Ediel_sol  =         0.00000000
  ---------------------------------------------------
  free energy    TOTEN  =      -101.52202532 eV

  energy without entropy =     -101.52202532  energy(sigma->0) =     -101.52202532


--------------------------------------------------------------------------------------------------------




--------------------------------------- Iteration      1(   6)  ---------------------------------------


    EDDIAG:  cpu time    1.4004: real time    1.4006
  RMM-DIIS:  cpu time    3.9149: real time    3.9150
    ORTHCH:  cpu time    0.2622: real time    0.2622
 BZINTS: Fermi energy:    0.767423;  391.000000 electrons
         Band energy:-0.131066E+04;  BLOECHL correction:   -0.023349
       DOS:  cpu time    0.0090: real time    0.0090
    --------------------------------------------
      LOOP:  cpu time    5.5865: real time    5.5869

 eigenvalue-minimisations  :  4964
 total energy-change (2. order) :-0.7432326E-03  (-0.7434058E-03)
 number of electron     390.9999893 magnetization 
 augmentation part      390.9999893 magnetization 

 Free energy of the ion-electron system (eV)
  ---------------------------------------------------
  alpha Z        PSCENC =       742.70538554
  Ewald energy   TEWEN  =     95780.90134144
  -Hartree energ DENC   =   -132916.20133265
  -exchange      EXHF   =         0.00000000
  -V(xc)+E(xc)   XCENC  =      -453.14446833
  PAW double counting   =     38681.37191305   -37073.81137181
  entropy T*S    EENTRO =         0.00000000
  eigenvalues    EBANDS =     -1310.66085483
  atomic energy  EATOM  =     36447.31661904
  Solvation  Ediel_sol  =         0.00000000
  ---------------------------------------------------
  free energy    TOTEN  =      -101.52276856 eV

  energy without entropy =     -101.52276856  energy(sigma->0) =     -101.52276856


--------------------------------------------------------------------------------------------------------




--------------------------------------- Iteration      1(   7)  ---------------------------------------


    EDDIAG:  cpu time    1.4020: real time    1.4021
  RMM-DIIS:  cpu time    5.5165: real time    5.5166
    ORTHCH:  cpu time    0.2619: real time    0.2619
 BZINTS: Fermi energy:    0.767420;  391.000000 electrons
         Band energy:-0.131066E+04;  BLOECHL correction:   -0.023349
       DOS:  cpu time    0.0096: real time    0.0096
    --------------------------------------------
      LOOP:  cpu time    7.1901: real time    7.1902

 eigenvalue-minimisations  :  7110
 total energy-change (2. order) :-0.2714816E-03  (-0.2714362E-03)
 number of electron     390.9999893 magnetization 
 augmentation part      390.9999893 magnetization 

 Free energy of the ion-electron system (eV)
  ---------------------------------------------------
  alpha Z        PSCENC =       742.70538554
  Ewald energy   TEWEN  =     95780.90134144
  -Hartree energ DENC   =   -132916.20133265
  -exchange      EXHF   =         0.00000000
  -V(xc)+E(xc)   XCENC  =      -453.14446833
  PAW double counting   =     38681.37191305   -37073.81137181
  entropy T*S    EENTRO =         0.00000000
  eigenvalues    EBANDS =     -1310.66112631
  atomic energy  EATOM  =     36447.31661904
  Solvation  Ediel_sol  =         0.00000000
  ---------------------------------------------------
  free energy    TOTEN  =      -101.52304004 eV

  energy without entropy =     -101.52304004  energy(sigma->0) =     -101.52304004


--------------------------------------------------------------------------------------------------------




--------------------------------------- Iteration      1(   8)  ---------------------------------------


    EDDIAG:  cpu time    1.4036: real time    1.4036
  RMM-DIIS:  cpu time    3.8530: real time    3.8530
    ORTHCH:  cpu time    0.2620: real time    0.2620
 BZINTS: Fermi energy:    0.767420;  391.000000 electrons
         Band energy:-0.131066E+04;  BLOECHL correction:   -0.023349
       DOS:  cpu time    0.0100: real time    0.0100
    --------------------------------------------
      LOOP:  cpu time    5.5286: real time    5.5287

 eigenvalue-minimisations  :  4483
 total energy-change (2. order) :-0.8982053E-05  (-0.8933061E-05)
 number of electron     390.9999893 magnetization 
 augmentation part      390.9999893 magnetization 

 Free energy of the ion-electron system (eV)
  ---------------------------------------------------
  alpha Z        PSCENC =       742.70538554
  Ewald energy   TEWEN  =     95780.90134144
  -Hartree energ DENC   =   -132916.20133265
  -exchange      EXHF   =         0.00000000
  -V(xc)+E(xc)   XCENC  =      -453.14446833
  PAW double counting   =     38681.37191305   -37073.81137181
  entropy T*S    EENTRO =         0.00000000
  eigenvalues    EBANDS =     -1310.66113529
  atomic energy  EATOM  =     36447.31661904
  Solvation  Ediel_sol  =         0.00000000
  ---------------------------------------------------
  free energy    TOTEN  =      -101.52304902 eV

  energy without entropy =     -101.52304902  energy(sigma->0) =     -101.52304902


--------------------------------------------------------------------------------------------------------




 average (electrostatic) potential at core
  the test charge radii are     1.1249  1.2538  0.5201
  (the norm of the test charge is              1.0000)
       1 -78.1339       2 -78.1381       3 -78.1381       4 -78.1381       5 -78.1271
       6 -78.1378       7 -78.1381       8 -78.1378       9 -78.1330      10 -78.3804
      11 -78.3695      12 -78.3802      13 -78.3695      14 -78.3693      15 -78.3483
      16 -78.3803      17 -78.3483      18 -78.3484      19 -78.3576      20 -78.6374
      21 -78.6373      22 -78.3229      23 -78.6374      24 -78.3229      25 -78.3577
      26 -78.3578      27 -78.3229      28 -78.1474      29 -78.2498      30 -78.2498
      31 -78.2499      32 -78.2497      33 -78.2501      34 -78.2499      35 -78.1178
      36 -41.6986      37 -34.4233
 
 
 
 E-fermi :   0.7674     XC(G=0):  -5.9378     alpha+bet : -5.5954

 Fermi energy:         0.7674202416

 k-point     1 :       0.0000    0.0000    0.0000
  band No.  band energies     occupation 
      1      -6.4355      2.00000
      2      -5.6153      2.00000
      3      -5.3617      2.00000
      4      -5.2101      2.00000
      5      -5.1431      2.00000
      6      -5.1431      2.00000
      7      -5.1392      2.00000
      8      -5.1200      2.00000
      9      -5.1200      2.00000
     10      -5.0919      2.00000
     11      -5.0706      2.00000
     12      -5.0609      2.00000
     13      -5.0609      2.00000
     14      -5.0531      2.00000
     15      -5.0496      2.00000
     16      -5.0496      2.00000
     17      -4.9402      2.00000
     18      -4.9402      2.00000
     19      -4.9315      2.00000
     20      -4.8929      2.00000
     21      -4.8785      2.00000
     22      -4.8785      2.00000
     23      -4.7699      2.00000
     24      -4.7398      2.00000
     25      -4.7163      2.00000
     26      -4.7163      2.00000
     27      -4.7003      2.00000
     28      -4.7003      2.00000
     29      -4.6946      2.00000
     30      -4.6647      2.00000
     31      -4.6522      2.00000
     32      -4.6522      2.00000
     33      -4.6364      2.00000
     34      -4.6363      2.00000
     35      -4.6273      2.00000
     36      -4.5772      2.00000
     37      -4.5538      2.00000
     38      -4.5538      2.00000
     39      -4.5244      2.00000
     40      -4.5244      2.00000
     41      -4.3374      2.00000
     42      -4.3365      2.00000
     43      -4.3364      2.00000
     44      -4.3127      2.00000
     45      -4.3126      2.00000
     46      -4.3036      2.00000
     47      -4.2987      2.00000
     48      -4.2987      2.00000
     49      -4.2735      2.00000
     50      -4.2735      2.00000
     51      -4.1653      2.00000
     52      -4.1472      2.00000
     53      -4.1323      2.00000
     54      -4.1125      2.00000
     55      -3.9955      2.00000
     56      -3.9676      2.00000
     57      -3.9675      2.00000
     58      -3.9346      2.00000
     59      -3.9330      2.00000
     60      -3.9330      2.00000
     61      -3.9263      2.00000
     62      -3.9105      2.00000
     63      -3.9105      2.00000
     64      -3.8659      2.00000
     65      -3.8659      2.00000
     66      -3.7804      2.00000
     67      -3.7804      2.00000
     68      -3.7751      2.00000
     69      -3.7686      2.00000
     70      -3.7655      2.00000
     71      -3.7654      2.00000
     72      -3.7521      2.00000
     73      -3.7521      2.00000
     74      -3.7438      2.00000
     75      -3.7412      2.00000
     76      -3.7412      2.00000
     77      -3.7275      2.00000
     78      -3.7105      2.00000
     79      -3.7105      2.00000
     80      -3.6468      2.00000
     81      -3.6467      2.00000
     82      -3.6390      2.00000
     83      -3.6390      2.00000
     84      -3.6255      2.00000
     85      -3.5831      2.00000
     86      -3.5831      2.00000
     87      -3.5473      2.00000
     88      -3.5437      2.00000
     89      -3.5436      2.00000
     90      -3.5313      2.00000
     91      -3.5313      2.00000
     92      -3.4877      2.00000
     93      -3.4876      2.00000
     94      -3.4694      2.00000
     95      -3.4405      2.00000
     96      -3.4405      2.00000
     97      -3.4176      2.00000
     98      -3.4176      2.00000
     99      -3.2457      2.00000
    100      -3.2457      2.00000
    101      -3.2440      2.00000
    102      -3.2205      2.00000
    103      -3.2204      2.00000
    104      -3.1996      2.00000
    105      -3.1958      2.00000
    106      -3.1957      2.00000
    107      -3.1654      2.00000
    108      -3.1370      2.00000
    109      -3.1369      2.00000
    110      -3.1254      2.00000
    111      -3.1168      2.00000
    112      -3.0830      2.00000
    113      -3.0808      2.00000
    114      -3.0808      2.00000
    115      -2.9733      2.00000
    116      -2.9732      2.00000
    117      -2.9410      2.00000
    118      -2.9410      2.00000
    119      -2.9134      2.00000
    120      -2.9134      2.00000
    121      -2.8847      2.00000
    122      -2.8846      2.00000
    123      -2.8805      2.00000
    124      -2.8592      2.00000
    125      -2.8368      2.00000
    126      -2.8368      2.00000
    127      -2.8228      2.00000
    128      -2.8228      2.00000
    129      -2.8202      2.00000
    130      -2.8192      2.00000
    131      -2.8192      2.00000
    132      -2.8190      2.00000
    133      -2.7413      2.00000
    134      -2.7413      2.00000
    135      -2.6807      2.00000
    136      -2.6807      2.00000
    137      -2.6638      2.00000
    138      -2.6461      2.00000
    139      -2.6457      2.00000
    140      -2.6330      2.00000
    141      -2.6330      2.00000
    142      -2.6221      2.00000
    143      -2.6128      2.00000
    144      -2.6128      2.00000
    145      -2.5876      2.00000
    146      -2.5789      2.00000
    147      -2.5788      2.00000
    148      -2.5788      2.00000
    149      -2.5567      2.00000
    150      -2.5384      2.00000
    151      -2.5245      2.00000
    152      -2.5244      2.00000
    153      -2.5134      2.00000
    154      -2.5134      2.00000
    155      -2.4975      2.00000
    156      -2.4881      2.00000
    157      -2.4881      2.00000
    158      -2.4710      2.00000
    159      -2.4385      2.00000
    160      -2.4322      2.00000
    161      -2.4321      2.00000
    162      -2.4158      2.00000
    163      -2.4038      2.00000
    164      -2.4038      2.00000
    165      -2.4026      2.00000
    166      -2.3932      2.00000
    167      -2.3932      2.00000
    168      -2.3874      2.00000
    169      -2.3521      2.00000
    170      -2.3521      2.00000
    171      -2.3279      2.00000
    172      -2.3279      2.00000
    173      -2.3194      2.00000
    174      -2.2612      2.00000
    175      -2.2552      2.00000
    176      -2.2552      2.00000
    177      -2.2305      2.00000
    178      -2.2304      2.00000
    179      -2.2230      2.00000
    180      -2.1372      2.00000
    181      -2.1372      2.00000
    182      -2.1234      2.00000
    183      -2.1234      2.00000
    184      -2.1152      2.00000
    185      -1.7940      2.00000
    186      -1.3937      2.00000
    187      -1.3937      2.00000
    188      -1.3532      2.00000
    189      -1.3531      2.00000
    190      -1.3327      2.00000
    191      -0.9631      2.00000
    192      -0.0766      2.00000
    193       0.1033      2.00000
    194       0.2117      2.00000
    195       0.2117      2.00000
    196       0.3103      2.00000
    197       0.3103      2.00000
    198       0.3931      2.65484
    199       1.0959      0.00000
    200       1.0959      0.00000
    201       1.1827      0.00000
    202       1.3268      0.00000
    203       1.3268      0.00000
    204       2.1641      0.00000
    205       2.6000      0.00000
    206       2.6230      0.00000
    207       2.6231      0.00000
    208       3.1641      0.00000
    209       3.1642      0.00000
    210       3.9579      0.00000
    211       4.0575      0.00000
    212       4.2027      0.00000
    213       4.2027      0.00000
    214       4.2849      0.00000
    215       4.2849      0.00000
    216       4.7672      0.00000
    217       4.9790      0.00000
    218       4.9791      0.00000
    219       4.9893      0.00000
    220       5.0014      0.00000
    221       5.0048      0.00000
    222       5.0048      0.00000
    223       5.1753      0.00000
    224       5.2159      0.00000
    225       5.2214      0.00000
    226       5.2214      0.00000
    227       5.4000      0.00000
    228       5.4000      0.00000
    229       5.4438      0.00000
    230       6.3955      0.00000
    231       6.5409      0.00000
    232       6.6125      0.00000
    233       6.6126      0.00000
    234       6.6659      0.00000
    235       6.7363      0.00000
    236       6.7939      0.00000
    237       6.7940      0.00000
    238       6.9830      0.00000
    239       6.9831      0.00000
    240       7.0130      0.00000
    241       7.0130      0.00000
    242       7.0205      0.00000
    243       7.0630      0.00000
    244       7.2351      0.00000
    245       7.3223      0.00000
    246       7.3238      0.00000
    247       7.3348      0.00000
    248       7.4428      0.00000
    249       7.4450      0.00000
    250       7.5142      0.00000
    251       7.7243      0.00000
    252       7.7673      0.00000

 k-point     2 :       0.1250   -0.0000    0.0000
  band No.  band energies     occupation 
      1      -6.3901      2.00000
      2      -5.5785      2.00000
      3      -5.3398      2.00000
      4      -5.2093      2.00000
      5      -5.1775      2.00000
      6      -5.1352      2.00000
      7      -5.1341      2.00000
      8      -5.1226      2.00000
      9      -5.1029      2.00000
     10      -5.0940      2.00000
     11      -5.0743      2.00000
     12      -5.0538      2.00000
     13      -5.0513      2.00000
     14      -5.0151      2.00000
     15      -4.9973      2.00000
     16      -4.9964      2.00000
     17      -4.9819      2.00000
     18      -4.9607      2.00000
     19      -4.9528      2.00000
     20      -4.8635      2.00000
     21      -4.8450      2.00000
     22      -4.8063      2.00000
     23      -4.7908      2.00000
     24      -4.7660      2.00000
     25      -4.7624      2.00000
     26      -4.7442      2.00000
     27      -4.7246      2.00000
     28      -4.6853      2.00000
     29      -4.6712      2.00000
     30      -4.6643      2.00000
     31      -4.6423      2.00000
     32      -4.6387      2.00000
     33      -4.6277      2.00000
     34      -4.5920      2.00000
     35      -4.5686      2.00000
     36      -4.5582      2.00000
     37      -4.5577      2.00000
     38      -4.5137      2.00000
     39      -4.4667      2.00000
     40      -4.4651      2.00000
     41      -4.3951      2.00000
     42      -4.3892      2.00000
     43      -4.3748      2.00000
     44      -4.3501      2.00000
     45      -4.3449      2.00000
     46      -4.3446      2.00000
     47      -4.3181      2.00000
     48      -4.2720      2.00000
     49      -4.2596      2.00000
     50      -4.2293      2.00000
     51      -4.1567      2.00000
     52      -4.1373      2.00000
     53      -4.1152      2.00000
     54      -4.1129      2.00000
     55      -4.0054      2.00000
     56      -3.9867      2.00000
     57      -3.9738      2.00000
     58      -3.9615      2.00000
     59      -3.9430      2.00000
     60      -3.9386      2.00000
     61      -3.9263      2.00000
     62      -3.9186      2.00000
     63      -3.8957      2.00000
     64      -3.8942      2.00000
     65      -3.8532      2.00000
     66      -3.8346      2.00000
     67      -3.8128      2.00000
     68      -3.8023      2.00000
     69      -3.8011      2.00000
     70      -3.7936      2.00000
     71      -3.7609      2.00000
     72      -3.7523      2.00000
     73      -3.7491      2.00000
     74      -3.7463      2.00000
     75      -3.7230      2.00000
     76      -3.7183      2.00000
     77      -3.7143      2.00000
     78      -3.7055      2.00000
     79      -3.7040      2.00000
     80      -3.6634      2.00000
     81      -3.6510      2.00000
     82      -3.6422      2.00000
     83      -3.6398      2.00000
     84      -3.6379      2.00000
     85      -3.6266      2.00000
     86      -3.6251      2.00000
     87      -3.5995      2.00000
     88      -3.5943      2.00000
     89      -3.5654      2.00000
     90      -3.5344      2.00000
     91      -3.5224      2.00000
     92      -3.4949      2.00000
     93      -3.4947      2.00000
     94      -3.4635      2.00000
     95      -3.4580      2.00000
     96      -3.3664      2.00000
     97      -3.3196      2.00000
     98      -3.3178      2.00000
     99      -3.2922      2.00000
    100      -3.2870      2.00000
    101      -3.2595      2.00000
    102      -3.2543      2.00000
    103      -3.2426      2.00000
    104      -3.2352      2.00000
    105      -3.2136      2.00000
    106      -3.1912      2.00000
    107      -3.1873      2.00000
    108      -3.1550      2.00000
    109      -3.1453      2.00000
    110      -3.1290      2.00000
    111      -3.1170      2.00000
    112      -3.1036      2.00000
    113      -3.0645      2.00000
    114      -3.0590      2.00000
    115      -3.0183      2.00000
    116      -3.0013      2.00000
    117      -2.9986      2.00000
    118      -2.9773      2.00000
    119      -2.9749      2.00000
    120      -2.9615      2.00000
    121      -2.9393      2.00000
    122      -2.9271      2.00000
    123      -2.9107      2.00000
    124      -2.9070      2.00000
    125      -2.8900      2.00000
    126      -2.8800      2.00000
    127      -2.8649      2.00000
    128      -2.8574      2.00000
    129      -2.8395      2.00000
    130      -2.8201      2.00000
    131      -2.8103      2.00000
    132      -2.8098      2.00000
    133      -2.7968      2.00000
    134      -2.7770      2.00000
    135      -2.7646      2.00000
    136      -2.7400      2.00000
    137      -2.7229      2.00000
    138      -2.7092      2.00000
    139      -2.6864      2.00000
    140      -2.6759      2.00000
    141      -2.6633      2.00000
    142      -2.6599      2.00000
    143      -2.6424      2.00000
    144      -2.6309      2.00000
    145      -2.6088      2.00000
    146      -2.5935      2.00000
    147      -2.5838      2.00000
    148      -2.5644      2.00000
    149      -2.5590      2.00000
    150      -2.5546      2.00000
    151      -2.5449      2.00000
    152      -2.5393      2.00000
    153      -2.5279      2.00000
    154      -2.5174      2.00000
    155      -2.5102      2.00000
    156      -2.5012      2.00000
    157      -2.4956      2.00000
    158      -2.4839      2.00000
    159      -2.4730      2.00000
    160      -2.4478      2.00000
    161      -2.4458      2.00000
    162      -2.4294      2.00000
    163      -2.4256      2.00000
    164      -2.3919      2.00000
    165      -2.3914      2.00000
    166      -2.3819      2.00000
    167      -2.3689      2.00000
    168      -2.3597      2.00000
    169      -2.3410      2.00000
    170      -2.3300      2.00000
    171      -2.3200      2.00000
    172      -2.3000      2.00000
    173      -2.2851      2.00000
    174      -2.2834      2.00000
    175      -2.2687      2.00000
    176      -2.2536      2.00000
    177      -2.2303      2.00000
    178      -2.2289      2.00000
    179      -2.2206      2.00000
    180      -2.2174      2.00000
    181      -2.1833      2.00000
    182      -2.0343      2.00000
    183      -1.8282      2.00000
    184      -1.6879      2.00000
    185      -1.6538      2.00000
    186      -1.5839      2.00000
    187      -1.4677      2.00000
    188      -1.2553      2.00000
    189      -0.9768      2.00000
    190      -0.8142      2.00000
    191      -0.6067      2.00000
    192      -0.2795      2.00000
    193      -0.0305      2.00000
    194       0.0294      2.00000
    195       0.0506      2.00000
    196       0.5242      2.00000
    197       0.5527      2.28038
    198       0.8397      0.26004
    199       1.0981      0.00000
    200       1.1216      0.00000
    201       1.2889      0.00000
    202       1.3448      0.00000
    203       1.3513      0.00000
    204       2.1373      0.00000
    205       2.2483      0.00000
    206       2.6194      0.00000
    207       2.9550      0.00000
    208       3.1293      0.00000
    209       3.1516      0.00000
    210       3.2906      0.00000
    211       3.3862      0.00000
    212       4.0730      0.00000
    213       4.0861      0.00000
    214       4.3239      0.00000
    215       4.3243      0.00000
    216       4.4400      0.00000
    217       4.6535      0.00000
    218       4.8591      0.00000
    219       5.0038      0.00000
    220       5.0453      0.00000
    221       5.1225      0.00000
    222       5.2083      0.00000
    223       5.2240      0.00000
    224       5.2647      0.00000
    225       5.3214      0.00000
    226       5.4466      0.00000
    227       5.5036      0.00000
    228       5.7103      0.00000
    229       5.7769      0.00000
    230       6.1285      0.00000
    231       6.3879      0.00000
    232       6.4219      0.00000
    233       6.5208      0.00000
    234       6.5746      0.00000
    235       6.5942      0.00000
[...]
  0.000   0.000   0.000   0.000   0.000   0.000   0.000   0.000   0.000   0.000   0.000   0.000   0.000   0.000   0.000   0.000
  0.000   0.000   0.000   0.000   0.000   0.000   0.000   0.000   0.000   0.000   0.000   0.000   0.000   0.000   0.000   0.000
  0.000   0.000   0.000   0.000   0.000   0.000   0.000   0.000   0.000   0.000   0.000   0.000   0.000   0.000   0.000   0.000
  0.000   0.000   0.000   0.000   0.000   0.000   0.000   0.000   0.000   0.000   0.000   0.000   0.000   0.000   0.000   0.000
  0.000   0.000   0.000   0.000   0.000   0.000   0.000   0.000   0.000   0.000   0.000   0.000   0.000   0.000   0.000   0.000
  0.000   0.000   0.000   0.000   0.000   0.000   0.000   0.000   0.000   0.000   1.000   0.000   0.000   0.000   0.000   0.000
  0.000   0.000   0.000   0.000   0.000   0.000   0.000   0.000   0.000   0.000   0.000   0.000   0.000   0.000   0.000   0.000
  0.000   0.000   0.000   0.000   0.000   0.000   0.000   0.000   0.000   0.000   0.000   0.000   0.000   0.000   0.000   0.000
  0.000   0.000   0.000   0.000   0.000   0.000   0.000   0.000   0.000   0.000   0.000   0.000   0.000   0.000   0.000   0.000
  0.000   0.000   0.000   0.000   0.000   0.000   0.000   0.000   0.000   0.000   0.000   0.000   0.000   0.000   0.000   0.000
  0.000   0.000   0.000   0.000   0.000   0.000   0.000   0.000   0.000   0.000   0.000   0.000   0.000   0.000   0.000   0.000
  0.000   0.000   0.000   0.000   0.000   0.000   0.000   0.000   0.000   0.000   0.000   0.000   0.000   0.000   0.000   0.000
  0.000   0.000   0.000   0.000   0.000   0.000   0.000   0.000   0.000   0.000   0.000   0.000   0.000   0.000   0.000   0.000


------------------------ aborting loop because EDIFF is reached ----------------------------------------





 total charge

# of ion       s       p       d       tot
------------------------------------------
    1        0.424   0.199   9.179   9.802
    2        0.414   0.204   9.178   9.796
    3        0.414   0.204   9.178   9.796
    4        0.414   0.204   9.178   9.796
    5        0.420   0.201   9.176   9.797
    6        0.414   0.204   9.178   9.796
    7        0.414   0.204   9.178   9.796
    8        0.414   0.204   9.178   9.796
    9        0.418   0.203   9.177   9.797
   10        0.412   0.269   9.162   9.843
   11        0.404   0.270   9.169   9.843
   12        0.412   0.269   9.162   9.843
   13        0.404   0.270   9.169   9.843
   14        0.404   0.270   9.169   9.843
   15        0.404   0.267   9.166   9.837
   16        0.412   0.269   9.162   9.843
   17        0.404   0.267   9.166   9.837
   18        0.404   0.267   9.166   9.837
   19        0.401   0.262   9.167   9.831
   20        0.451   0.305   9.129   9.885
   21        0.451   0.305   9.129   9.885
   22        0.393   0.272   9.165   9.830
   23        0.451   0.305   9.129   9.885
   24        0.393   0.272   9.165   9.830
   25        0.401   0.262   9.167   9.831
   26        0.401   0.262   9.167   9.831
   27        0.393   0.272   9.165   9.830
   28        0.408   0.200   9.173   9.781
   29        0.446   0.219   9.146   9.811
   30        0.446   0.219   9.146   9.811
   31        0.446   0.219   9.146   9.811
   32        0.446   0.219   9.146   9.811
   33        0.446   0.219   9.146   9.811
   34        0.446   0.219   9.146   9.811
   35        0.402   0.201   9.176   9.779
   36        0.685   0.574   2.912   4.170
   37        0.535   0.009   0.000   0.545
--------------------------------------------------
tot         15.844   9.062 323.609 348.515
 
    CHARGE:  cpu time    0.3130: real time    0.3131
    FORLOC:  cpu time    0.0100: real time    0.0100
    FORNL :  cpu time    1.4861: real time    1.4862
    STRESS:  cpu time    4.4489: real time    4.4492
    FORCOR:  cpu time    0.0408: real time    0.0409
    FORHAR:  cpu time    0.0165: real time    0.0166
    OFIELD:  cpu time    0.0002: real time    0.0002

  FORCE on cell =-STRESS in cart. coord.  units (eV):
  Direction    XX          YY          ZZ          XY          YZ          ZX
  --------------------------------------------------------------------------------------
  Alpha Z   742.70539   742.70539   742.70539
  Ewald  118154.76841118154.76829************    -0.00002    -0.00001    -0.00002
  Hartree128136.70040128136.70034************    -0.00001    -0.00001    -0.00001
  E(xc)   -2052.66970 -2052.66969 -2059.62324    -0.00001     0.00000     0.00000
  Local  ************************257420.95259     0.00023    -0.00002    -0.00004
  n-local  -327.51618  -310.10455  -322.10391    10.40299    -0.58649     0.63158
  augment  3220.76721  3220.76733  3234.79498    -0.00012     0.00004     0.00001
  Kinetic  4822.32183  4823.91394  4861.23711     3.05269     0.57968    -0.16801
  Fock        0.00000     0.00000     0.00000     0.00000     0.00000     0.00000
  -------------------------------------------------------------------------------------
  Total      -8.59200    -8.59200     0.43879    -0.00000     0.00000     0.00000
  in kB      -9.27335    -9.27335     0.47359    -0.00000     0.00000     0.00000
  external pressure =       -6.02 kB  Pullay stress =        0.00 kB


 VOLUME and BASIS-vectors are now :
 -----------------------------------------------------------------------------
  energy-cutoff  :      500.00
  volume of cell :     1484.46
      direct lattice vectors                 reciprocal lattice vectors
     8.791366577  0.000000000  0.000000000     0.113747958 -0.065672414  0.000000000
     4.395683289  7.613546790  0.000000000     0.000000000  0.131344829  0.000000000
     0.000000000  0.000000000 22.178121567     0.000000000  0.000000000  0.045089481

  length of vectors
     8.791366577  8.791366577 22.178121567     0.131344829  0.131344829  0.045089481


 FORCES acting on ions
    electron-ion (+dipol)            ewald-force                    non-local-force                 convergence-correction
 -----------------------------------------------------------------------------------------------
   0.460E-04 -.282E-04 0.247E+04   -.953E-04 0.593E-04 -.247E+04   0.707E-17 0.104E-16 -.181E+01   -.115E-03 -.127E-03 -.245E-01
   -.129E+00 -.928E-01 0.247E+04   0.643E-01 -.113E+00 -.247E+04   0.254E-01 0.188E+00 -.166E+01   0.409E-01 0.808E-02 0.613E-01
   0.129E+00 -.928E-01 0.247E+04   -.642E-01 -.113E+00 -.247E+04   -.254E-01 0.188E+00 -.166E+01   -.415E-01 0.998E-02 0.620E-01
   -.145E+00 -.657E-01 0.247E+04   -.656E-01 0.112E+00 -.247E+04   0.176E+00 -.720E-01 -.166E+01   0.276E-01 0.316E-01 0.613E-01
   -.803E-05 -.201E-04 0.247E+04   0.980E-04 -.197E-05 -.247E+04   0.362E-17 0.133E-17 -.126E+01   0.622E-02 0.379E-02 0.588E-01
   0.145E+00 -.656E-01 0.247E+04   0.655E-01 0.112E+00 -.247E+04   -.176E+00 -.720E-01 -.166E+01   -.290E-01 0.325E-01 0.621E-01
   -.157E-01 0.158E+00 0.247E+04   -.130E+00 0.720E-03 -.247E+04   0.150E+00 -.116E+00 -.166E+01   -.117E-01 -.404E-01 0.620E-01
   0.157E-01 0.158E+00 0.247E+04   0.130E+00 0.614E-03 -.247E+04   -.150E+00 -.116E+00 -.166E+01   0.133E-01 -.414E-01 0.621E-01
   0.364E-04 -.131E-04 0.247E+04   0.792E-04 -.643E-04 -.247E+04   -.175E-17 -.117E-18 -.162E+01   -.664E-02 -.344E-02 0.849E-01
   0.199E+01 0.115E+01 0.794E+03   -.170E+01 -.982E+00 -.793E+03   -.379E+00 -.219E+00 -.639E+00   0.377E-01 0.220E-01 0.427E+00
   -.281E-04 0.655E+00 0.790E+03   0.399E-04 -.764E+00 -.790E+03   0.526E-12 0.802E-01 -.184E+00   0.620E-02 -.267E-01 0.392E+00
   -.199E+01 0.115E+01 0.794E+03   0.170E+01 -.981E+00 -.793E+03   0.379E+00 -.219E+00 -.639E+00   -.393E-01 0.229E-01 0.427E+00
   0.567E+00 -.327E+00 0.790E+03   -.661E+00 0.382E+00 -.790E+03   0.694E-01 -.401E-01 -.184E+00   -.202E-01 0.187E-01 0.393E+00
   -.567E+00 -.327E+00 0.790E+03   0.661E+00 0.382E+00 -.790E+03   -.694E-01 -.401E-01 -.184E+00   0.307E-01 0.176E-01 0.391E+00
   0.154E-04 -.257E+00 0.792E+03   -.108E-03 0.112E+00 -.792E+03   0.492E-12 0.749E-01 -.681E+00   -.156E-02 0.524E-01 0.395E+00
   -.825E-05 -.230E+01 0.794E+03   0.204E-04 0.196E+01 -.793E+03   0.287E-11 0.437E+00 -.639E+00   -.175E-03 -.453E-01 0.426E+00
   -.222E+00 0.128E+00 0.792E+03   0.972E-01 -.562E-01 -.792E+03   0.648E-01 -.374E-01 -.681E+00   0.449E-01 -.276E-01 0.394E+00
   0.222E+00 0.128E+00 0.792E+03   -.973E-01 -.561E-01 -.792E+03   -.648E-01 -.374E-01 -.681E+00   -.448E-01 -.258E-01 0.395E+00
   0.384E-04 -.540E+01 -.899E+03   -.125E-03 0.535E+01 0.898E+03   0.303E-12 0.461E-01 0.897E+00   0.431E-02 -.441E-02 0.589E+00
   -.296E+02 -.171E+02 -.912E+03   0.306E+02 0.177E+02 0.912E+03   -.119E+01 -.684E+00 -.980E+00   0.691E-01 0.403E-01 0.788E+00
   0.296E+02 -.171E+02 -.912E+03   -.306E+02 0.177E+02 0.912E+03   0.119E+01 -.684E+00 -.980E+00   -.599E-01 0.400E-01 0.788E+00
   -.153E+02 0.881E+01 -.899E+03   0.151E+02 -.872E+01 0.898E+03   0.203E+00 -.117E+00 0.472E+00   -.732E-02 0.987E-02 0.560E+00
   -.494E-04 0.341E+02 -.912E+03   0.364E-04 -.353E+02 0.912E+03   0.899E-11 0.137E+01 -.980E+00   -.754E-03 -.812E-01 0.787E+00
   0.153E+02 0.881E+01 -.899E+03   -.151E+02 -.872E+01 0.898E+03   -.203E+00 -.117E+00 0.472E+00   0.176E-01 0.960E-02 0.560E+00
   0.468E+01 0.270E+01 -.899E+03   -.463E+01 -.267E+01 0.898E+03   -.399E-01 -.230E-01 0.897E+00   0.102E-01 0.696E-02 0.588E+00
   -.468E+01 0.270E+01 -.899E+03   0.463E+01 -.267E+01 0.898E+03   0.399E-01 -.230E-01 0.897E+00   -.121E-02 0.706E-02 0.589E+00
   0.192E-04 -.176E+02 -.899E+03   0.110E-03 0.174E+02 0.898E+03   0.154E-11 0.235E+00 0.472E+00   0.431E-02 -.114E-01 0.561E+00
   0.534E-04 -.355E-04 -.248E+04   -.113E-03 0.760E-04 0.248E+04   0.823E-18 0.119E-17 0.168E+01   0.324E-04 0.158E-02 0.173E+00
   -.216E+02 -.428E+02 -.249E+04   0.225E+02 0.441E+02 0.249E+04   -.115E+01 -.157E+01 0.121E+01   0.162E+00 0.227E+00 0.318E+00
   0.216E+02 -.428E+02 -.249E+04   -.225E+02 0.441E+02 0.249E+04   0.115E+01 -.157E+01 0.121E+01   -.162E+00 0.229E+00 0.318E+00
   -.479E+02 0.270E+01 -.249E+04   0.494E+02 -.251E+01 0.249E+04   -.193E+01 -.209E+00 0.121E+01   0.272E+00 0.167E-01 0.318E+00
   0.479E+02 0.270E+01 -.249E+04   -.494E+02 -.251E+01 0.249E+04   0.193E+01 -.209E+00 0.121E+01   -.283E+00 0.174E-01 0.318E+00
   -.263E+02 0.401E+02 -.249E+04   0.269E+02 -.416E+02 0.249E+04   -.785E+00 0.178E+01 0.121E+01   0.116E+00 -.253E+00 0.318E+00
   0.263E+02 0.401E+02 -.249E+04   -.269E+02 -.416E+02 0.249E+04   0.785E+00 0.178E+01 0.121E+01   -.115E+00 -.254E+00 0.319E+00
   0.272E-04 -.139E-04 -.249E+04   0.103E-03 -.645E-04 0.248E+04   -.300E-17 -.683E-18 0.192E+01   -.639E-02 -.197E-02 0.233E+00
   -.244E-04 -.228E-05 -.107E+04   0.479E-04 0.590E-05 0.107E+04   -.392E-17 -.414E-18 -.159E+01   0.654E-03 -.168E-03 0.248E+00
   0.517E-05 -.413E-05 -.260E+03   0.482E-05 0.658E-07 0.262E+03   -.580E-19 -.396E-19 -.212E+01   0.120E-03 -.186E-04 -.714E-01
 -----------------------------------------------------------------------------------------------
   0.291E-03 -.713E-03 -.150E+01   -.167E-13 0.181E-12 -.779E-11   0.548E-15 -.445E-15 -.108E+02   0.333E-01 0.769E-02 0.124E+02
 
 
 POSITION                                       TOTAL-FORCE (eV/Angst)
 -----------------------------------------------------------------------------------
      0.00000      0.00000      5.28219         0.000000     -0.000000     -0.037316
      2.93046      0.00000      5.28219         0.002010     -0.008576      0.038283
      5.86091      0.00000      5.28219        -0.002010     -0.008576      0.038283
      1.46523      2.53785      5.28219        -0.006422      0.006028      0.038283
      4.39568      2.53785      5.28219        -0.000000     -0.000000      0.020341
      7.32614      2.53785      5.28219         0.006422      0.006028      0.038283
      2.93046      5.07570      5.28219        -0.008432      0.002548      0.038283
      5.86091      5.07570      5.28219         0.008432      0.002548      0.038283
      8.79137      5.07570      5.28219         0.000000     -0.000000      0.001635
      1.46523      0.84595      7.67490        -0.050732     -0.029290     -0.061200
      4.39568      0.84595      7.67490        -0.000000     -0.058174     -0.076367
      7.32614      0.84595      7.67490         0.050732     -0.029290     -0.061200
      2.93046      3.38380      7.67490        -0.050380      0.029087     -0.076367
      5.86091      3.38380      7.67490         0.050380      0.029087     -0.076367
      8.79137      3.38380      7.67490        -0.000000     -0.017401      0.030726
      4.39568      5.92165      7.67490         0.000000      0.058580     -0.061200
      7.32614      5.92165      7.67490        -0.015070      0.008701      0.030726
     10.25659      5.92165      7.67490         0.015070      0.008701      0.030726
      8.79137      1.69476     10.06939        -0.000000     -0.017565      0.000245
      2.92162      1.68680     10.02387        -0.116285     -0.067137     -0.113655
      5.86975      1.68680     10.02387         0.116285     -0.067137     -0.113655
     10.25272      4.23198     10.06895         0.042538     -0.024560      0.026942
      4.39568      4.23995     10.02387         0.000000      0.134274     -0.113655
      7.33001      4.23198     10.06895        -0.042538     -0.024560      0.026942
     11.71935      6.76617     10.06939         0.015212      0.008783      0.000245
      5.86339      6.76617     10.06939        -0.015212      0.008783      0.000245
      8.79137      6.76312     10.06895         0.000000      0.049119      0.026942
      0.00000      0.00000     12.45783         0.000000     -0.000000      0.029627
      2.95723      0.04373     12.49962        -0.028071     -0.071592     -0.078243
      5.83413      0.04373     12.49962         0.028071     -0.071592     -0.078243
      1.51649      2.53918     12.49962        -0.076036      0.011486     -0.078243
      7.27488      2.53918     12.49962         0.076036      0.011486     -0.078243
      2.95494      5.03064     12.49962        -0.047965      0.060106     -0.078243
      5.83643      5.03064     12.49962         0.047965      0.060106     -0.078243
      8.79137      5.07570     12.47105        -0.000000     -0.000000      0.039314
      4.39568      2.53785     12.22632        -0.000000     -0.000000      0.749524
      4.39568      2.53785     14.00309         0.000000     -0.000000      0.016560
 -----------------------------------------------------------------------------------
    total drift:                                0.033622      0.006976      0.092142


--------------------------------------------------------------------------------------------------------



  FREE ENERGIE OF THE ION-ELECTRON SYSTEM (eV)
  ---------------------------------------------------
  free  energy   TOTEN  =      -101.52304902 eV

  energy  without entropy=     -101.52304902  energy(sigma->0) =     -101.52304902
 


--------------------------------------------------------------------------------------------------------


    POTLOK:  cpu time    0.0424: real time    0.0424


--------------------------------------------------------------------------------------------------------


 stress matrix after NEB project (eV)
     -8.59200     -0.00000      0.00000
     -0.00000     -8.59200      0.00000
      0.00000      0.00000      0.43879
  FORCES: max atom, RMS     0.016560    0.002722
  FORCE total and by dimension    0.016560    0.016560
  Stress total and by dimension   12.158845    8.592002
     LOOP+:  cpu time   64.5536: real time   64.5646
 -----------------------------------------------------------------------------
|                                                                             |
|           W    W    AA    RRRRR   N    N  II  N    N   GGGG   !!!           |
|           W    W   A  A   R    R  NN   N  II  NN   N  G    G  !!!           |
|           W    W  A    A  R    R  N N  N  II  N N  N  G       !!!           |
|           W WW W  AAAAAA  RRRRR   N  N N  II  N  N N  G  GGG   !            |
|           WW  WW  A    A  R   R   N   NN  II  N   NN  G    G                |
|           W    W  A    A  R    R  N    N  II  N    N   GGGG   !!!           |
|                                                                             |
|     Tetrahedron method does not include variations of the Fermi             |
|     occupations, so forces and stress will be inaccurate. We suggest        |
|     using a different smearing scheme ISMEAR = 1 or 2 for metals in         |
|     relaxations.                                                            |
|                                                                             |
 -----------------------------------------------------------------------------

    4ORBIT:  cpu time    0.0000: real time    0.0000



 total charge

# of ion       s       p       d       tot
------------------------------------------
    1        0.424   0.199   9.179   9.802
    2        0.414   0.204   9.178   9.796
    3        0.414   0.204   9.178   9.796
    4        0.414   0.204   9.178   9.796
    5        0.420   0.201   9.176   9.797
    6        0.414   0.204   9.178   9.796
    7        0.414   0.204   9.178   9.796
    8        0.414   0.204   9.178   9.796
    9        0.418   0.203   9.177   9.797
   10        0.412   0.269   9.162   9.843
   11        0.404   0.270   9.169   9.843
   12        0.412   0.269   9.162   9.843
   13        0.404   0.270   9.169   9.843
   14        0.404   0.270   9.169   9.843
   15        0.404   0.267   9.166   9.837
   16        0.412   0.269   9.162   9.843
   17        0.404   0.267   9.166   9.837
   18        0.404   0.267   9.166   9.837
   19        0.401   0.262   9.167   9.831
   20        0.451   0.305   9.129   9.885
   21        0.451   0.305   9.129   9.885
   22        0.393   0.272   9.165   9.830
   23        0.451   0.305   9.129   9.885
   24        0.393   0.272   9.165   9.830
   25        0.401   0.262   9.167   9.831
   26        0.401   0.262   9.167   9.831
   27        0.393   0.272   9.165   9.830
   28        0.408   0.200   9.173   9.781
   29        0.446   0.219   9.146   9.811
   30        0.446   0.219   9.146   9.811
   31        0.446   0.219   9.146   9.811
   32        0.446   0.219   9.146   9.811
   33        0.446   0.219   9.146   9.811
   34        0.446   0.219   9.146   9.811
   35        0.402   0.201   9.176   9.779
   36        0.685   0.574   2.912   4.170
   37        0.535   0.009   0.000   0.545
--------------------------------------------------
tot         15.844   9.062 323.609 348.515
 
 BZINTS: Fermi energy:    0.767420;  391.000000 electrons
         Band energy:-0.131066E+04;  BLOECHL correction:   -0.023349

 total amount of memory used by VASP MPI-rank0   123696. kBytes
=======================================================================

   base      :      30000. kBytes
   nonlr-proj:      15593. kBytes
   fftplans  :       4330. kBytes
   grid      :      17879. kBytes
   one-center:        575. kBytes
   wavefun   :      55319. kBytes
 
  
  
 General timing and accounting informations for this job:
 ========================================================
  
                  Total CPU time used (sec):       71.891
                            User time (sec):       69.055
                          System time (sec):        2.835
                         Elapsed time (sec):       72.207
  
                   Maximum memory used (kb):      384092.
                   Average memory used (kb):          N/A
  
                          Minor page faults:        68252
                          Major page faults:            0
                 Voluntary context switches:         4264
