PROCAR new format
# of k-points:   10         # of bands:  252         # of ions:   37

 k-point     1 :    0.00000000 0.00000000 0.00000000     weight = 0.01562500

band     1 # energy   -6.43553801 # occ.  2.00000000
 
ion      s      p      d    tot
    1  0.005  0.001  0.000  0.006
    2  0.005  0.000  0.000  0.005
    3  0.005  0.000  0.000  0.005
    4  0.005  0.000  0.000  0.005
    5  0.005  0.000  0.000  0.005
    6  0.005  0.000  0.000  0.005
    7  0.005  0.000  0.000  0.005
    8  0.005  0.000  0.000  0.005
    9  0.005  0.000  0.000  0.005
   10  0.021  0.000  0.000  0.021
   11  0.021  0.000  0.000  0.021
   12  0.021  0.000  0.000  0.021
   13  0.021  0.000  0.000  0.021
   14  0.021  0.000  0.000  0.021
   15  0.019  0.000  0.000  0.019
   16  0.021  0.000  0.000  0.021
   17  0.019  0.000  0.000  0.019
   18  0.019  0.000  0.000  0.019
   19  0.021  0.000  0.001  0.022
   20  0.030  0.000  0.001  0.031
   21  0.030  0.000  0.001  0.031
   22  0.021  0.000  0.000  0.022
   23  0.030  0.000  0.001  0.031
   24  0.021  0.000  0.000  0.022
   25  0.021  0.000  0.001  0.022
   26  0.021  0.000  0.001  0.022
   27  0.021  0.000  0.000  0.022
   28  0.006  0.000  0.000  0.006
   29  0.007  0.001  0.000  0.009
   30  0.007  0.001  0.000  0.009
   31  0.007  0.001  0.000  0.009
   32  0.007  0.001  0.000  0.009
   33  0.007  0.001  0.000  0.009
   34  0.007  0.001  0.000  0.009
   35  0.006  0.000  0.000  0.006
   36  0.033  0.002  0.000  0.035
   37  0.001  0.000  0.000  0.001
tot    0.533  0.013  0.012  0.558
 
band     2 # energy   -5.61529843 # occ.  2.00000000
 
ion      s      p      d    tot
    1  0.008  0.000  0.001  0.009
    2  0.010  0.001  0.001  0.011
    3  0.010  0.001  0.001  0.011
    4  0.010  0.001  0.001  0.011
    5  0.010  0.001  0.000  0.011
    6  0.010  0.000  0.001  0.011
    7  0.010  0.000  0.001  0.011
    8  0.010  0.000  0.001  0.011
    9  0.011  0.001  0.000  0.012
   10  0.011  0.001  0.012  0.024
   11  0.014  0.001  0.008  0.022
   12  0.011  0.001  0.012  0.024
   13  0.014  0.001  0.008  0.022
   14  0.014  0.001  0.008  0.022
   15  0.016  0.001  0.007  0.023
   16  0.011  0.001  0.012  0.024
   17  0.016  0.001  0.007  0.023
   18  0.016  0.001  0.007  0.023
   19  0.003  0.001  0.007  0.011
   20  0.011  0.003  0.014  0.028
   21  0.011  0.003  0.014  0.028
   22  0.002  0.001  0.006  0.009
   23  0.011  0.003  0.014  0.028
   24  0.002  0.001  0.006  0.009
   25  0.003  0.001  0.007  0.011
   26  0.003  0.001  0.007  0.011
   27  0.002  0.001  0.006  0.009
   28  0.006  0.000  0.002  0.008
   29  0.011  0.001  0.007  0.018
   30  0.011  0.001  0.007  0.018
   31  0.011  0.001  0.007  0.018
   32  0.011  0.001  0.007  0.018
   33  0.011  0.001  0.007  0.018
   34  0.011  0.001  0.007  0.018
   35  0.005  0.000  0.002  0.007
   36  0.073  0.001  0.000  0.074
   37  0.005  0.000  0.000  0.005
tot    0.411  0.030  0.211  0.652
 
band     3 # energy   -5.36170300 # occ.  2.00000000
 
ion      s      p      d    tot
    1  0.000  0.000  0.006  0.006
    2  0.000  0.000  0.002  0.002
    3  0.000  0.000  0.002  0.002
    4  0.000  0.000  0.002  0.002
    5  0.001  0.000  0.001  0.001
    6  0.000  0.000  0.002  0.002
    7  0.000  0.000  0.002  0.002
    8  0.000  0.000  0.002  0.002
    9  0.001  0.000  0.001  0.002
   10  0.003  0.000  0.019  0.022
   11  0.001  0.000  0.020  0.021
   12  0.003  0.000  0.019  0.022
   13  0.001  0.000  0.020  0.021
   14  0.001  0.000  0.020  0.021
   15  0.000  0.000  0.011  0.011
   16  0.003  0.000  0.019  0.022
   17  0.000  0.000  0.011  0.011
   18  0.000  0.000  0.011  0.011
   19  0.009  0.000  0.022  0.031
   20  0.001  0.000  0.079  0.081
   21  0.001  0.000  0.079  0.081
   22  0.009  0.000  0.018  0.027
   23  0.001  0.000  0.079  0.081
   24  0.009  0.000  0.018  0.027
   25  0.009  0.000  0.022  0.031
   26  0.009  0.000  0.022  0.031
   27  0.009  0.000  0.018  0.027
   28  0.000  0.000  0.010  0.010
   29  0.004  0.000  0.021  0.026
   30  0.004  0.000  0.021  0.026
   31  0.004  0.000  0.021  0.026
   32  0.004  0.000  0.021  0.026
   33  0.004  0.000  0.021  0.026
   34  0.004  0.000  0.021  0.026
   35  0.000  0.000  0.009  0.010
   36  0.050  0.000  0.003  0.053
   37  0.002  0.000  0.000  0.002
tot    0.147  0.006  0.681  0.834
 
band     4 # energy   -5.21005842 # occ.  2.00000000
 
ion      s      p      d    tot
    1  0.016  0.001  0.002  0.019
    2  0.004  0.000  0.009  0.013
    3  0.004  0.000  0.009  0.013
    4  0.004  0.000  0.009  0.013
    5  0.001  0.000  0.007  0.008
    6  0.004  0.000  0.009  0.013
    7  0.004  0.000  0.009  0.013
    8  0.004  0.000  0.009  0.013
    9  0.002  0.000  0.006  0.008
   10  0.004  0.000  0.027  0.031
   11  0.000  0.000  0.006  0.007
   12  0.004  0.000  0.027  0.031
   13  0.000  0.000  0.006  0.007
   14  0.000  0.000  0.006  0.007
   15  0.002  0.001  0.000  0.004
   16  0.004  0.000  0.027  0.031
   17  0.002  0.001  0.000  0.004
   18  0.002  0.001  0.000  0.004
   19  0.000  0.001  0.029  0.030
   20  0.003  0.000  0.107  0.110
   21  0.003  0.000  0.106  0.110
   22  0.014  0.000  0.003  0.017
   23  0.003  0.000  0.107  0.110
   24  0.014  0.000  0.003  0.017
   25  0.000  0.001  0.029  0.030
   26  0.000  0.001  0.029  0.030
   27  0.014  0.000  0.003  0.017
   28  0.004  0.000  0.000  0.004
   29  0.003  0.000  0.004  0.008
   30  0.003  0.000  0.004  0.008
   31  0.003  0.000  0.004  0.008
   32  0.003  0.000  0.004  0.008
   33  0.003  0.000  0.004  0.008
   34  0.003  0.000  0.004  0.008
   35  0.012  0.001  0.000  0.013
   36  0.005  0.003  0.019  0.027
   37  0.001  0.000  0.000  0.001
tot    0.155  0.015  0.631  0.801
 
band     5 # energy   -5.14308382 # occ.  2.00000000
 
ion      s      p      d    tot
    1  0.000  0.000  0.007  0.007
    2  0.000  0.000  0.002  0.002
    3  0.000  0.000  0.002  0.002
    4  0.001  0.000  0.002  0.003
    5  0.000  0.000  0.004  0.004
    6  0.000  0.000  0.002  0.002
    7  0.001  0.000  0.002  0.003
    8  0.000  0.000  0.002  0.002
    9  0.000  0.000  0.002  0.002
   10  0.002  0.001  0.021  0.023
   11  0.000  0.000  0.029  0.029
   12  0.005  0.001  0.019  0.025
   13  0.000  0.000  0.020  0.020
   14  0.000  0.000  0.027  0.027
   15  0.001  0.000  0.009  0.010
   16  0.001  0.001  0.021  0.023
   17  0.005  0.001  0.010  0.016
   18  0.002  0.000  0.009  0.011
   19  0.004  0.001  0.031  0.036
   20  0.007  0.000  0.130  0.137
   21  0.021  0.000  0.013  0.034
   22  0.000  0.000  0.033  0.034
   23  0.004  0.000  0.153  0.157
   24  0.000  0.001  0.033  0.034
   25  0.007  0.001  0.033  0.040
   26  0.021  0.000  0.039  0.061
   27  0.000  0.001  0.033  0.035
   28  0.000  0.000  0.005  0.005
   29  0.000  0.000  0.007  0.007
   30  0.001  0.000  0.003  0.004
   31  0.000  0.000  0.005  0.006
   32  0.000  0.000  0.003  0.004
   33  0.000  0.000  0.006  0.006
   34  0.000  0.000  0.007  0.008
   35  0.000  0.000  0.000  0.000
   36  0.000  0.002  0.007  0.009
   37  0.000  0.000  0.000  0.000
tot    0.082  0.013  0.732  0.827
 
band     6 # energy   -5.14306008 # occ.  2.00000000
 
ion      s      p      d    tot
    1  0.000  0.000  0.007  0.007
    2  0.001  0.000  0.002  0.003
    3  0.000  0.000  0.002  0.003
    4  0.000  0.000  0.002  0.002
    5  0.000  0.000  0.004  0.004
    6  0.000  0.000  0.002  0.002
    7  0.000  0.000  0.002  0.002
    8  0.000  0.000  0.002  0.003
    9  0.000  0.000  0.002  0.002
   10  0.003  0.001  0.020  0.024
   11  0.000  0.000  0.022  0.022
   12  0.000  0.001  0.022  0.023
   13  0.000  0.000  0.030  0.031
   14  0.000  0.000  0.023  0.024
   15  0.004  0.000  0.010  0.014
   16  0.004  0.001  0.019  0.024
   17  0.000  0.000  0.009  0.009
   18  0.003  0.000  0.010  0.014
   19  0.017  0.001  0.037  0.055
   20  0.014  0.000  0.067  0.082
   21  0.000  0.000  0.184  0.184
   22  0.000  0.001  0.033  0.035
   23  0.017  0.000  0.044  0.061
   24  0.000  0.001  0.033  0.034
   25  0.015  0.001  0.036  0.052
   26  0.000  0.001  0.030  0.031
   27  0.000  0.001  0.033  0.034
   28  0.000  0.000  0.005  0.005
   29  0.000  0.000  0.004  0.004
   30  0.000  0.000  0.007  0.008
   31  0.000  0.000  0.005  0.006
   32  0.000  0.000  0.007  0.008
   33  0.000  0.000  0.004  0.005
   34  0.000  0.000  0.003  0.004
   35  0.000  0.000  0.000  0.000
   36  0.000  0.002  0.007  0.009
   37  0.000  0.000  0.000  0.000
tot    0.082  0.013  0.732  0.827
 
band     7 # energy   -5.13921491 # occ.  2.00000000
 
ion      s      p      d    tot
    1  0.010  0.000  0.012  0.022
    2  0.010  0.000  0.023  0.033
    3  0.010  0.000  0.023  0.033
    4  0.010  0.000  0.023  0.033
    5  0.015  0.000  0.031  0.046
    6  0.010  0.000  0.023  0.033
    7  0.010  0.000  0.023  0.033
    8  0.010  0.000  0.023  0.033
    9  0.007  0.000  0.021  0.028
   10  0.000  0.001  0.006  0.008
   11  0.002  0.000  0.039  0.041
   12  0.000  0.001  0.006  0.008
   13  0.002  0.000  0.039  0.041
   14  0.002  0.000  0.039  0.041
   15  0.002  0.000  0.026  0.028
   16  0.000  0.001  0.006  0.008
   17  0.002  0.000  0.026  0.027
   18  0.002  0.000  0.026  0.027
   19  0.003  0.000  0.007  0.010
   20  0.001  0.000  0.050  0.051
   21  0.001  0.000  0.050  0.051
   22  0.001  0.000  0.010  0.011
   23  0.001  0.000  0.050  0.051
   24  0.001  0.000  0.010  0.011
   25  0.003  0.000  0.007  0.010
   26  0.003  0.000  0.007  0.010
   27  0.001  0.000  0.010  0.011
   28  0.001  0.000  0.000  0.001
   29  0.000  0.000  0.008  0.009
   30  0.000  0.000  0.008  0.009
   31  0.000  0.000  0.008  0.009
   32  0.000  0.000  0.008  0.009
   33  0.000  0.000  0.008  0.009
   34  0.000  0.000  0.008  0.009
   35  0.000  0.000  0.000  0.001
   36  0.006  0.000  0.006  0.012
   37  0.000  0.000  0.000  0.000
tot    0.130  0.007  0.669  0.806
 
band     8 # energy   -5.12000522 # occ.  2.00000000
 
ion      s      p      d    tot
    1  0.000  0.000  0.007  0.007
    2  0.001  0.001  0.003  0.005
    3  0.002  0.001  0.007  0.009
    4  0.000  0.000  0.005  0.005
    5  0.000  0.000  0.008  0.009
    6  0.001  0.001  0.007  0.009
    7  0.000  0.000  0.003  0.003
    8  0.001  0.000  0.002  0.004
    9  0.000  0.000  0.000  0.000
   10  0.008  0.001  0.046  0.054
   11  0.029  0.001  0.028  0.057
   12  0.000  0.000  0.097  0.097
   13  0.001  0.001  0.084  0.085
   14  0.020  0.001  0.044  0.065
   15  0.004  0.000  0.031  0.035
   16  0.011  0.001  0.025  0.036
   17  0.000  0.001  0.007  0.009
   18  0.003  0.001  0.024  0.027
   19  0.000  0.000  0.014  0.015
   20  0.011  0.001  0.038  0.050
   21  0.000  0.001  0.031  0.032
   22  0.000  0.000  0.024  0.024
   23  0.015  0.001  0.041  0.057
   24  0.005  0.001  0.013  0.019
   25  0.000  0.000  0.014  0.014
   26  0.000  0.001  0.014  0.014
   27  0.007  0.001  0.009  0.016
   28  0.000  0.000  0.001  0.001
   29  0.001  0.000  0.004  0.005
   30  0.000  0.000  0.003  0.003
   31  0.002  0.000  0.005  0.008
   32  0.001  0.000  0.003  0.003
   33  0.002  0.000  0.006  0.008
   34  0.001  0.000  0.005  0.007
   35  0.000  0.000  0.006  0.006
   36  0.000  0.001  0.007  0.008
   37  0.000  0.000  0.000  0.000
tot    0.124  0.017  0.665  0.806
 
band     9 # energy   -5.11999424 # occ.  2.00000000
 
ion      s      p      d    tot
    1  0.000  0.000  0.007  0.007
    2  0.000  0.000  0.006  0.007
    3  0.000  0.000  0.002  0.003
    4  0.002  0.001  0.005  0.007
    5  0.000  0.000  0.008  0.009
    6  0.001  0.000  0.002  0.003
    7  0.002  0.001  0.006  0.009
    8  0.001  0.000  0.007  0.008
    9  0.000  0.000  0.000  0.000
   10  0.005  0.000  0.066  0.071
   11  0.005  0.001  0.076  0.082
   12  0.012  0.001  0.015  0.028
   13  0.032  0.001  0.020  0.053
   14  0.013  0.001  0.060  0.073
   15  0.001  0.001  0.011  0.012
   16  0.002  0.000  0.087  0.089
   17  0.004  0.000  0.034  0.038
   18  0.002  0.001  0.017  0.020
   19  0.000  0.000  0.014  0.014
   20  0.007  0.001  0.035  0.043
   21  0.017  0.001  0.043  0.060
   22  0.008  0.001  0.006  0.015
   23  0.002  0.001  0.032  0.036
   24  0.003  0.000  0.017  0.021
   25  0.000  0.000  0.014  0.014
   26  0.000  0.000  0.014  0.015
   27  0.001  0.000  0.022  0.023
   28  0.000  0.000  0.001  0.001
   29  0.002  0.000  0.004  0.006
   30  0.002  0.000  0.006  0.008
   31  0.000  0.000  0.003  0.004
   32  0.002  0.000  0.006  0.008
   33  0.000  0.000  0.003  0.003
   34  0.001  0.000  0.003  0.005
   35  0.000  0.000  0.006  0.006
   36  0.000  0.001  0.007  0.008
   37  0.000  0.000  0.000  0.000
tot    0.124  0.017  0.665  0.806
 
band    10 # energy   -5.09186355 # occ.  2.00000000
 
ion      s      p      d    tot
    1  0.000  0.000  0.002  0.002
    2  0.001  0.000  0.007  0.008
    3  0.001  0.000  0.007  0.008
    4  0.001  0.000  0.007  0.008
    5  0.006  0.001  0.001  0.008
    6  0.001  0.000  0.007  0.008
    7  0.001  0.000  0.007  0.008
    8  0.001  0.000  0.007  0.008
    9  0.000  0.000  0.009  0.009
   10  0.009  0.001  0.006  0.016
   11  0.013  0.001  0.045  0.058
   12  0.009  0.001  0.006  0.016
   13  0.013  0.001  0.045  0.058
   14  0.013  0.001  0.045  0.058
   15  0.002  0.000  0.051  0.053
   16  0.009  0.001  0.006  0.016
   17  0.002  0.000  0.051  0.053
   18  0.002  0.000  0.051  0.053
   19  0.011  0.001  0.027  0.038
   20  0.005  0.001  0.024  0.031
   21  0.005  0.001  0.024  0.030
   22  0.000  0.000  0.033  0.033
   23  0.005  0.001  0.024  0.030
   24  0.000  0.000  0.033  0.033
   25  0.011  0.001  0.027  0.038
   26  0.011  0.001  0.027  0.038
   27  0.000  0.000  0.033  0.033
   28  0.002  0.001  0.004  0.007
   29  0.000  0.000  0.005  0.006
   30  0.000  0.000  0.005  0.006
   31  0.000  0.000  0.005  0.006
   32  0.000  0.000  0.005  0.006
   33  0.000  0.000  0.005  0.006
   34  0.000  0.000  0.005  0.006
   35  0.002  0.000  0.000  0.002
   36  0.001  0.000  0.001  0.001
   37  0.000  0.000  0.000  0.000
tot    0.131  0.018  0.646  0.795
 
band    11 # energy   -5.07062791 # occ.  2.00000000
 
ion      s      p      d    tot
    1  0.001  0.000  0.029  0.030
    2  0.002  0.000  0.010  0.012
    3  0.002  0.000  0.010  0.012
    4  0.002  0.000  0.010  0.012
    5  0.000  0.000  0.001  0.001
    6  0.002  0.000  0.010  0.012
    7  0.002  0.000  0.010  0.012
    8  0.002  0.000  0.010  0.012
    9  0.010  0.001  0.000  0.011
   10  0.003  0.000  0.074  0.078
   11  0.004  0.001  0.026  0.031
   12  0.003  0.000  0.075  0.078
   13  0.004  0.001  0.026  0.031
   14  0.004  0.001  0.026  0.031
   15  0.006  0.001  0.011  0.017
   16  0.003  0.000  0.075  0.078
   17  0.006  0.001  0.011  0.017
   18  0.006  0.001  0.011  0.017
   19  0.000  0.000  0.023  0.023
   20  0.003  0.001  0.008  0.011
   21  0.003  0.001  0.008  0.011
   22  0.001  0.000  0.021  0.022
   23  0.003  0.001  0.008  0.011
   24  0.001  0.000  0.021  0.022
   25  0.000  0.000  0.023  0.023
   26  0.000  0.000  0.023  0.023
   27  0.001  0.000  0.021  0.022
   28  0.012  0.000  0.011  0.024
   29  0.004  0.000  0.015  0.019
   30  0.004  0.000  0.015  0.019
   31  0.004  0.000  0.015  0.019
   32  0.004  0.000  0.015  0.019
   33  0.004  0.000  0.015  0.019
   34  0.004  0.000  0.015  0.019
   35  0.002  0.000  0.013  0.014
   36  0.001  0.000  0.000  0.002
   37  0.000  0.000  0.000  0.000
tot    0.113  0.009  0.691  0.814
 
band    12 # energy   -5.06093189 # occ.  2.00000000
 
ion      s      p      d    tot
    1  0.000  0.001  0.008  0.009
    2  0.001  0.001  0.008  0.010
    3  0.001  0.000  0.005  0.007
    4  0.005  0.001  0.005  0.011
    5  0.000  0.000  0.009  0.009
    6  0.001  0.000  0.005  0.007
    7  0.005  0.001  0.006  0.011
    8  0.001  0.001  0.009  0.010
    9  0.000  0.000  0.011  0.011
   10  0.014  0.000  0.023  0.037
   11  0.000  0.000  0.026  0.026
   12  0.000  0.001  0.035  0.035
   13  0.000  0.000  0.022  0.022
   14  0.000  0.000  0.026  0.026
   15  0.012  0.000  0.024  0.037
   16  0.014  0.000  0.022  0.036
   17  0.000  0.000  0.077  0.077
   18  0.012  0.000  0.025  0.038
   19  0.004  0.000  0.024  0.029
   20  0.002  0.000  0.032  0.034
   21  0.000  0.001  0.015  0.016
   22  0.000  0.000  0.050  0.051
   23  0.002  0.000  0.032  0.035
   24  0.012  0.000  0.020  0.033
   25  0.004  0.000  0.025  0.030
   26  0.000  0.000  0.062  0.062
   27  0.013  0.000  0.019  0.032
   28  0.000  0.000  0.011  0.011
   29  0.003  0.001  0.007  0.011
   30  0.003  0.001  0.004  0.008
   31  0.000  0.000  0.006  0.006
   32  0.003  0.001  0.004  0.008
   33  0.000  0.000  0.006  0.006
   34  0.003  0.001  0.007  0.011
   35  0.000  0.000  0.005  0.006
   36  0.000  0.000  0.003  0.003
   37  0.000  0.000  0.000  0.000
tot    0.117  0.014  0.679  0.810
 
band    13 # energy   -5.06091787 # occ.  2.00000000
 
ion      s      p      d    tot
    1  0.000  0.001  0.008  0.009
    2  0.004  0.001  0.004  0.009
    3  0.004  0.001  0.008  0.012
    4  0.000  0.000  0.007  0.008
    5  0.000  0.000  0.009  0.009
    6  0.004  0.001  0.008  0.012
    7  0.000  0.000  0.007  0.007
    8  0.004  0.001  0.004  0.009
    9  0.000  0.000  0.011  0.011
   10  0.005  0.000  0.031  0.036
   11  0.000  0.000  0.023  0.023
   12  0.018  0.000  0.018  0.037
   13  0.000  0.000  0.027  0.027
   14  0.000  0.000  0.023  0.023
   15  0.004  0.000  0.060  0.064
   16  0.004  0.000  0.031  0.036
   17  0.016  0.000  0.007  0.024
   18  0.004  0.000  0.059  0.063
   19  0.001  0.000  0.050  0.051
   20  0.001  0.001  0.021  0.022
   21  0.003  0.000  0.038  0.041
   22  0.017  0.000  0.009  0.026
   23  0.001  0.001  0.021  0.022
   24  0.004  0.000  0.040  0.044
   25  0.002  0.000  0.049  0.050
   26  0.006  0.000  0.012  0.018
   27  0.004  0.000  0.041  0.045
   28  0.000  0.000  0.011  0.011
   29  0.001  0.000  0.004  0.005
   30  0.001  0.000  0.007  0.009
   31  0.004  0.001  0.006  0.011
   32  0.001  0.000  0.007  0.009
   33  0.004  0.001  0.006  0.011
   34  0.001  0.000  0.004  0.005
   35  0.000  0.000  0.005  0.006
   36  0.000  0.001  0.003  0.003
   37  0.000  0.000  0.000  0.000
tot    0.117  0.014  0.679  0.810
 
band    14 # energy   -5.05307282 # occ.  2.00000000
 
ion      s      p      d    tot
    1  0.000  0.000  0.000  0.000
    2  0.001  0.000  0.008  0.009
    3  0.001  0.000  0.008  0.009
    4  0.001  0.000  0.008  0.009
    5  0.000  0.000  0.000  0.001
    6  0.001  0.000  0.008  0.009
    7  0.001  0.000  0.008  0.009
    8  0.001  0.000  0.008  0.009
    9  0.003  0.000  0.012  0.016
   10  0.000  0.000  0.029  0.029
   11  0.000  0.000  0.005  0.005
   12  0.000  0.000  0.028  0.028
   13  0.000  0.000  0.005  0.005
   14  0.000  0.000  0.005  0.005
   15  0.002  0.000  0.047  0.050
   16  0.000  0.000  0.028  0.029
   17  0.002  0.000  0.047  0.050
   18  0.002  0.000  0.047  0.050
   19  0.005  0.001  0.030  0.036
   20  0.002  0.000  0.028  0.031
   21  0.002  0.000  0.028  0.030
   22  0.001  0.000  0.066  0.068
   23  0.002  0.000  0.028  0.031
   24  0.001  0.000  0.066  0.068
   25  0.005  0.001  0.030  0.036
   26  0.005  0.001  0.030  0.036
   27  0.001  0.000  0.066  0.068
   28  0.005  0.001  0.001  0.006
   29  0.002  0.000  0.011  0.013
   30  0.002  0.000  0.011  0.013
   31  0.002  0.000  0.011  0.013
   32  0.002  0.000  0.011  0.013
   33  0.002  0.000  0.011  0.013
   34  0.002  0.000  0.011  0.013
   35  0.004  0.000  0.021  0.025
   36  0.001  0.001  0.002  0.003
   37  0.000  0.000  0.000  0.000
tot    0.064  0.009  0.764  0.837
 
band    15 # energy   -5.04962126 # occ.  2.00000000
 
ion      s      p      d    tot
    1  0.000  0.000  0.008  0.008
    2  0.001  0.000  0.007  0.008
    3  0.001  0.000  0.005  0.006
    4  0.000  0.000  0.008  0.008
    5  0.000  0.000  0.002  0.002
    6  0.001  0.000  0.004  0.006
    7  0.000  0.000  0.008  0.008
    8  0.001  0.000  0.006  0.008
    9  0.000  0.000  0.015  0.015
   10  0.001  0.000  0.036  0.037
   11  0.001  0.000  0.026  0.028
   12  0.000  0.000  0.007  0.007
   13  0.000  0.000  0.055  0.055
   14  0.001  0.000  0.024  0.025
   15  0.004  0.000  0.038  0.043
   16  0.001  0.000  0.034  0.035
   17  0.000  0.000  0.079  0.079
   18  0.005  0.000  0.035  0.040
   19  0.003  0.000  0.031  0.034
   20  0.000  0.000  0.040  0.040
   21  0.000  0.000  0.008  0.009
   22  0.000  0.000  0.051  0.051
   23  0.000  0.000  0.038  0.038
   24  0.005  0.000  0.037  0.042
   25  0.003  0.000  0.026  0.029
   26  0.000  0.000  0.087  0.087
   27  0.005  0.000  0.038  0.043
   28  0.000  0.000  0.007  0.007
   29  0.000  0.000  0.008  0.009
   30  0.000  0.000  0.004  0.005
   31  0.001  0.000  0.005  0.006
   32  0.000  0.000  0.005  0.005
   33  0.001  0.000  0.004  0.006
   34  0.000  0.000  0.008  0.009
   35  0.000  0.000  0.012  0.012
   36  0.000  0.000  0.001  0.001
   37  0.000  0.000  0.000  0.000
tot    0.039  0.006  0.808  0.853
 
band    16 # energy   -5.04958753 # occ.  2.00000000
 
ion      s      p      d    tot
    1  0.000  0.000  0.008  0.008
    2  0.000  0.000  0.006  0.007
    3  0.001  0.000  0.008  0.009
    4  0.001  0.000  0.004  0.006
    5  0.000  0.000  0.002  0.002
    6  0.000  0.000  0.008  0.009
    7  0.001  0.000  0.005  0.006
    8  0.000  0.000  0.006  0.007
    9  0.000  0.000  0.015  0.015
   10  0.000  0.000  0.015  0.016
   11  0.000  0.000  0.044  0.045
   12  0.002  0.000  0.044  0.046
   13  0.001  0.000  0.015  0.017
   14  0.000  0.000  0.047  0.047
   15  0.002  0.000  0.063  0.065
   16  0.000  0.000  0.017  0.018
   17  0.006  0.000  0.023  0.029
   18  0.001  0.000  0.067  0.068
   19  0.001  0.000  0.065  0.067
   20  0.000  0.000  0.017  0.017
   21  0.000  0.000  0.049  0.049
   22  0.007  0.000  0.033  0.040
   23  0.000  0.000  0.019  0.020
   24  0.002  0.000  0.047  0.049
   25  0.001  0.000  0.070  0.071
   26  0.004  0.000  0.008  0.013
   27  0.002  0.000  0.046  0.048
   28  0.000  0.000  0.007  0.007
   29  0.001  0.000  0.003  0.004
   30  0.001  0.000  0.007  0.008
   31  0.000  0.000  0.007  0.007
   32  0.001  0.000  0.007  0.008
   33  0.000  0.000  0.007  0.007
   34  0.001  0.000  0.003  0.005
   35  0.000  0.000  0.012  0.012
   36  0.000  0.000  0.001  0.001
   37  0.000  0.000  0.000  0.000
tot    0.039  0.006  0.808  0.853
 
band    17 # energy   -4.94019755 # occ.  2.00000000
 
ion      s      p      d    tot
    1  0.000  0.000  0.001  0.001
    2  0.000  0.000  0.007  0.008
    3  0.000  0.000  0.007  0.007
    4  0.002  0.001  0.006  0.008
    5  0.000  0.001  0.017  0.018
    6  0.002  0.001  0.006  0.008
    7  0.000  0.000  0.006  0.006
    8  0.001  0.000  0.005  0.007
    9  0.000  0.000  0.008  0.009
   10  0.000  0.001  0.023  0.024
   11  0.000  0.000  0.075  0.075
   12  0.000  0.001  0.019  0.020
   13  0.002  0.000  0.058  0.061
   14  0.004  0.000  0.051  0.054
   15  0.000  0.000  0.008  0.009
   16  0.000  0.000  0.012  0.012
   17  0.002  0.000  0.016  0.018
   18  0.002  0.000  0.020  0.022
   19  0.000  0.000  0.001  0.001
   20  0.002  0.000  0.087  0.089
   21  0.001  0.000  0.098  0.099
   22  0.000  0.001  0.026  0.027
   23  0.000  0.000  0.123  0.123
   24  0.000  0.001  0.023  0.024
   25  0.000  0.001  0.022  0.023
   26  0.000  0.001  0.016  0.017
   27  0.000  0.000  0.034  0.034
   28  0.000  0.000  0.003  0.003
   29  0.000  0.000  0.007  0.007
   30  0.000  0.000  0.007  0.008
   31  0.001  0.000  0.006  0.008
   32  0.001  0.001  0.007  0.009
   33  0.001  0.000  0.008  0.010
   34  0.001  0.001  0.008  0.010
   35  0.000  0.000  0.000  0.000
   36  0.000  0.004  0.008  0.012
   37  0.000  0.000  0.000  0.000
tot    0.024  0.017  0.829  0.870
 
band    18 # energy   -4.94018500 # occ.  2.00000000
 
ion      s      p      d    tot
    1  0.000  0.000  0.001  0.001
    2  0.001  0.000  0.005  0.007
    3  0.002  0.001  0.005  0.007
    4  0.000  0.000  0.006  0.007
    5  0.000  0.001  0.017  0.018
    6  0.000  0.000  0.007  0.007
    7  0.001  0.001  0.006  0.008
    8  0.001  0.001  0.007  0.008
    9  0.000  0.000  0.008  0.009
   10  0.000  0.000  0.013  0.013
   11  0.004  0.000  0.048  0.052
   12  0.000  0.001  0.016  0.017
   13  0.002  0.000  0.064  0.066
   14  0.001  0.000  0.072  0.073
   15  0.003  0.000  0.021  0.024
   16  0.000  0.001  0.024  0.026
   17  0.001  0.000  0.013  0.015
   18  0.000  0.000  0.010  0.010
   19  0.001  0.001  0.025  0.026
   20  0.000  0.000  0.118  0.118
   21  0.001  0.000  0.107  0.108
   22  0.000  0.000  0.029  0.030
   23  0.002  0.000  0.082  0.084
   24  0.000  0.000  0.033  0.033
   25  0.000  0.000  0.004  0.004
   26  0.000  0.000  0.010  0.011
   27  0.000  0.001  0.021  0.022
   28  0.000  0.000  0.003  0.003
   29  0.001  0.001  0.008  0.010
   30  0.001  0.001  0.007  0.009
   31  0.000  0.000  0.008  0.009
   32  0.000  0.000  0.008  0.008
   33  0.001  0.000  0.006  0.007
   34  0.000  0.000  0.006  0.007
   35  0.000  0.000  0.000  0.000
   36  0.000  0.004  0.008  0.012
   37  0.000  0.000  0.000  0.000
tot    0.024  0.017  0.829  0.870
 
band    19 # energy   -4.93151014 # occ.  2.00000000
 
ion      s      p      d    tot
    1  0.000  0.000  0.000  0.000
    2  0.000  0.000  0.004  0.004
    3  0.000  0.000  0.004  0.004
    4  0.000  0.000  0.004  0.004
    5  0.001  0.001  0.019  0.021
    6  0.000  0.000  0.004  0.004
    7  0.000  0.000  0.004  0.004
    8  0.000  0.000  0.004  0.004
    9  0.000  0.000  0.007  0.007
   10  0.000  0.000  0.007  0.008
   11  0.000  0.001  0.092  0.093
   12  0.000  0.000  0.007  0.007
   13  0.000  0.001  0.092  0.093
   14  0.000  0.001  0.092  0.093
   15  0.001  0.001  0.035  0.036
   16  0.000  0.000  0.007  0.007
   17  0.001  0.001  0.035  0.036
   18  0.001  0.001  0.035  0.036
   19  0.001  0.000  0.015  0.016
   20  0.002  0.000  0.062  0.065
   21  0.002  0.000  0.062  0.064
   22  0.004  0.000  0.016  0.020
   23  0.002  0.000  0.062  0.065
   24  0.004  0.000  0.016  0.020
   25  0.001  0.000  0.015  0.016
   26  0.001  0.000  0.015  0.016
   27  0.004  0.000  0.016  0.020
   28  0.006  0.001  0.001  0.008
   29  0.000  0.001  0.013  0.014
   30  0.000  0.000  0.013  0.014
   31  0.000  0.001  0.013  0.014
   32  0.000  0.000  0.013  0.014
   33  0.000  0.001  0.013  0.014
   34  0.000  0.000  0.013  0.014
   35  0.002  0.001  0.000  0.003
   36  0.001  0.000  0.004  0.006
   37  0.001  0.000  0.000  0.001
tot    0.036  0.013  0.813  0.862
 
band    20 # energy   -4.89288484 # occ.  2.00000000
 
ion      s      p      d    tot
    1  0.000  0.000  0.003  0.003
    2  0.000  0.001  0.015  0.015
    3  0.000  0.001  0.015  0.015
    4  0.000  0.001  0.015  0.015
    5  0.006  0.001  0.000  0.007
    6  0.000  0.001  0.015  0.015
    7  0.000  0.001  0.015  0.015
    8  0.000  0.001  0.015  0.015
    9  0.004  0.001  0.001  0.005
   10  0.003  0.000  0.039  0.042
   11  0.000  0.000  0.026  0.027
   12  0.002  0.000  0.039  0.042
   13  0.000  0.000  0.026  0.027
   14  0.000  0.000  0.026  0.027
   15  0.005  0.000  0.015  0.020
   16  0.002  0.000  0.039  0.042
   17  0.005  0.000  0.015  0.020
   18  0.005  0.000  0.015  0.020
   19  0.000  0.000  0.060  0.060
   20  0.000  0.000  0.010  0.011
   21  0.000  0.000  0.010  0.011
   22  0.000  0.001  0.038  0.039
   23  0.000  0.000  0.010  0.011
   24  0.000  0.001  0.038  0.039
   25  0.000  0.000  0.060  0.060
   26  0.000  0.000  0.060  0.060
   27  0.000  0.001  0.038  0.039
   28  0.002  0.000  0.029  0.031
   29  0.001  0.000  0.014  0.016
   30  0.001  0.000  0.014  0.016
   31  0.001  0.000  0.014  0.016
   32  0.001  0.000  0.014  0.016
   33  0.001  0.000  0.014  0.016
   34  0.001  0.000  0.014  0.016
   35  0.007  0.001  0.000  0.008
   36  0.003  0.001  0.000  0.004
   37  0.000  0.000  0.000  0.000
tot    0.054  0.018  0.769  0.841
 
band    21 # energy   -4.87854020 # occ.  2.00000000
 
ion      s      p      d    tot
    1  0.000  0.001  0.017  0.018
    2  0.001  0.001  0.009  0.011
    3  0.001  0.000  0.010  0.011
    4  0.001  0.001  0.004  0.006
    5  0.000  0.000  0.003  0.003
    6  0.001  0.000  0.004  0.005
    7  0.000  0.000  0.008  0.009
    8  0.000  0.000  0.007  0.007
    9  0.000  0.000  0.002  0.002
   10  0.000  0.000  0.072  0.073
   11  0.000  0.001  0.034  0.035
   12  0.000  0.000  0.070  0.071
   13  0.000  0.000  0.012  0.013
   14  0.000  0.000  0.006  0.006
   15  0.000  0.001  0.018  0.019
   16  0.001  0.000  0.063  0.064
   17  0.000  0.000  0.054  0.054
   18  0.000  0.000  0.065  0.065
   19  0.002  0.000  0.030  0.033
   20  0.000  0.000  0.011  0.011
   21  0.000  0.000  0.019  0.019
   22  0.001  0.000  0.027  0.028
   23  0.000  0.001  0.045  0.047
   24  0.001  0.000  0.025  0.025
   25  0.000  0.000  0.067  0.067
   26  0.001  0.000  0.058  0.059
   27  0.004  0.000  0.033  0.037
   28  0.000  0.001  0.013  0.014
   29  0.000  0.000  0.006  0.006
   30  0.000  0.000  0.007  0.007
   31  0.001  0.000  0.003  0.005
   32  0.001  0.001  0.004  0.006
   33  0.001  0.001  0.008  0.010
   34  0.001  0.001  0.008  0.009
   35  0.000  0.001  0.012  0.012
   36  0.000  0.000  0.001  0.001