 vasp.6.2.0 18Jan21 (build Jun 12 2021 23:27:24) complex                        
  
 executed on             LinuxIFC date 2022.05.30  18:37:16
 running on   28 total cores
 distrk:  each k-point on   28 cores,    1 groups
 distr:  one band on NCORE=   1 cores,   28 groups


--------------------------------------------------------------------------------------------------------


 INCAR:
   ISMEAR = -5
   SIGMA = 0.1
   ISPIN = 1
   EDIFF = 1.d-5
   EDIFFG = -0.01
   NSW = 0
   NELM = 150
   ENCUT = 500
   ISIF = 2
   IBRION = 2
   LREAL = Auto
   ALGO = Fast
   ICHARG = 11
   LORBIT = 10
   LCHARG = .F.
   LWAVE = .F.

 POTCAR:    PAW_PBE Cu 22Jun2005                  
 POTCAR:    PAW_PBE W 08Apr2002                   
 POTCAR:    PAW_PBE C 08Apr2002                   
 -----------------------------------------------------------------------------
|                                                                             |
|           W    W    AA    RRRRR   N    N  II  N    N   GGGG   !!!           |
|           W    W   A  A   R    R  NN   N  II  NN   N  G    G  !!!           |
|           W    W  A    A  R    R  N N  N  II  N N  N  G       !!!           |
|           W WW W  AAAAAA  RRRRR   N  N N  II  N  N N  G  GGG   !            |
|           WW  WW  A    A  R   R   N   NN  II  N   NN  G    G                |
|           W    W  A    A  R    R  N    N  II  N    N   GGGG   !!!           |
|                                                                             |
|     For optimal performance we recommend to set                             |
|       NCORE = 2 up to number-of-cores-per-socket                            |
|     NCORE specifies how many cores store one orbital (NPAR=cpu/NCORE).      |
|     This setting can greatly improve the performance of VASP for DFT.       |
|     The default, NCORE=1 might be grossly inefficient on modern             |
|     multi-core architectures or massively parallel machines. Do your        |
|     own testing! More info at https://www.vasp.at/wiki/index.php/NCORE      |
|     Unfortunately you need to use the default for GW and RPA                |
|     calculations (for HF NCORE is supported but not extensively tested      |
|     yet).                                                                   |
|                                                                             |
 -----------------------------------------------------------------------------

 POTCAR:    PAW_PBE Cu 22Jun2005                  
   VRHFIN =Cu: d10 p1                                                                               
   LEXCH  = PE                                                                                      
   EATOM  =  1390.9808 eV,  102.2342 Ry                                                             
                                                                                                    
   TITEL  = PAW_PBE Cu 22Jun2005                                                                    
   LULTRA =        F    use ultrasoft PP ?                                                          
   IUNSCR =        1    unscreen: 0-lin 1-nonlin 2-no                                               
   RPACOR =    2.000    partial core radius                                                         
   POMASS =   63.546; ZVAL   =   11.000    mass and valenz                                          
   RCORE  =    2.300    outmost cutoff radius                                                       
   RWIGS  =    2.200; RWIGS  =    1.164    wigner-seitz radius (au A)                               
   ENMAX  =  295.446; ENMIN  =  221.585 eV                                                          
   ICORE  =        3    local potential                                                             
   LCOR   =        T    correct aug charges                                                         
   LPAW   =        T    paw PP                                                                      
   EAUG   =  586.980                                                                                
   DEXC   =    0.000                                                                                
   RMAX   =    2.344    core radius for proj-oper                                                   
   RAUG   =    1.300    factor for augmentation sphere                                              
   RDEP   =    2.302    radius for radial grids                                                     
   RDEPT  =    1.771    core radius for aug-charge                                                  
                                                                                                    
   Atomic configuration                                                                             
    9 entries                                                                                       
     n  l   j            E        occ.                                                              
     1  0  0.50     -8850.2468   2.0000                                                             
     2  0  0.50     -1062.3498   2.0000                                                             
     2  1  1.50      -916.8226   6.0000                                                             
     3  0  0.50      -114.6929   2.0000                                                             
     3  1  1.50       -72.1325   6.0000                                                             
     3  2  2.50        -5.0394  10.0000                                                             
     4  0  0.50        -4.6097   1.0000                                                             
     4  1  0.50        -4.0817   0.0000                                                             
     4  3  2.50        -1.3606   0.0000                                                             
   Description                                                                                      
     l       E           TYP  RCUT    TYP  RCUT                                                     
     2     -5.0393973     23  2.200                                                                 
     2     10.8846608     23  2.200                                                                 
     0     -4.6097109     23  2.200                                                                 
     0      8.2520465     23  2.200                                                                 
     1     -2.7211652     23  2.200                                                                 
     1     21.7055443     23  2.200                                                                 
     3      2.7211652     23  2.300                                                                 
  local pseudopotential read in
  partial core-charges read in
  partial kinetic energy density read in
  atomic valenz-charges read in
  non local Contribution for L=           2  read in
    real space projection operators read in
  non local Contribution for L=           2  read in
    real space projection operators read in
  non local Contribution for L=           0  read in
    real space projection operators read in
  non local Contribution for L=           0  read in
    real space projection operators read in
  non local Contribution for L=           1  read in
    real space projection operators read in
  non local Contribution for L=           1  read in
    real space projection operators read in
    PAW grid and wavefunctions read in
 
   number of l-projection  operators is LMAX  =           6
   number of lm-projection operators is LMMAX =          18
 
 POTCAR:    PAW_PBE W 08Apr2002                   
   VRHFIN =W : 6s5d                                                                                 
   LEXCH  = PE                                                                                      
   EATOM  =   204.6103 eV,   15.0384 Ry                                                             
                                                                                                    
   TITEL  = PAW_PBE W 08Apr2002                                                                     
   LULTRA =        F    use ultrasoft PP ?                                                          
   IUNSCR =        1    unscreen: 0-lin 1-nonlin 2-no                                               
   RPACOR =    2.330    partial core radius                                                         
   POMASS =  183.850; ZVAL   =    6.000    mass and valenz                                          
   RCORE  =    2.750    outmost cutoff radius                                                       
   RWIGS  =    2.750; RWIGS  =    1.455    wigner-seitz radius (au A)                               
   ENMAX  =  223.057; ENMIN  =  167.293 eV                                                          
   RCLOC  =    2.147    cutoff for local pot                                                        
   LCOR   =        T    correct aug charges                                                         
   LPAW   =        T    paw PP                                                                      
   EAUG   =  373.438                                                                                
   DEXC   =    0.000                                                                                
   RMAX   =    2.801    core radius for proj-oper                                                   
   RAUG   =    1.300    factor for augmentation sphere                                              
   RDEP   =    2.886    radius for radial grids                                                     
   RDEPT  =    2.230    core radius for aug-charge                                                  
                                                                                                    
   Atomic configuration                                                                             
   16 entries                                                                                       
     n  l   j            E        occ.                                                              
     1  0  0.50    -69465.5836   2.0000                                                             
     2  0  0.50    -11986.2642   2.0000                                                             
     2  1  1.50    -10479.8616   6.0000                                                             
     3  0  0.50     -2759.0758   2.0000                                                             
     3  1  1.50     -2313.1857   6.0000                                                             
     3  2  2.50     -1801.1185  10.0000                                                             
     4  0  0.50      -567.6791   2.0000                                                             
     4  1  1.50      -421.4694   6.0000                                                             
     4  2  2.50      -236.3473  10.0000                                                             
     4  3  3.50       -31.2666  14.0000                                                             
     5  0  0.50       -77.1085   2.0000                                                             
     5  1  1.50       -41.3856   6.0000                                                             
     5  2  2.50        -3.3185   5.0000                                                             
     6  0  0.50        -5.1438   1.0000                                                             
     6  1  0.50        -3.8096   0.0000                                                             
     5  3  2.50        -1.3606   0.0000                                                             
   Description                                                                                      
     l       E           TYP  RCUT    TYP  RCUT                                                     
     2     -3.3185288     23  2.500                                                                 
     2     -1.5965414     23  2.500                                                                 
     0     -5.1438054     23  2.500                                                                 
     0      4.9117504     23  2.500                                                                 
     1      2.7211652     23  2.750                                                                 
     1     27.2116520     23  2.750                                                                 
  local pseudopotential read in
  partial core-charges read in
  partial kinetic energy density read in
  atomic valenz-charges read in
  non local Contribution for L=           2  read in
    real space projection operators read in
  non local Contribution for L=           2  read in
    real space projection operators read in
  non local Contribution for L=           0  read in
    real space projection operators read in
  non local Contribution for L=           0  read in
    real space projection operators read in
  non local Contribution for L=           1  read in
    real space projection operators read in
  non local Contribution for L=           1  read in
    real space projection operators read in
    PAW grid and wavefunctions read in
 
   number of l-projection  operators is LMAX  =           6
   number of lm-projection operators is LMMAX =          18
 
 POTCAR:    PAW_PBE C 08Apr2002                   
   VRHFIN =C: s2p2                                                                                  
   LEXCH  = PE                                                                                      
   EATOM  =   147.1560 eV,   10.8157 Ry                                                             
                                                                                                    
   TITEL  = PAW_PBE C 08Apr2002                                                                     
   LULTRA =        F    use ultrasoft PP ?                                                          
   IUNSCR =        1    unscreen: 0-lin 1-nonlin 2-no                                               
   RPACOR =    1.200    partial core radius                                                         
   POMASS =   12.011; ZVAL   =    4.000    mass and valenz                                          
   RCORE  =    1.500    outmost cutoff radius                                                       
   RWIGS  =    1.630; RWIGS  =    0.863    wigner-seitz radius (au A)                               
   ENMAX  =  400.000; ENMIN  =  300.000 eV                                                          
   ICORE  =        2    local potential                                                             
   LCOR   =        T    correct aug charges                                                         
   LPAW   =        T    paw PP                                                                      
   EAUG   =  644.873                                                                                
   DEXC   =    0.000                                                                                
   RMAX   =    1.529    core radius for proj-oper                                                   
   RAUG   =    1.300    factor for augmentation sphere                                              
   RDEP   =    1.501    radius for radial grids                                                     
   RDEPT  =    1.300    core radius for aug-charge                                                  
                                                                                                    
   Atomic configuration                                                                             
    4 entries                                                                                       
     n  l   j            E        occ.                                                              
     1  0  0.50      -273.3789   2.0000                                                             
     2  0  0.50       -13.7508   2.0000                                                             
     2  1  0.50        -5.2854   2.0000                                                             
     3  2  1.50        -5.4423   0.0000                                                             
   Description                                                                                      
     l       E           TYP  RCUT    TYP  RCUT                                                     
     0    -13.7508458     23  1.200                                                                 
     0     -8.2022199     23  1.200                                                                 
     1     -5.2854383     23  1.500                                                                 
     1     34.0145650     23  1.500                                                                 
     2     -5.4423304      7  1.500                                                                 
  local pseudopotential read in
  partial core-charges read in
  partial kinetic energy density read in
  atomic valenz-charges read in
  non local Contribution for L=           0  read in
    real space projection operators read in
  non local Contribution for L=           0  read in
    real space projection operators read in
  non local Contribution for L=           1  read in
    real space projection operators read in
  non local Contribution for L=           1  read in
    real space projection operators read in
    PAW grid and wavefunctions read in
 
   number of l-projection  operators is LMAX  =           4
   number of lm-projection operators is LMMAX =           8
 
 Optimization of the real space projectors (new method)

 maximal supplied QI-value         = 16.25
 optimisation between [QCUT,QGAM] = [ 11.38, 22.75] = [ 36.24,144.96] Ry 
 Optimized for a Real-space Cutoff    1.52 Angstroem

   l    n(q)    QCUT    max X(q) W(low)/X(q) W(high)/X(q)  e(spline) 
   2      9    11.376     4.610    0.21E-03    0.10E-03    0.26E-06
   2      9    11.376     8.522    0.33E-03    0.16E-03    0.37E-06
   0     10    11.376    51.609    0.62E-04    0.20E-04    0.13E-06
   0     10    11.376    27.747    0.54E-04    0.20E-04    0.13E-06
   1     10    11.376    20.408    0.13E-04    0.99E-04    0.19E-06
   1     10    11.376    13.425    0.12E-04    0.87E-04    0.17E-06
 Optimization of the real space projectors (new method)

 maximal supplied QI-value         = 13.61
 optimisation between [QCUT,QGAM] = [ 11.43, 22.86] = [ 36.58,146.31] Ry 
 Optimized for a Real-space Cutoff    1.56 Angstroem

   l    n(q)    QCUT    max X(q) W(low)/X(q) W(high)/X(q)  e(spline) 
   2     10    11.429   130.855    0.22E-03    0.64E-03    0.11E-05
   2     10    11.429   114.007    0.22E-03    0.64E-03    0.11E-05
   0     11    11.429    84.709    0.39E-04    0.67E-04    0.23E-06
   0     11    11.429    49.163    0.35E-04    0.62E-04    0.21E-06
   1     10    11.429    15.765    0.84E-04    0.15E-03    0.24E-06
   1     10    11.429    10.638    0.58E-04    0.12E-03    0.19E-06
 Optimization of the real space projectors (new method)

 maximal supplied QI-value         = 25.13
 optimisation between [QCUT,QGAM] = [ 11.31, 22.87] = [ 35.82,146.48] Ry 
 Optimized for a Real-space Cutoff    1.00 Angstroem

   l    n(q)    QCUT    max X(q) W(low)/X(q) W(high)/X(q)  e(spline) 
   0      7    11.310   115.676    0.43E-03    0.13E-02    0.19E-06
   0      7    11.310    87.132    0.43E-03    0.13E-02    0.18E-06
   1      6    11.310     4.429    0.42E-03    0.74E-03    0.11E-06
   1      6    11.310     2.733    0.34E-03    0.55E-03    0.92E-07
  PAW_PBE Cu 22Jun2005                  :
 energy of atom  1       EATOM=-1390.9808
 kinetic energy error for atom=    0.0043 (will be added to EATOM!!)
  PAW_PBE W 08Apr2002                   :
 energy of atom  2       EATOM= -204.6103
 kinetic energy error for atom=    0.0017 (will be added to EATOM!!)
  PAW_PBE C 08Apr2002                   :
 energy of atom  3       EATOM= -147.1560
 kinetic energy error for atom=    0.0076 (will be added to EATOM!!)
 
 
 POSCAR: Cu-W-C
  positions in direct lattice
  velocities in cartesian coordinates
 exchange correlation table for  LEXCH =        8
   RHO(1)=    0.500       N(1)  =     2000
   RHO(2)=  100.500       N(2)  =     4000

 VTST: version 3.2, (02/03/18)

 CHAIN: initializing optimizer
 
 OPT: Using VASP Conjugate-Gradient optimizer
 CHAIN: Read ICHAIN            0
 
 POSCAR: Cu-W-C
  positions in direct lattice
  velocities in cartesian coordinates
 


--------------------------------------------------------------------------------------------------------


 ion  position               nearest neighbor table
   1  0.000  0.000  0.226-   7 2.57   3 2.57   4 2.57   2 2.57   6 2.57   8 2.57  12 2.57  10 2.57
                            16 2.57
   2  0.333  0.000  0.226-   8 2.57   9 2.57   5 2.57   1 2.57   3 2.57  11 2.57   4 2.57  10 2.57
                            17 2.57
   3  0.667  0.000  0.226-   1 2.57   7 2.57   6 2.57   9 2.57   2 2.57  12 2.57   5 2.57  18 2.57
                            11 2.57
   4  0.000  0.333  0.226-   5 2.57   6 2.57   1 2.57   7 2.57   2 2.57  13 2.57   9 2.57  10 2.57
                            15 2.57
   5  0.333  0.333  0.226-   4 2.57   2 2.57   7 2.57  13 2.57   8 2.57   6 2.57   3 2.57  11 2.57
                            14 2.57
   6  0.667  0.333  0.226-   4 2.57   9 2.57  15 2.57   3 2.57   1 2.57   8 2.57  14 2.57   5 2.57
                            12 2.57
   7  0.000  0.667  0.226-   1 2.57   3 2.57  16 2.57  18 2.57   4 2.57   5 2.57   8 2.57   9 2.57
                            13 2.57
   8  0.333  0.667  0.226-   9 2.57   2 2.57  17 2.57   6 2.57   1 2.57   7 2.57   5 2.57  14 2.57
                            16 2.57
   9  0.667  0.667  0.226-   8 2.57   6 2.57   2 2.57  17 2.57   3 2.57   7 2.57   4 2.57  15 2.57
                            18 2.57
  10  0.111  0.111  0.314-  20 2.54  11 2.57  12 2.57  13 2.57   1 2.57   2 2.57   4 2.57  15 2.57
                            16 2.57  17 2.57  26 2.57  19 2.57
  11  0.444  0.111  0.314-  20 2.55  21 2.55  10 2.57  13 2.57   2 2.57  17 2.57  14 2.57  12 2.57
                             5 2.57   3 2.57  18 2.57  27 2.58
  12  0.778  0.111  0.314-  21 2.54  15 2.57  10 2.57  14 2.57  18 2.57   3 2.57   1 2.57  16 2.57
                            11 2.57   6 2.57  19 2.57  25 2.57
  13  0.111  0.444  0.314-  23 2.55  20 2.55  16 2.57  18 2.57  10 2.57  11 2.57  14 2.57   5 2.57
                             4 2.57   7 2.57  15 2.57  22 2.58
  14  0.444  0.444  0.314-  21 2.55  23 2.55  15 2.57  17 2.57  12 2.57  16 2.57  13 2.57  11 2.57
                             6 2.57   8 2.57   5 2.57  24 2.58
  15  0.778  0.444  0.314-  19 2.57  14 2.57  17 2.57  12 2.57   6 2.57  18 2.57  10 2.57   9 2.57
                            13 2.57   4 2.57  24 2.57  22 2.57
  16  0.111  0.778  0.314-  23 2.54  18 2.57  13 2.57   7 2.57  14 2.57  17 2.57  12 2.57  10 2.57
                             8 2.57   1 2.57  25 2.57  26 2.57
  17  0.444  0.778  0.314-  26 2.57  14 2.57  15 2.57   8 2.57   9 2.57  11 2.57  16 2.57  18 2.57
                            10 2.57   2 2.57  27 2.57  24 2.57
  18  0.778  0.778  0.314-  25 2.57  16 2.57  13 2.57   7 2.57  15 2.57  12 2.57  17 2.57   9 2.57
                             3 2.57  11 2.57  22 2.57  27 2.57
  19  0.889  0.223  0.402-  21 2.55  20 2.55  22 2.56  24 2.56  15 2.57  12 2.57  10 2.57  25 2.57
                            26 2.57  28 2.57  32 2.60  31 2.60
  20  0.221  0.221  0.401-  10 2.54  36 2.54  11 2.55  13 2.55  26 2.55  19 2.55  27 2.57  22 2.57
                            23 2.59  21 2.59  29 2.62  31 2.62
  21  0.558  0.221  0.401-  12 2.54  36 2.54  14 2.55  11 2.55  19 2.55  25 2.55  24 2.57  27 2.57
                            20 2.59  23 2.59  32 2.62  30 2.62
  22  0.888  0.556  0.402-  24 2.56  27 2.56  19 2.56  25 2.56  35 2.56  23 2.57  20 2.57  18 2.57
                            15 2.57  13 2.58  31 2.59  33 2.59
  23  0.221  0.558  0.401-  16 2.54  36 2.54  13 2.55  14 2.55  25 2.55  26 2.55  22 2.57  24 2.57
                            20 2.59  21 2.59  33 2.62  34 2.62
  24  0.556  0.556  0.402-  22 2.56  27 2.56  19 2.56  26 2.56  35 2.56  21 2.57  23 2.57  15 2.57
                            17 2.57  14 2.58  32 2.59  34 2.59
  25  0.889  0.889  0.402-  21 2.55  23 2.55  22 2.56  27 2.56  18 2.57  16 2.57  12 2.57  19 2.57
                            26 2.57  28 2.57  33 2.60  30 2.60
  26  0.223  0.889  0.402-  20 2.55  23 2.55  27 2.56  24 2.56  17 2.57  10 2.57  16 2.57  25 2.57
                            19 2.57  28 2.57  29 2.60  34 2.60
  27  0.556  0.888  0.402-  24 2.56  22 2.56  26 2.56  25 2.56  35 2.56  20 2.57  21 2.57  17 2.57
                            18 2.57  11 2.58  29 2.59  30 2.59
  28  0.000  0.000  0.490-  33 2.56  30 2.56  31 2.56  29 2.56  32 2.56  34 2.56  25 2.57  19 2.57
                            26 2.57
  29  0.333  1.000  0.492-  34 2.56  28 2.56  35 2.57  31 2.57  36 2.57  30 2.57  27 2.59  26 2.60
                            20 2.62
  30  0.667  1.000  0.492-  33 2.56  28 2.56  35 2.57  32 2.57  36 2.57  29 2.57  27 2.59  25 2.60
                            21 2.62
  31  1.000  0.333  0.492-  32 2.56  28 2.56  35 2.57  29 2.57  36 2.57  33 2.57  22 2.59  19 2.60
                            20 2.62
  32  0.667  0.333  0.492-  31 2.56  28 2.56  35 2.57  30 2.57  36 2.57  34 2.57  24 2.59  19 2.60
                            21 2.62
  33  1.000  0.667  0.492-  30 2.56  28 2.56  35 2.57  34 2.57  36 2.57  31 2.57  22 2.59  25 2.60
                            23 2.62
  34  0.333  0.667  0.492-  29 2.56  28 2.56  35 2.57  33 2.57  36 2.57  32 2.57  24 2.59  26 2.60
                            23 2.62
  35  0.667  0.667  0.491-  24 2.56  27 2.56  22 2.56  34 2.57  32 2.57  29 2.57  30 2.57  33 2.57
                            31 2.57
  36  0.333  0.333  0.487-  37 1.81  23 2.54  20 2.54  21 2.54  31 2.57  29 2.57  33 2.57  34 2.57
                            32 2.57  30 2.57
  37  0.333  0.333  0.563-  36 1.81
 
  LATTYP: Found a hexagonal cell.
 ALAT       =     7.6967864036
 C/A-ratio  =     3.0908716217
  
  Lattice vectors:
  
 A1 = (  -3.8483927580,  -6.6656128093,   0.0000000000)
 A2 = (   7.6967864037,   0.0000000000,   0.0000000000)
 A3 = (   0.0000000000,   0.0000000000,  23.7897786731)


Analysis of symmetry for initial positions (statically):
=====================================================================
 Subroutine PRICEL returns:
 Original cell was already a primitive cell.
 

 Routine SETGRP: Setting up the symmetry group for a 
 hexagonal supercell.


 Subroutine GETGRP returns: Found  6 space group operations
 (whereof  6 operations were pure point group operations)
 out of a pool of 24 trial point group operations.


The static configuration has the point symmetry C_3v.


Analysis of symmetry for dynamics (positions and initial velocities):
=====================================================================
 Subroutine PRICEL returns:
 Original cell was already a primitive cell.
 

 Routine SETGRP: Setting up the symmetry group for a 
 hexagonal supercell.


 Subroutine GETGRP returns: Found  6 space group operations
 (whereof  6 operations were pure point group operations)
 out of a pool of 24 trial point group operations.


The dynamic configuration has the point symmetry C_3v.


Analysis of constrained symmetry for selective dynamics:
=====================================================================
 Subroutine PRICEL returns:
 Original cell was already a primitive cell.
 

 Routine SETGRP: Setting up the symmetry group for a 
 hexagonal supercell.


 Subroutine GETGRP returns: Found  6 space group operations
 (whereof  6 operations were pure point group operations)
 out of a pool of 24 trial point group operations.


The constrained configuration has the point symmetry C_3v.


 Subroutine INISYM returns: Found  6 space group operations
 (whereof  6 operations are pure point group operations),
 and found     1 'primitive' translations


----------------------------------------------------------------------------------------

                                     Primitive cell                                     

  volume of cell :    1220.5060

  direct lattice vectors                    reciprocal lattice vectors
     7.696786404  0.000000000  0.000000000     0.129924354 -0.075011849  0.000000000
     3.848392758  6.665612809  0.000000000     0.000000000  0.150023716  0.000000000
     0.000000000  0.000000000 23.789778673     0.000000000  0.000000000  0.042034859

  length of vectors
     7.696786404  7.696786404 23.789778673     0.150023716  0.150023716  0.042034859

  position of ions in fractional coordinates (direct lattice)
     0.000000000  0.000000000  0.225792754
     0.333333343  0.000000000  0.225792754
     0.666666687  0.000000000  0.225792754
     1.000000000  0.333333343  0.225792754
     0.333333313  0.333333343  0.225792754
     0.666666687  0.333333343  0.225792754
     1.000000000  0.666666687  0.225792754
     0.333333373  0.666666687  0.225792754
     0.666666627  0.666666687  0.225792754
     0.111111119  0.111111112  0.313847389
     0.444444418  0.111111112  0.313847389
     0.777777791  0.111111112  0.313847389
     0.111111119  0.444444448  0.313847389
     0.444444478  0.444444448  0.313847389
     0.777777731  0.444444448  0.313847389
     0.111111112  0.777777731  0.313847389
     0.444444478  0.777777731  0.313847389
     0.777777851  0.777777731  0.313847389
     0.888723670  0.222552677  0.401953851
     0.221147797  0.221147782  0.400839850
     0.557704466  0.221147782  0.400839850
     0.887986986  0.556006477  0.402403440
     0.221147767  0.557704406  0.400839850
     0.556006537  0.556006477  0.402403440
     0.888723670  0.888723670  0.401953851
     0.222552692  0.888723670  0.401953851
     0.556006477  0.887986986  0.402403440
     0.000000000  0.000000000  0.490229402
     0.332986250  0.999550541  0.491742208
     0.667463239  0.999550541  0.491742208
     0.999550541  0.332986250  0.491742208
     0.667463239  0.332986250  0.491742208
     0.999550541  0.667463239  0.491742208
     0.332986280  0.667463239  0.491742208
     0.666666627  0.666666687  0.490596220
     0.333333313  0.333333343  0.487271232
     0.333333313  0.333333343  0.563361512

  ion indices of the primitive-cell ions
   primitive index   ion index
                 1           1
                 2           2
                 3           3
                 4           4
                 5           5
                 6           6
                 7           7
                 8           8
                 9           9
                10          10
                11          11
                12          12
                13          13
                14          14
                15          15
                16          16
                17          17
                18          18
                19          19
                20          20
                21          21
                22          22
                23          23
                24          24
                25          25
                26          26
                27          27
                28          28
                29          29
                30          30
                31          31
                32          32
                33          33
                34          34
                35          35
                36          36
                37          37

----------------------------------------------------------------------------------------

 
 
 KPOINTS: Automatic mesh                          

Automatic generation of k-mesh.
 Grid dimensions read from file:
 generate k-points for:    8    8    1

 Generating k-lattice:

  Cartesian coordinates                     Fractional coordinates (reciprocal lattice)
     0.016240544 -0.009376481  0.000000000     0.125000000 -0.000000000  0.000000000
     0.000000000  0.018752964  0.000000000     0.000000000  0.125000000  0.000000000
     0.000000000  0.000000000  0.042034859     0.000000000  0.000000000  1.000000000

  Length of vectors
     0.018752964  0.018752964  0.042034859

  Shift w.r.t. Gamma in fractional coordinates (k-lattice)
     0.000000000  0.000000000  0.000000000

 TETIRR: Found     36 inequivalent tetrahedra from      384
 
 Subroutine IBZKPT returns following result:
 ===========================================
 
 Found     10 irreducible k-points:
 
 Following reciprocal coordinates:
            Coordinates               Weight
  0.000000  0.000000  0.000000      1.000000
  0.125000 -0.000000  0.000000      6.000000
  0.250000 -0.000000  0.000000      6.000000
  0.375000 -0.000000  0.000000      6.000000
  0.500000 -0.000000  0.000000      3.000000
  0.250000  0.125000  0.000000      6.000000
  0.375000  0.125000  0.000000     12.000000
  0.500000  0.125000  0.000000     12.000000
  0.500000  0.250000  0.000000      6.000000
 -0.375000  0.250000  0.000000      6.000000
 
 Following cartesian coordinates:
            Coordinates               Weight
  0.000000  0.000000  0.000000      1.000000
  0.016241 -0.009376  0.000000      6.000000
  0.032481 -0.018753  0.000000      6.000000
  0.048722 -0.028129  0.000000      6.000000
  0.064962 -0.037506  0.000000      3.000000
  0.032481  0.000000  0.000000      6.000000
  0.048722 -0.009376  0.000000     12.000000
  0.064962 -0.018753  0.000000     12.000000
  0.064962  0.000000  0.000000      6.000000
 -0.048722  0.065635  0.000000      6.000000
 


--------------------------------------------------------------------------------------------------------




 Dimension of arrays:
   k-points           NKPTS =     10   k-points in BZ     NKDIM =     10   number of bands    NBANDS=    252
   number of dos      NEDOS =    301   number of ions     NIONS =     37
   non local maximal  LDIM  =      6   non local SUM 2l+1 LMDIM =     18
   total plane-waves  NPLWV = 246960
   max r-space proj   IRMAX =   3293   max aug-charges    IRDMAX=  11748
   dimension x,y,z NGX =    42 NGY =   42 NGZ =  140
   dimension x,y,z NGXF=    84 NGYF=   84 NGZF=  280
   support grid    NGXF=    84 NGYF=   84 NGZF=  280
   ions per type =              35   1   1
   NGX,Y,Z   is equivalent  to a cutoff of   9.07,  9.07,  9.78 a.u.
   NGXF,Y,Z  is equivalent  to a cutoff of  18.14, 18.14, 19.57 a.u.

 SYSTEM =  unknown system                          
 POSCAR =  Cu-W-C                                  

 Startparameter for this run:
   NWRITE =      2    write-flag & timer
   PREC   = normal    normal or accurate (medium, high low for compatibility)
   ISTART =      0    job   : 0-new  1-cont  2-samecut
   ICHARG =     11    charge: 1-file 2-atom 10-const
   ISPIN  =      1    spin polarized calculation?
   LNONCOLLINEAR =      F non collinear calculations
   LSORBIT =      F    spin-orbit coupling
   INIWAV =      1    electr: 0-lowe 1-rand  2-diag
   LASPH  =      F    aspherical Exc in radial PAW
   METAGGA=      F    non-selfconsistent MetaGGA calc.

 Electronic Relaxation 1
   ENCUT  =  500.0 eV  36.75 Ry    6.06 a.u.  14.03 14.03 43.37*2*pi/ulx,y,z
   ENINI  =  500.0     initial cutoff
   ENAUG  =  644.9 eV  augmentation charge cutoff
   NELM   =    150;   NELMIN=  2; NELMDL= -5     # of ELM steps 
   EDIFF  = 0.1E-04   stopping-criterion for ELM
   LREAL  =      T    real-space projection
   NLSPLINE    = F    spline interpolate recip. space projectors
   LCOMPAT=      F    compatible to vasp.4.4
   GGA_COMPAT  = T    GGA compatible to vasp.4.4-vasp.4.6
   LMAXPAW     = -100 max onsite density
   LMAXMIX     =    2 max onsite mixed and CHGCAR
   VOSKOWN=      0    Vosko Wilk Nusair interpolation
   ROPT   =   -0.00050  -0.00050  -0.00050
 Ionic relaxation
   EDIFFG = -.1E-01   stopping-criterion for IOM
   NSW    =      0    number of steps for IOM
   NBLOCK =      1;   KBLOCK =      1    inner block; outer block 
   IBRION =     -1    ionic relax: 0-MD 1-quasi-New 2-CG
   NFREE  =      1    steps in history (QN), initial steepest desc. (CG)
   ISIF   =      2    stress and relaxation
   IWAVPR =     10    prediction:  0-non 1-charg 2-wave 3-comb
   ISYM   =      2    0-nonsym 1-usesym 2-fastsym
   LCORR  =      T    Harris-Foulkes like correction to forces

   POTIM  = 0.5000    time-step for ionic-motion
   TEIN   =    0.0    initial temperature
   TEBEG  =    0.0;   TEEND  =   0.0 temperature during run
   SMASS  =  -3.00    Nose mass-parameter (am)
   estimated Nose-frequenzy (Omega)   =  0.10E-29 period in steps = 0.13E+47 mass=  -0.135E-26a.u.
   SCALEE = 1.0000    scale energy and forces
   NPACO  =    256;   APACO  = 16.0  distance and # of slots for P.C.
   PSTRESS=    0.0 pullay stress

  Mass of Ions in am
   POMASS =  63.55183.85 12.01
  Ionic Valenz
   ZVAL   =  11.00  6.00  4.00
  Atomic Wigner-Seitz radii
   RWIGS  =  -1.00 -1.00 -1.00
  virtual crystal weights 
   VCA    =   1.00  1.00  1.00
   NELECT =     395.0000    total number of electrons
   NUPDOWN=      -1.0000    fix difference up-down

 DOS related values:
   EMIN   =  10.00;   EMAX   =-10.00  energy-range for DOS
   EFERMI =   0.00
   ISMEAR =    -5;   SIGMA  =   0.10  broadening in eV -4-tet -1-fermi 0-gaus

 Electronic relaxation 2 (details)
   IALGO  =     68    algorithm
   LDIAG  =      T    sub-space diagonalisation (order eigenvalues)
   LSUBROT=      F    optimize rotation matrix (better conditioning)
   TURBO    =      0    0=normal 1=particle mesh
   IRESTART =      0    0=no restart 2=restart with 2 vectors
   NREBOOT  =      0    no. of reboots
   NMIN     =      0    reboot dimension
   EREF     =   0.00    reference energy to select bands
   IMIX   =      4    mixing-type and parameters
     AMIX     =   0.40;   BMIX     =  1.00
     AMIX_MAG =   1.60;   BMIX_MAG =  1.00
     AMIN     =   0.10
     WC   =   100.;   INIMIX=   1;  MIXPRE=   1;  MAXMIX= -45

 Intra band minimization:
   WEIMIN = 0.0000     energy-eigenvalue tresh-hold
   EBREAK =  0.99E-08  absolut break condition
   DEPER  =   0.30     relativ break condition  

   TIME   =   0.40     timestep for ELM

  volume/ion in A,a.u.               =      32.99       222.60
  Fermi-wavevector in a.u.,A,eV,Ry     =   1.123985  2.124024 17.188818  1.263343
  Thomas-Fermi vector in A             =   2.260654
 
 Write flags
   LWAVE        =      F    write WAVECAR
   LDOWNSAMPLE  =      F    k-point downsampling of WAVECAR
   LCHARG       =      F    write CHGCAR
   LVTOT        =      F    write LOCPOT, total local potential
   LVHAR        =      F    write LOCPOT, Hartree potential only
   LELF         =      F    write electronic localiz. function (ELF)
   LORBIT       =     10    0 simple, 1 ext, 2 COOP (PROOUT), +10 PAW based schemes


 Dipole corrections
   LMONO  =      F    monopole corrections only (constant potential shift)
   LDIPOL =      F    correct potential (dipole corrections)
   IDIPOL =      0    1-x, 2-y, 3-z, 4-all directions 
   EPSILON=  1.0000000 bulk dielectric constant

 Exchange correlation treatment:
   GGA     =    --    GGA type
   LEXCH   =     8    internal setting for exchange type
   VOSKOWN=      0    Vosko Wilk Nusair interpolation
   LHFCALC =     F    Hartree Fock is set to
   LHFONE  =     F    Hartree Fock one center treatment
   AEXX    =    0.0000 exact exchange contribution

 Linear response parameters
   LEPSILON=     F    determine dielectric tensor
   LRPA    =     F    only Hartree local field effects (RPA)
   LNABLA  =     F    use nabla operator in PAW spheres
   LVEL    =     F    velocity operator in full k-point grid
   LINTERFAST=   F  fast interpolation
   KINTER  =     0    interpolate to denser k-point grid
   CSHIFT  =0.1000    complex shift for real part using Kramers Kronig
   OMEGAMAX=  -1.0    maximum frequency
   DEG_THRESHOLD= 0.2000000E-02 threshold for treating states as degnerate
   RTIME   =   -0.100 relaxation time in fs
  (WPLASMAI=    0.000 imaginary part of plasma frequency in eV, 0.658/RTIME)
   DFIELD  = 0.0000000 0.0000000 0.0000000 field for delta impulse in time
 
 Orbital magnetization related:
   ORBITALMAG=     F  switch on orbital magnetization
   LCHIMAG   =     F  perturbation theory with respect to B field
   DQ        =  0.001000  dq finite difference perturbation B field
   LLRAUG    =     F  two centre corrections for induced B field



--------------------------------------------------------------------------------------------------------


 Static calculation
 charge density and potential remain constant during run
 non-spin polarized calculation
 RMM-DIIS sequential band-by-band and
  variant of blocked Davidson during initial phase
 perform sub-space diagonalisation
    before iterative eigenvector-optimisation
 no mixing
 using additional bands           54
 real space projection scheme for non local part
 use partial core corrections
 calculate Harris-corrections to forces 
   (improved forces if not selfconsistent)
 use gradient corrections 
 WARNING: stress and forces are not correct
  (second derivative of E(xc) not defined)
 use of overlap-Matrix (Vanderbilt PP)
 Fermi weights with tetrahedron method with Bloechl corrections


--------------------------------------------------------------------------------------------------------


  energy-cutoff  :      500.00
  volume of cell :     1220.51
      direct lattice vectors                 reciprocal lattice vectors
     7.696786404  0.000000000  0.000000000     0.129924354 -0.075011849  0.000000000
     3.848392758  6.665612809  0.000000000     0.000000000  0.150023716  0.000000000
     0.000000000  0.000000000 23.789778673     0.000000000  0.000000000  0.042034859

  length of vectors
     7.696786404  7.696786404 23.789778673     0.150023716  0.150023716  0.042034859


 
 k-points in units of 2pi/SCALE and weight: Automatic mesh                          
   0.00000000  0.00000000  0.00000000       0.016
   0.01624054 -0.00937648  0.00000000       0.094
   0.03248109 -0.01875296  0.00000000       0.094
   0.04872163 -0.02812944  0.00000000       0.094
   0.06496218 -0.03750592  0.00000000       0.047
   0.03248109  0.00000000  0.00000000       0.094
   0.04872163 -0.00937648  0.00000000       0.188
   0.06496218 -0.01875296  0.00000000       0.188
   0.06496218  0.00000000  0.00000000       0.094
  -0.04872163  0.06563537  0.00000000       0.094
 
 k-points in reciprocal lattice and weights: Automatic mesh                          
   0.00000000  0.00000000  0.00000000       0.016
   0.12500000 -0.00000000  0.00000000       0.094
   0.25000000 -0.00000000  0.00000000       0.094
   0.37500000 -0.00000000  0.00000000       0.094
   0.50000000 -0.00000000  0.00000000       0.047
   0.25000000  0.12500000  0.00000000       0.094
   0.37500000  0.12500000  0.00000000       0.188
   0.50000000  0.12500000  0.00000000       0.188
   0.50000000  0.25000000  0.00000000       0.094
  -0.37500000  0.25000000  0.00000000       0.094
 
 position of ions in fractional coordinates (direct lattice) 
   0.00000000  0.00000000  0.22579275
   0.33333334  0.00000000  0.22579275
   0.66666669  0.00000000  0.22579275
   0.00000000  0.33333334  0.22579275
   0.33333331  0.33333334  0.22579275
   0.66666669  0.33333334  0.22579275
   0.00000000  0.66666669  0.22579275
   0.33333337  0.66666669  0.22579275
   0.66666663  0.66666669  0.22579275
   0.11111112  0.11111111  0.31384739
   0.44444442  0.11111111  0.31384739
   0.77777779  0.11111111  0.31384739
   0.11111112  0.44444445  0.31384739
   0.44444448  0.44444445  0.31384739
   0.77777773  0.44444445  0.31384739
   0.11111111  0.77777773  0.31384739
   0.44444448  0.77777773  0.31384739
   0.77777785  0.77777773  0.31384739
   0.88872367  0.22255268  0.40195385
   0.22114780  0.22114778  0.40083985
   0.55770447  0.22114778  0.40083985
   0.88798699  0.55600648  0.40240344
   0.22114777  0.55770441  0.40083985
   0.55600654  0.55600648  0.40240344
   0.88872367  0.88872367  0.40195385
   0.22255269  0.88872367  0.40195385
   0.55600648  0.88798699  0.40240344
   0.00000000  0.00000000  0.49022940
   0.33298625  0.99955054  0.49174221
   0.66746324  0.99955054  0.49174221
   0.99955054  0.33298625  0.49174221
   0.66746324  0.33298625  0.49174221
   0.99955054  0.66746324  0.49174221
   0.33298628  0.66746324  0.49174221
   0.66666663  0.66666669  0.49059622
   0.33333331  0.33333334  0.48727123
   0.33333331  0.33333334  0.56336151
 
 position of ions in cartesian coordinates  (Angst):
   0.00000000  0.00000000  5.37155964
   2.56559554  0.00000000  5.37155964
   5.13119109  0.00000000  5.37155964
   1.28279762  2.22187100  5.37155964
   3.84839293  2.22187100  5.37155964
   6.41398872  2.22187100  5.37155964
   2.56559525  4.44374201  5.37155964
   5.13119102  4.44374201  5.37155964
   7.69678588  4.44374201  5.37155964
   1.28279775  0.74062365  7.46635991
   3.84839295  0.74062365  7.46635991
   6.41398873  0.74062365  7.46635991
   2.56559535  2.96249461  7.46635991
   5.13119101  2.96249461  7.46635991
   7.69678586  2.96249461  7.46635991
   3.84839268  5.18436521  7.46635991
   6.41398840  5.18436521  7.46635991
   8.97958418  5.18436521  7.46635991
   7.69678637  1.48344997  9.56239316
   2.55319088  1.47408549  9.53589132
   5.14359568  1.47408549  9.53589132
   8.97437746  3.70612389  9.57308878
   3.84839272  3.71744164  9.53589132
   6.41919485  3.70612389  9.57308878
  10.26047399  5.92388788  9.56239316
   5.13309827  5.92388788  9.56239316
   7.69678578  5.91897743  9.57308878
   0.00000000  0.00000000 11.66244898
   6.40958711  6.66261689 11.69843830
   8.98398505  6.66261689 11.69843830
   8.97478889  2.21955741 11.69843830
   6.41878385  2.21955741 11.69843830
  10.26198771  4.44905151 11.69843830
   5.13158497  4.44905151 11.69843830
   7.69678588  4.44374201 11.67117550
   3.84839293  2.22187100 11.59207476
   3.84839293  2.22187100 13.40224569
 


--------------------------------------------------------------------------------------------------------


 k-point   1 :   0.0000 0.0000 0.0000  plane waves:   30861
 k-point   2 :   0.1250-0.0000 0.0000  plane waves:   30923
 k-point   3 :   0.2500-0.0000 0.0000  plane waves:   31010
 k-point   4 :   0.3750-0.0000 0.0000  plane waves:   30958
 k-point   5 :   0.5000-0.0000 0.0000  plane waves:   30974
 k-point   6 :   0.2500 0.1250 0.0000  plane waves:   30938
 k-point   7 :   0.3750 0.1250 0.0000  plane waves:   30990
 k-point   8 :   0.5000 0.1250 0.0000  plane waves:   31017
 k-point   9 :   0.5000 0.2500 0.0000  plane waves:   30996
 k-point  10 :  -0.3750 0.2500 0.0000  plane waves:   31036

 maximum and minimum number of plane-waves per node :     31036    30861

 maximum number of plane-waves:     31036
 maximum index in each direction: 
   IXMAX=   14   IYMAX=   14   IZMAX=   43
   IXMIN=  -14   IYMIN=  -14   IZMIN=  -43


 serial   3D FFT for wavefunctions
 parallel 3D FFT for charge:
    minimum data exchange during FFTs selected (reduces bandwidth)


 total amount of memory used by VASP MPI-rank0   112725. kBytes
=======================================================================

   base      :      30000. kBytes
   nonlr-proj:      18628. kBytes
   fftplans  :       3394. kBytes
   grid      :      14446. kBytes
   one-center:        575. kBytes
   wavefun   :      45682. kBytes
 
     INWAV:  cpu time    0.0000: real time    0.0000
 initial charge density was supplied:
 number of electron     394.9999403 magnetization 
 keeping initial charge density in first step


--------------------------------------------------------------------------------------------------------


 Maximum index for non-local projection operator         3138
 Maximum index for augmentation-charges          562 (set IRDMAX)


--------------------------------------------------------------------------------------------------------


 First call to EWALD:  gamma=   0.166
 Maximum number of real-space cells 4x 4x 2
 Maximum number of reciprocal cells 2x 2x 6

    FEWALD:  cpu time    0.0013: real time    0.0013


--------------------------------------- Iteration      1(   1)  ---------------------------------------


    POTLOK:  cpu time    0.0315: real time    0.0317
    SETDIJ:  cpu time    0.0043: real time    0.0044
     EDDAV:  cpu time    6.4753: real time    6.4771
 BZINTS: Fermi energy:   12.700560;  395.000000 electrons
         Band energy: 0.226571E+04;  BLOECHL correction:   -0.046610
       DOS:  cpu time    0.0102: real time    0.0103
    --------------------------------------------
      LOOP:  cpu time    6.5213: real time    6.5234

 eigenvalue-minimisations  :  5040
 total energy-change (2. order) : 0.3483532E+04  (-0.1686292E+05)
 number of electron     394.9999403 magnetization 
 augmentation part      394.9999403 magnetization 

 Free energy of the ion-electron system (eV)
  ---------------------------------------------------
  alpha Z        PSCENC =       799.04551797
  Ewald energy   TEWEN  =    194355.11238455
  -Hartree energ DENC   =   -240783.29342518
  -exchange      EXHF   =         0.00000000
  -V(xc)+E(xc)   XCENC  =      1522.50041414
  PAW double counting   =     46772.44767076   -50483.92187593
  entropy T*S    EENTRO =         0.00000000
  eigenvalues    EBANDS =      2265.70501478
  atomic energy  EATOM  =     49035.93613578
  Solvation  Ediel_sol  =         0.00000000
  ---------------------------------------------------
  free energy    TOTEN  =      3483.53183687 eV

  energy without entropy =     3483.53183687  energy(sigma->0) =     3483.53183687


--------------------------------------------------------------------------------------------------------




--------------------------------------- Iteration      1(   2)  ---------------------------------------


     EDDAV:  cpu time    6.4492: real time    6.4527
 BZINTS: Fermi energy:    2.366648;  395.000000 electrons
         Band energy:-0.911379E+03;  BLOECHL correction:   -0.014991
       DOS:  cpu time    0.0109: real time    0.0109
    --------------------------------------------
      LOOP:  cpu time    6.4601: real time    6.4636

 eigenvalue-minimisations  :  5040
 total energy-change (2. order) :-0.3177084E+04  (-0.3042286E+04)
 number of electron     394.9999403 magnetization 
 augmentation part      394.9999403 magnetization 

 Free energy of the ion-electron system (eV)
  ---------------------------------------------------
  alpha Z        PSCENC =       799.04551797
  Ewald energy   TEWEN  =    194355.11238455
  -Hartree energ DENC   =   -240783.29342518
  -exchange      EXHF   =         0.00000000
  -V(xc)+E(xc)   XCENC  =      1522.50041414
  PAW double counting   =     46772.44767076   -50483.92187593
  entropy T*S    EENTRO =         0.00000000
  eigenvalues    EBANDS =      -911.37878018
  atomic energy  EATOM  =     49035.93613578
  Solvation  Ediel_sol  =         0.00000000
  ---------------------------------------------------
  free energy    TOTEN  =       306.44804191 eV

  energy without entropy =      306.44804191  energy(sigma->0) =      306.44804191


--------------------------------------------------------------------------------------------------------




--------------------------------------- Iteration      1(   3)  ---------------------------------------


     EDDAV:  cpu time    6.9696: real time    6.9700
 BZINTS: Fermi energy:   -0.216792;  395.000000 electrons
         Band energy:-0.133122E+04;  BLOECHL correction:   -0.032428
       DOS:  cpu time    0.0099: real time    0.0099
    --------------------------------------------
      LOOP:  cpu time    6.9795: real time    6.9798

 eigenvalue-minimisations  :  5544
 total energy-change (2. order) :-0.4198411E+03  (-0.3959581E+03)
 number of electron     394.9999403 magnetization 
 augmentation part      394.9999403 magnetization 

 Free energy of the ion-electron system (eV)
  ---------------------------------------------------
  alpha Z        PSCENC =       799.04551797
  Ewald energy   TEWEN  =    194355.11238455
  -Hartree energ DENC   =   -240783.29342518
  -exchange      EXHF   =         0.00000000
  -V(xc)+E(xc)   XCENC  =      1522.50041414
  PAW double counting   =     46772.44767076   -50483.92187593
  entropy T*S    EENTRO =         0.00000000
  eigenvalues    EBANDS =     -1331.21984710
  atomic energy  EATOM  =     49035.93613578
  Solvation  Ediel_sol  =         0.00000000
  ---------------------------------------------------
  free energy    TOTEN  =      -113.39302501 eV

  energy without entropy =     -113.39302501  energy(sigma->0) =     -113.39302501


--------------------------------------------------------------------------------------------------------




--------------------------------------- Iteration      1(   4)  ---------------------------------------


     EDDAV:  cpu time    7.8763: real time    7.8766
 BZINTS: Fermi energy:   -0.544625;  395.000000 electrons
         Band energy:-0.135680E+04;  BLOECHL correction:   -0.048832
       DOS:  cpu time    0.0100: real time    0.0100
    --------------------------------------------
      LOOP:  cpu time    7.8863: real time    7.8867

 eigenvalue-minimisations  :  6440
 total energy-change (2. order) :-0.2557990E+02  (-0.2443451E+02)
 number of electron     394.9999403 magnetization 
 augmentation part      394.9999403 magnetization 

 Free energy of the ion-electron system (eV)
  ---------------------------------------------------
  alpha Z        PSCENC =       799.04551797
  Ewald energy   TEWEN  =    194355.11238455
  -Hartree energ DENC   =   -240783.29342518
  -exchange      EXHF   =         0.00000000
  -V(xc)+E(xc)   XCENC  =      1522.50041414
  PAW double counting   =     46772.44767076   -50483.92187593
  entropy T*S    EENTRO =         0.00000000
  eigenvalues    EBANDS =     -1356.79975130
  atomic energy  EATOM  =     49035.93613578
  Solvation  Ediel_sol  =         0.00000000
  ---------------------------------------------------
  free energy    TOTEN  =      -138.97292921 eV

  energy without entropy =     -138.97292921  energy(sigma->0) =     -138.97292921


--------------------------------------------------------------------------------------------------------




--------------------------------------- Iteration      1(   5)  ---------------------------------------


     EDDAV:  cpu time    7.4715: real time    7.4720
 BZINTS: Fermi energy:   -0.552127;  395.000000 electrons
         Band energy:-0.135746E+04;  BLOECHL correction:   -0.048510
       DOS:  cpu time    0.0103: real time    0.0103
    --------------------------------------------
      LOOP:  cpu time    7.4818: real time    7.4822

 eigenvalue-minimisations  :  6048
 total energy-change (2. order) :-0.6629737E+00  (-0.6616494E+00)
 number of electron     394.9999403 magnetization 
 augmentation part      394.9999403 magnetization 

 Free energy of the ion-electron system (eV)
  ---------------------------------------------------
  alpha Z        PSCENC =       799.04551797
  Ewald energy   TEWEN  =    194355.11238455
  -Hartree energ DENC   =   -240783.29342518
  -exchange      EXHF   =         0.00000000
  -V(xc)+E(xc)   XCENC  =      1522.50041414
  PAW double counting   =     46772.44767076   -50483.92187593
  entropy T*S    EENTRO =         0.00000000
  eigenvalues    EBANDS =     -1357.46272499
  atomic energy  EATOM  =     49035.93613578
  Solvation  Ediel_sol  =         0.00000000
  ---------------------------------------------------
  free energy    TOTEN  =      -139.63590290 eV

  energy without entropy =     -139.63590290  energy(sigma->0) =     -139.63590290


--------------------------------------------------------------------------------------------------------




--------------------------------------- Iteration      1(   6)  ---------------------------------------


    EDDIAG:  cpu time    1.2008: real time    1.2010
  RMM-DIIS:  cpu time    3.6844: real time    3.6845
    ORTHCH:  cpu time    0.2227: real time    0.2227
 BZINTS: Fermi energy:   -0.552161;  395.000000 electrons
         Band energy:-0.135748E+04;  BLOECHL correction:   -0.048507
       DOS:  cpu time    0.0098: real time    0.0098
    --------------------------------------------
      LOOP:  cpu time    5.1177: real time    5.1180

 eigenvalue-minimisations  :  5457
 total energy-change (2. order) :-0.1811649E-01  (-0.1811612E-01)
 number of electron     394.9999403 magnetization 
 augmentation part      394.9999403 magnetization 

 Free energy of the ion-electron system (eV)
  ---------------------------------------------------
  alpha Z        PSCENC =       799.04551797
  Ewald energy   TEWEN  =    194355.11238455
  -Hartree energ DENC   =   -240783.29342518
  -exchange      EXHF   =         0.00000000
  -V(xc)+E(xc)   XCENC  =      1522.50041414
  PAW double counting   =     46772.44767076   -50483.92187593
  entropy T*S    EENTRO =         0.00000000
  eigenvalues    EBANDS =     -1357.48084148
  atomic energy  EATOM  =     49035.93613578
  Solvation  Ediel_sol  =         0.00000000
  ---------------------------------------------------
  free energy    TOTEN  =      -139.65401938 eV

  energy without entropy =     -139.65401938  energy(sigma->0) =     -139.65401938


--------------------------------------------------------------------------------------------------------




--------------------------------------- Iteration      1(   7)  ---------------------------------------


    EDDIAG:  cpu time    1.2016: real time    1.2020
  RMM-DIIS:  cpu time    5.1913: real time    5.1916
    ORTHCH:  cpu time    0.2223: real time    0.2223
 BZINTS: Fermi energy:   -0.552174;  395.000000 electrons
         Band energy:-0.135749E+04;  BLOECHL correction:   -0.048507
       DOS:  cpu time    0.0100: real time    0.0100
    --------------------------------------------
      LOOP:  cpu time    6.6253: real time    6.6259

 eigenvalue-minimisations  :  7753
 total energy-change (2. order) :-0.7839225E-02  (-0.7760291E-02)
 number of electron     394.9999403 magnetization 
 augmentation part      394.9999403 magnetization 

 Free energy of the ion-electron system (eV)
  ---------------------------------------------------
  alpha Z        PSCENC =       799.04551797
  Ewald energy   TEWEN  =    194355.11238455
  -Hartree energ DENC   =   -240783.29342518
  -exchange      EXHF   =         0.00000000
  -V(xc)+E(xc)   XCENC  =      1522.50041414
  PAW double counting   =     46772.44767076   -50483.92187593
  entropy T*S    EENTRO =         0.00000000
  eigenvalues    EBANDS =     -1357.48868070
  atomic energy  EATOM  =     49035.93613578
  Solvation  Ediel_sol  =         0.00000000
  ---------------------------------------------------
  free energy    TOTEN  =      -139.66185861 eV

  energy without entropy =     -139.66185861  energy(sigma->0) =     -139.66185861


--------------------------------------------------------------------------------------------------------




--------------------------------------- Iteration      1(   8)  ---------------------------------------


    EDDIAG:  cpu time    1.2015: real time    1.2015
  RMM-DIIS:  cpu time    4.1249: real time    4.1250
    ORTHCH:  cpu time    0.2223: real time    0.2224
 BZINTS: Fermi energy:   -0.552175;  395.000000 electrons
         Band energy:-0.135749E+04;  BLOECHL correction:   -0.048506
       DOS:  cpu time    0.0095: real time    0.0095
    --------------------------------------------
      LOOP:  cpu time    5.5581: real time    5.5584

 eigenvalue-minimisations  :  6151
 total energy-change (2. order) :-0.4736004E-03  (-0.3712705E-03)
 number of electron     394.9999403 magnetization 
 augmentation part      394.9999403 magnetization 

 Free energy of the ion-electron system (eV)
  ---------------------------------------------------
  alpha Z        PSCENC =       799.04551797
  Ewald energy   TEWEN  =    194355.11238455
  -Hartree energ DENC   =   -240783.29342518
  -exchange      EXHF   =         0.00000000
  -V(xc)+E(xc)   XCENC  =      1522.50041414
  PAW double counting   =     46772.44767076   -50483.92187593
  entropy T*S    EENTRO =         0.00000000
  eigenvalues    EBANDS =     -1357.48915430
  atomic energy  EATOM  =     49035.93613578
  Solvation  Ediel_sol  =         0.00000000
  ---------------------------------------------------
  free energy    TOTEN  =      -139.66233221 eV

  energy without entropy =     -139.66233221  energy(sigma->0) =     -139.66233221


--------------------------------------------------------------------------------------------------------




--------------------------------------- Iteration      1(   9)  ---------------------------------------


    EDDIAG:  cpu time    1.2044: real time    1.2044
  RMM-DIIS:  cpu time    5.1357: real time    5.1360
    ORTHCH:  cpu time    0.2223: real time    0.2223
 BZINTS: Fermi energy:   -0.552175;  395.000000 electrons
         Band energy:-0.135749E+04;  BLOECHL correction:   -0.048506
       DOS:  cpu time    0.0098: real time    0.0097
    --------------------------------------------
      LOOP:  cpu time    6.5722: real time    6.5725

 eigenvalue-minimisations  :  7550
 total energy-change (2. order) :-0.1318514E-03  (-0.1265823E-03)
 number of electron     394.9999403 magnetization 
 augmentation part      394.9999403 magnetization 

 Free energy of the ion-electron system (eV)
  ---------------------------------------------------
  alpha Z        PSCENC =       799.04551797
  Ewald energy   TEWEN  =    194355.11238455
  -Hartree energ DENC   =   -240783.29342518
  -exchange      EXHF   =         0.00000000
  -V(xc)+E(xc)   XCENC  =      1522.50041414
  PAW double counting   =     46772.44767076   -50483.92187593
  entropy T*S    EENTRO =         0.00000000
  eigenvalues    EBANDS =     -1357.48928615
  atomic energy  EATOM  =     49035.93613578
  Solvation  Ediel_sol  =         0.00000000
  ---------------------------------------------------
  free energy    TOTEN  =      -139.66246406 eV

  energy without entropy =     -139.66246406  energy(sigma->0) =     -139.66246406


--------------------------------------------------------------------------------------------------------




--------------------------------------- Iteration      1(  10)  ---------------------------------------


    EDDIAG:  cpu time    1.2023: real time    1.2024
  RMM-DIIS:  cpu time    3.0851: real time    3.0853
    ORTHCH:  cpu time    0.2223: real time    0.2223
 BZINTS: Fermi energy:   -0.552175;  395.000000 electrons
         Band energy:-0.135749E+04;  BLOECHL correction:   -0.048506
       DOS:  cpu time    0.0098: real time    0.0098
    --------------------------------------------
      LOOP:  cpu time    4.5195: real time    4.5197

 eigenvalue-minimisations  :  4129
 total energy-change (2. order) :-0.7770315E-05  (-0.5061278E-05)
 number of electron     394.9999403 magnetization 
 augmentation part      394.9999403 magnetization 

 Free energy of the ion-electron system (eV)
  ---------------------------------------------------
  alpha Z        PSCENC =       799.04551797
  Ewald energy   TEWEN  =    194355.11238455
  -Hartree energ DENC   =   -240783.29342518
  -exchange      EXHF   =         0.00000000
  -V(xc)+E(xc)   XCENC  =      1522.50041414
  PAW double counting   =     46772.44767076   -50483.92187593
  entropy T*S    EENTRO =         0.00000000
  eigenvalues    EBANDS =     -1357.48929392
  atomic energy  EATOM  =     49035.93613578
  Solvation  Ediel_sol  =         0.00000000
  ---------------------------------------------------
  free energy    TOTEN  =      -139.66247183 eV

  energy without entropy =     -139.66247183  energy(sigma->0) =     -139.66247183


--------------------------------------------------------------------------------------------------------




 average (electrostatic) potential at core
  the test charge radii are     0.9430  1.1823  0.6991
  (the norm of the test charge is              1.0000)
       1 -71.5418       2 -71.5315       3 -71.5314       4 -71.5315       5 -71.5353
       6 -71.5312       7 -71.5314       8 -71.5311       9 -71.5365      10 -71.8082
      11 -71.7809      12 -71.8078      13 -71.7809      14 -71.7806      15 -71.7878
      16 -71.8078      17 -71.7877      18 -71.7876      19 -71.7736      20 -72.0169
      21 -72.0165      22 -71.7782      23 -72.0164      24 -71.7781      25 -71.7732
      26 -71.7735      27 -71.7781      28 -71.5941      29 -71.7243      30 -71.7241
      31 -71.7243      32 -71.7241      33 -71.7241      34 -71.7240      35 -71.5831
      36 -45.5236      37 -55.0435
 
 
 
 E-fermi :  -0.5522     XC(G=0):  -5.3747     alpha+bet : -4.8185

 Fermi energy:        -0.5521748713

 k-point     1 :       0.0000    0.0000    0.0000
  band No.  band energies     occupation 
      1      -9.6345      2.00000
      2      -9.0990      2.00000
      3      -8.0040      2.00000
      4      -6.5357      2.00000
      5      -6.4247      2.00000
      6      -6.4245      2.00000
      7      -6.3610      2.00000
      8      -6.3608      2.00000
      9      -6.3481      2.00000
     10      -6.3133      2.00000
     11      -5.6803      2.00000
     12      -5.6802      2.00000
     13      -5.6754      2.00000
     14      -5.6282      2.00000
     15      -5.6281      2.00000
     16      -5.6016      2.00000
     17      -5.5421      2.00000
     18      -5.0576      2.00000
     19      -5.0575      2.00000
     20      -4.9489      2.00000
     21      -4.9250      2.00000
     22      -4.9248      2.00000
     23      -4.9062      2.00000
     24      -4.6964      2.00000
     25      -4.6591      2.00000
     26      -4.6591      2.00000
     27      -4.6128      2.00000
     28      -4.6127      2.00000
     29      -4.6055      2.00000
     30      -4.5457      2.00000
     31      -4.5456      2.00000
     32      -4.4759      2.00000
     33      -4.4731      2.00000
     34      -4.4730      2.00000
     35      -4.4501      2.00000
     36      -4.4500      2.00000
     37      -4.4466      2.00000
     38      -4.4318      2.00000
     39      -4.4189      2.00000
     40      -4.4189      2.00000
     41      -4.4162      2.00000
     42      -4.3537      2.00000
     43      -4.3537      2.00000
     44      -4.2830      2.00000
     45      -4.2830      2.00000
     46      -4.2038      2.00000
     47      -4.1853      2.00000
     48      -4.1853      2.00000
     49      -4.1738      2.00000
     50      -4.1363      2.00000
     51      -4.1294      2.00000
     52      -4.1294      2.00000
     53      -4.1276      2.00000
     54      -4.0577      2.00000
     55      -4.0461      2.00000
     56      -3.8322      2.00000
     57      -3.8322      2.00000
     58      -3.7802      2.00000
     59      -3.7769      2.00000
     60      -3.7765      2.00000
     61      -3.7764      2.00000
     62      -3.7229      2.00000
     63      -3.7033      2.00000
     64      -3.7033      2.00000
     65      -3.6996      2.00000
     66      -3.6996      2.00000
     67      -3.6631      2.00000
     68      -3.6631      2.00000
     69      -3.6255      2.00000
     70      -3.6108      2.00000
     71      -3.6108      2.00000
     72      -3.5994      2.00000
     73      -3.5535      2.00000
     74      -3.5404      2.00000
     75      -3.5404      2.00000
     76      -3.4979      2.00000
     77      -3.4978      2.00000
     78      -3.4739      2.00000
     79      -3.4739      2.00000
     80      -3.4457      2.00000
     81      -3.4457      2.00000
     82      -3.4437      2.00000
     83      -3.4241      2.00000
     84      -3.4241      2.00000
     85      -3.4225      2.00000
     86      -3.4053      2.00000
     87      -3.4053      2.00000
     88      -3.3622      2.00000
     89      -3.3468      2.00000
     90      -3.3468      2.00000
     91      -3.2932      2.00000
     92      -3.2931      2.00000
     93      -3.2777      2.00000
     94      -3.2603      2.00000
     95      -3.2603      2.00000
     96      -3.2566      2.00000
     97      -3.2409      2.00000
     98      -3.2408      2.00000
     99      -3.2214      2.00000
    100      -3.2214      2.00000
    101      -3.2085      2.00000
    102      -3.2085      2.00000
    103      -3.1886      2.00000
    104      -3.1852      2.00000
    105      -3.1852      2.00000
    106      -3.1690      2.00000
    107      -3.1690      2.00000
    108      -3.1488      2.00000
    109      -2.9974      2.00000
    110      -2.9974      2.00000
    111      -2.9621      2.00000
    112      -2.9487      2.00000
    113      -2.9297      2.00000
    114      -2.9297      2.00000
    115      -2.9210      2.00000
    116      -2.9210      2.00000
    117      -2.9076      2.00000
    118      -2.9047      2.00000
    119      -2.9046      2.00000
    120      -2.8862      2.00000
    121      -2.8817      2.00000
    122      -2.8609      2.00000
    123      -2.7851      2.00000
    124      -2.7851      2.00000
    125      -2.7562      2.00000
    126      -2.7561      2.00000
    127      -2.7518      2.00000
    128      -2.7518      2.00000
    129      -2.7370      2.00000
    130      -2.7257      2.00000
    131      -2.7257      2.00000
    132      -2.6643      2.00000
    133      -2.6643      2.00000
    134      -2.6536      2.00000
    135      -2.6506      2.00000
    136      -2.6138      2.00000
    137      -2.6137      2.00000
    138      -2.6136      2.00000
    139      -2.5941      2.00000
    140      -2.5941      2.00000
    141      -2.5525      2.00000
    142      -2.5525      2.00000
    143      -2.5314      2.00000
    144      -2.5314      2.00000
    145      -2.5252      2.00000
    146      -2.4892      2.00000
    147      -2.4892      2.00000
    148      -2.4861      2.00000
    149      -2.4823      2.00000
    150      -2.4731      2.00000
    151      -2.4471      2.00000
    152      -2.4470      2.00000
    153      -2.4181      2.00000
    154      -2.4180      2.00000
    155      -2.4145      2.00000
    156      -2.3984      2.00000
    157      -2.3930      2.00000
    158      -2.3738      2.00000
    159      -2.3679      2.00000
    160      -2.3679      2.00000
    161      -2.3619      2.00000
    162      -2.3619      2.00000
    163      -2.3360      2.00000
    164      -2.3359      2.00000
    165      -2.3281      2.00000
    166      -2.3195      2.00000
    167      -2.3195      2.00000
    168      -2.3170      2.00000
    169      -2.3017      2.00000
    170      -2.3017      2.00000
    171      -2.2800      2.00000
    172      -2.2796      2.00000
    173      -2.2796      2.00000
    174      -2.2478      2.00000
    175      -2.2478      2.00000
    176      -2.2405      2.00000
    177      -2.2397      2.00000
    178      -2.2328      2.00000
    179      -2.2326      2.00000
    180      -2.2326      2.00000
    181      -2.2282      2.00000
    182      -2.2241      2.00000
    183      -2.2241      2.00000
    184      -2.1792      2.00000
    185      -2.1792      2.00000
    186      -2.1368      2.00000
    187      -2.1358      2.00000
    188      -2.1358      2.00000
    189      -2.1196      2.00000
    190      -2.1195      2.00000
    191      -2.1194      2.00000
    192      -1.7548      2.00000
    193      -1.7548      2.00000
    194      -1.7536      2.00000
    195      -1.4522      2.00000
    196      -0.9969      2.00000
    197      -0.9968      2.00000
    198      -0.9317      2.00000
    199      -0.9284      2.00000
    200      -0.6695      2.00000
    201      -0.6695      1.82824
    202      -0.4209      0.00000
    203      -0.1340      0.00000
    204      -0.1340      0.00000
    205       1.2059      0.00000
    206       1.3823      0.00000
    207       1.3824      0.00000
    208       1.3844      0.00000
    209       1.8566      0.00000
    210       1.8567      0.00000
    211       2.4562      0.00000
    212       2.4562      0.00000
    213       2.7942      0.00000
    214       2.9289      0.00000
    215       3.1387      0.00000
    216       3.1388      0.00000
    217       3.6028      0.00000
    218       3.6028      0.00000
    219       3.7104      0.00000
    220       3.8971      0.00000
    221       3.8972      0.00000
    222       3.9431      0.00000
    223       4.0068      0.00000
    224       4.1046      0.00000
    225       4.1046      0.00000
    226       4.3820      0.00000
    227       4.3821      0.00000
    228       4.5183      0.00000
    229       4.5227      0.00000
    230       4.8158      0.00000
    231       4.8251      0.00000
    232       4.8252      0.00000
    233       5.1504      0.00000
    234       5.3968      0.00000
    235       5.7844      0.00000
    236       5.7845      0.00000
    237       6.0442      0.00000
    238       6.0443      0.00000
    239       6.2804      0.00000
    240       6.3222      0.00000
    241       6.3227      0.00000
    242       6.4913      0.00000
    243       6.6167      0.00000
    244       6.6187      0.00000
    245       6.6815      0.00000
    246       6.7852      0.00000
    247       6.9651      0.00000
    248       6.9794      0.00000
    249       6.9888      0.00000
    250       6.9969      0.00000
    251       7.0823      0.00000
    252       7.1651      0.00000

 k-point     2 :       0.1250   -0.0000    0.0000
  band No.  band energies     occupation 
      1      -9.6041      2.00000
      2      -9.0716      2.00000
      3      -7.9570      2.00000
      4      -6.9350      2.00000
      5      -6.6332      2.00000
      6      -6.6095      2.00000
      7      -6.4575      2.00000
      8      -6.1074      2.00000
      9      -6.0776      2.00000
     10      -5.9634      2.00000
     11      -5.9003      2.00000
     12      -5.7747      2.00000
     13      -5.7265      2.00000
     14      -5.6339      2.00000
     15      -5.5084      2.00000
     16      -5.4509      2.00000
     17      -5.4092      2.00000
     18      -5.0672      2.00000
     19      -5.0378      2.00000
     20      -4.9723      2.00000
     21      -4.9244      2.00000
     22      -4.9124      2.00000
     23      -4.8898      2.00000
     24      -4.7193      2.00000
     25      -4.6792      2.00000
     26      -4.6684      2.00000
     27      -4.6154      2.00000
     28      -4.6092      2.00000
     29      -4.5891      2.00000
     30      -4.5832      2.00000
     31      -4.5723      2.00000
     32      -4.5574      2.00000
     33      -4.5422      2.00000
     34      -4.5078      2.00000
     35      -4.4861      2.00000
     36      -4.4803      2.00000
     37      -4.4297      2.00000
     38      -4.4278      2.00000
     39      -4.4094      2.00000
     40      -4.3890      2.00000
     41      -4.3603      2.00000
     42      -4.3325      2.00000
     43      -4.3216      2.00000
     44      -4.2543      2.00000
     45      -4.2492      2.00000
     46      -4.2308      2.00000
     47      -4.2029      2.00000
     48      -4.2016      2.00000
     49      -4.1839      2.00000
     50      -4.1749      2.00000
     51      -4.1038      2.00000
     52      -4.0942      2.00000
     53      -4.0561      2.00000
     54      -4.0354      2.00000
     55      -4.0298      2.00000
     56      -3.8679      2.00000
     57      -3.8555      2.00000
     58      -3.8331      2.00000
     59      -3.8209      2.00000
     60      -3.8102      2.00000
     61      -3.7860      2.00000
     62      -3.7339      2.00000
     63      -3.7306      2.00000
     64      -3.7185      2.00000
     65      -3.7108      2.00000
     66      -3.6816      2.00000
     67      -3.6729      2.00000
     68      -3.6712      2.00000
     69      -3.6479      2.00000
     70      -3.6017      2.00000
     71      -3.5993      2.00000
     72      -3.5901      2.00000
     73      -3.5633      2.00000
     74      -3.5432      2.00000
     75      -3.5251      2.00000
     76      -3.4842      2.00000
     77      -3.4745      2.00000
     78      -3.4659      2.00000
     79      -3.4598      2.00000
     80      -3.4492      2.00000
     81      -3.4471      2.00000
     82      -3.4428      2.00000
     83      -3.4149      2.00000
     84      -3.4086      2.00000
     85      -3.4074      2.00000
     86      -3.4002      2.00000
     87      -3.3944      2.00000
     88      -3.3779      2.00000
     89      -3.3574      2.00000
     90      -3.3550      2.00000
     91      -3.3252      2.00000
     92      -3.3229      2.00000
     93      -3.2924      2.00000
     94      -3.2761      2.00000
     95      -3.2734      2.00000
     96      -3.2617      2.00000
     97      -3.2541      2.00000
     98      -3.2352      2.00000
     99      -3.2129      2.00000
    100      -3.2033      2.00000
    101      -3.1969      2.00000
    102      -3.1842      2.00000
    103      -3.1842      2.00000
    104      -3.1825      2.00000
    105      -3.1799      2.00000
    106      -3.1678      2.00000
    107      -3.1640      2.00000
    108      -3.1395      2.00000
    109      -3.1077      2.00000
    110      -3.0877      2.00000
    111      -3.0839      2.00000
    112      -3.0538      2.00000
    113      -3.0027      2.00000
    114      -2.9981      2.00000
    115      -2.9696      2.00000
    116      -2.9316      2.00000
    117      -2.9239      2.00000
    118      -2.9181      2.00000
    119      -2.9068      2.00000
    120      -2.8935      2.00000
    121      -2.8889      2.00000
    122      -2.8844      2.00000
    123      -2.8786      2.00000
    124      -2.8367      2.00000
    125      -2.7614      2.00000
    126      -2.7579      2.00000
    127      -2.7466      2.00000
    128      -2.7328      2.00000
[...]
  0.000   0.000   0.000   0.000   0.000   0.000   0.000   0.000   0.000   0.000   0.000   0.000   0.000   0.000   0.000   0.000
  0.000   0.000   0.000   0.000   0.000   0.000   0.000   0.000   0.000   0.000   0.000   0.000   0.000   0.000   0.000   0.000
  0.000   0.000   0.000   0.000   0.000   0.000   0.000   0.000   0.000   0.000   0.000   0.000   0.000   0.000   0.000   0.000
  0.000   0.000   0.000   0.000   0.000   0.000   0.000   0.000   0.000   0.000   0.000   0.000   0.000   0.000   0.000   0.000
  0.000   0.000   0.000   0.000   0.000   0.000   0.000   0.000   0.000   0.000   0.000   0.000   0.000   0.000   0.000   0.000
  0.000   0.000   0.000   0.000   0.000   0.000   0.000   0.000   0.000   0.000   1.000   0.000   0.000   0.000   0.000   0.000
  0.000   0.000   0.000   0.000   0.000   0.000   0.000   0.000   0.000   0.000   0.000   0.000   0.000   0.000   0.000   0.000
  0.000   0.000   0.000   0.000   0.000   0.000   0.000   0.000   0.000   0.000   0.000   0.000   0.000   0.000   0.000   0.000
  0.000   0.000   0.000   0.000   0.000   0.000   0.000   0.000   0.000   0.000   0.000   0.000   0.000   0.000   0.000   0.000
  0.000   0.000   0.000   0.000   0.000   0.000   0.000   0.000   0.000   0.000   0.000   0.000   0.000   0.000   0.000   0.000
  0.000   0.000   0.000   0.000   0.000   0.000   0.000   0.000   0.000   0.000   0.000   0.000   0.000   0.000   0.000   0.000
  0.000   0.000   0.000   0.000   0.000   0.000   0.000   0.000   0.000   0.000   0.000   0.000   0.000   0.000   0.000   0.000
  0.000   0.000   0.000   0.000   0.000   0.000   0.000   0.000   0.000   0.000   0.000   0.000   0.000   0.000   0.000   0.000


------------------------ aborting loop because EDIFF is reached ----------------------------------------





 total charge

# of ion       s       p       d       tot
------------------------------------------
    1        0.448   0.286   9.188   9.921
    2        0.449   0.285   9.185   9.919
    3        0.449   0.285   9.185   9.919
    4        0.449   0.285   9.185   9.919
    5        0.447   0.285   9.184   9.917
    6        0.449   0.285   9.185   9.919
    7        0.449   0.285   9.185   9.919
    8        0.449   0.285   9.185   9.919
    9        0.447   0.285   9.187   9.919
   10        0.441   0.373   9.176   9.989
   11        0.442   0.368   9.181   9.991
   12        0.441   0.373   9.176   9.989
   13        0.442   0.368   9.181   9.991
   14        0.442   0.368   9.181   9.991
   15        0.437   0.369   9.177   9.983
   16        0.441   0.373   9.176   9.989
   17        0.437   0.369   9.177   9.983
   18        0.437   0.369   9.177   9.983
   19        0.439   0.363   9.183   9.986
   20        0.458   0.399   9.172  10.029
   21        0.458   0.399   9.172  10.029
   22        0.428   0.371   9.180   9.979
   23        0.458   0.399   9.172  10.029
   24        0.428   0.371   9.180   9.979
   25        0.439   0.363   9.183   9.986
   26        0.439   0.363   9.183   9.986
   27        0.428   0.371   9.180   9.979
   28        0.449   0.289   9.184   9.922
   29        0.464   0.311   9.170   9.945
   30        0.464   0.311   9.170   9.945
   31        0.464   0.311   9.170   9.945
   32        0.464   0.311   9.170   9.945
   33        0.464   0.311   9.170   9.945
   34        0.464   0.311   9.170   9.945
   35        0.448   0.291   9.182   9.921
   36        0.742   0.630   4.494   5.866
   37        0.996   1.225   0.000   2.221
--------------------------------------------------
tot         17.390  13.596 325.754 356.741
 
    CHARGE:  cpu time    0.2620: real time    0.2621
    FORLOC:  cpu time    0.0085: real time    0.0085
    FORNL :  cpu time    1.3700: real time    1.3703
    STRESS:  cpu time    4.0701: real time    4.0703
    FORCOR:  cpu time    0.0325: real time    0.0325
    FORHAR:  cpu time    0.0133: real time    0.0133
    OFIELD:  cpu time    0.0001: real time    0.0001

  FORCE on cell =-STRESS in cart. coord.  units (eV):
  Direction    XX          YY          ZZ          XY          YZ          ZX
  --------------------------------------------------------------------------------------
  Alpha Z   799.04552   799.04552   799.04552
  Ewald  220081.15187220081.15149************     0.00037     0.00012     0.00016
  Hartree232604.63628232604.63628************     0.00003     0.00006     0.00006
  E(xc)   -2286.77479 -2286.77429 -2293.63467    -0.00043    -0.00003    -0.00006
  Local  ************************465881.33469     0.01854    -0.00057    -0.00088
  n-local  -770.30778  -757.64389  -781.88522     6.62296    -0.15922     0.33262
  augment  3311.24712  3311.26752  3335.39878    -0.01768     0.00036     0.00065
  Kinetic  3256.91353  3262.15932  3289.83315     3.63466     1.69675    -1.13373
  Fock        0.00000     0.00000     0.00000     0.00000     0.00000     0.00000
  -------------------------------------------------------------------------------------
  Total      -5.59311    -5.59311    -0.80458     0.00000     0.00000     0.00000
  in kB      -7.34216    -7.34216    -1.05618     0.00000     0.00000     0.00000
  external pressure =       -5.25 kB  Pullay stress =        0.00 kB


 VOLUME and BASIS-vectors are now :
 -----------------------------------------------------------------------------
  energy-cutoff  :      500.00
  volume of cell :     1220.51
      direct lattice vectors                 reciprocal lattice vectors
     7.696786404  0.000000000  0.000000000     0.129924354 -0.075011849  0.000000000
     3.848392758  6.665612809  0.000000000     0.000000000  0.150023716  0.000000000
     0.000000000  0.000000000 23.789778673     0.000000000  0.000000000  0.042034859

  length of vectors
     7.696786404  7.696786404 23.789778673     0.150023716  0.150023716  0.042034859


 FORCES acting on ions
    electron-ion (+dipol)            ewald-force                    non-local-force                 convergence-correction
 -----------------------------------------------------------------------------------------------
   -.424E-04 -.311E-06 0.370E+04   0.581E-04 -.429E-05 -.369E+04   0.280E-17 0.201E-17 -.234E+01   -.419E-03 -.254E-03 -.149E-01
   -.624E+00 -.728E-01 0.369E+04   0.468E+00 0.136E+00 -.369E+04   0.265E-01 -.180E-01 -.188E+01   0.125E+00 -.424E-01 -.244E-01
   0.624E+00 -.728E-01 0.369E+04   -.468E+00 0.136E+00 -.369E+04   -.265E-01 -.180E-01 -.188E+01   -.124E+00 -.399E-01 -.233E-01
   -.375E+00 -.504E+00 0.369E+04   0.352E+00 0.337E+00 -.369E+04   -.237E-02 0.320E-01 -.188E+01   0.260E-01 0.130E+00 -.244E-01
   -.640E-04 -.469E-05 0.369E+04   0.116E-03 -.101E-04 -.369E+04   -.248E-18 0.195E-17 -.196E+01   0.122E-01 0.748E-02 0.845E-02
   0.375E+00 -.504E+00 0.369E+04   -.352E+00 0.337E+00 -.369E+04   0.237E-02 0.320E-01 -.188E+01   -.277E-01 0.131E+00 -.231E-01
   0.249E+00 0.576E+00 0.369E+04   -.116E+00 -.473E+00 -.369E+04   -.289E-01 -.139E-01 -.188E+01   -.967E-01 -.878E-01 -.231E-01
   -.249E+00 0.576E+00 0.369E+04   0.116E+00 -.473E+00 -.369E+04   0.289E-01 -.139E-01 -.188E+01   0.100E+00 -.893E-01 -.230E-01
   -.144E-03 -.333E-04 0.370E+04   0.263E-03 0.204E-04 -.369E+04   -.104E-17 -.200E-17 -.222E+01   -.132E-01 -.675E-02 -.459E-01
   -.732E+00 -.423E+00 0.122E+04   0.897E+00 0.518E+00 -.122E+04   -.282E+00 -.163E+00 -.835E+00   0.975E-01 0.561E-01 0.555E-01
   -.902E-04 -.199E+01 0.121E+04   0.190E-03 0.173E+01 -.121E+04   -.815E-08 0.122E+00 -.807E+00   0.124E-01 0.101E+00 0.217E-01
   0.732E+00 -.423E+00 0.122E+04   -.897E+00 0.518E+00 -.122E+04   0.282E+00 -.163E+00 -.835E+00   -.998E-01 0.575E-01 0.567E-01
   -.172E+01 0.996E+00 0.121E+04   0.150E+01 -.864E+00 -.121E+04   0.106E+00 -.612E-01 -.807E+00   0.946E-01 -.390E-01 0.217E-01
   0.172E+01 0.996E+00 0.121E+04   -.150E+01 -.864E+00 -.121E+04   -.106E+00 -.612E-01 -.807E+00   -.705E-01 -.407E-01 0.209E-01
   -.140E-03 -.160E+01 0.122E+04   0.297E-03 0.154E+01 -.122E+04   -.487E-08 0.732E-01 -.764E+00   -.379E-02 0.648E-02 -.385E-01
   -.899E-04 0.846E+00 0.122E+04   0.186E-03 -.104E+01 -.122E+04   -.217E-07 0.326E+00 -.835E+00   -.766E-03 -.117E+00 0.569E-01
   -.139E+01 0.800E+00 0.122E+04   0.133E+01 -.767E+00 -.122E+04   0.634E-01 -.366E-01 -.764E+00   0.410E-02 -.661E-02 -.378E-01
   0.139E+01 0.801E+00 0.122E+04   -.133E+01 -.767E+00 -.122E+04   -.634E-01 -.366E-01 -.764E+00   -.267E-02 -.317E-02 -.352E-01
   -.616E-04 -.617E+01 -.126E+04   0.714E-04 0.604E+01 0.126E+04   -.540E-08 0.812E-01 0.124E+01   -.128E-01 0.329E-01 -.870E-01
   -.487E+02 -.281E+02 -.129E+04   0.481E+02 0.278E+02 0.129E+04   0.726E-01 0.419E-01 0.481E+00   0.102E+00 0.586E-01 -.350E-01
   0.487E+02 -.281E+02 -.129E+04   -.481E+02 0.278E+02 0.129E+04   -.726E-01 0.419E-01 0.481E+00   -.985E-01 0.570E-01 -.357E-01
   -.272E+02 0.157E+02 -.127E+04   0.264E+02 -.152E+02 0.127E+04   0.689E+00 -.398E+00 0.110E+01   0.180E+00 -.878E-01 -.502E-01
   -.955E-04 0.562E+02 -.129E+04   0.148E-03 -.556E+02 0.129E+04   0.558E-08 -.838E-01 0.481E+00   -.179E-03 -.114E+00 -.358E-01
   0.272E+02 0.157E+02 -.127E+04   -.264E+02 -.152E+02 0.127E+04   -.689E+00 -.398E+00 0.110E+01   -.180E+00 -.910E-01 -.502E-01
   0.535E+01 0.309E+01 -.126E+04   -.523E+01 -.302E+01 0.126E+04   -.703E-01 -.406E-01 0.124E+01   -.465E-01 -.270E-01 -.875E-01
   -.535E+01 0.309E+01 -.126E+04   0.523E+01 -.302E+01 0.126E+04   0.703E-01 -.406E-01 0.124E+01   0.232E-01 -.288E-01 -.870E-01
   -.116E-03 -.314E+02 -.127E+04   0.239E-03 0.305E+02 0.127E+04   -.530E-07 0.795E+00 0.110E+01   0.130E-01 0.199E+00 -.500E-01
   -.494E-04 0.957E-05 -.365E+04   0.420E-04 -.316E-04 0.365E+04   0.322E-17 0.665E-17 0.199E+01   -.636E-03 -.550E-03 0.173E+00
   -.332E+02 -.579E+02 -.366E+04   0.335E+02 0.582E+02 0.366E+04   -.483E+00 -.574E+00 0.243E+01   0.823E-01 0.139E+00 0.169E+00
   0.332E+02 -.579E+02 -.366E+04   -.335E+02 0.582E+02 0.366E+04   0.483E+00 -.574E+00 0.243E+01   -.809E-01 0.140E+00 0.167E+00
   -.667E+02 0.218E+00 -.366E+04   0.672E+02 -.844E-01 0.366E+04   -.739E+00 -.132E+00 0.243E+01   0.162E+00 0.167E-02 0.169E+00
   0.667E+02 0.218E+00 -.366E+04   -.672E+02 -.845E-01 0.366E+04   0.739E+00 -.132E+00 0.243E+01   -.162E+00 0.205E-02 0.169E+00
   -.336E+02 0.577E+02 -.366E+04   0.337E+02 -.581E+02 0.366E+04   -.255E+00 0.706E+00 0.243E+01   0.811E-01 -.140E+00 0.167E+00
   0.336E+02 0.577E+02 -.366E+04   -.337E+02 -.581E+02 0.366E+04   0.255E+00 0.706E+00 0.243E+01   -.784E-01 -.141E+00 0.168E+00
   -.148E-03 -.277E-04 -.367E+04   0.249E-03 0.214E-05 0.366E+04   -.460E-17 -.402E-17 0.240E+01   -.125E-01 -.601E-02 0.249E+00
   -.318E-04 -.877E-05 -.187E+04   0.757E-04 0.144E-04 0.187E+04   0.731E-17 0.194E-17 -.341E+00   0.783E-03 0.491E-03 0.520E-01
   0.531E-04 -.206E-04 -.156E+04   0.119E-04 0.542E-05 0.156E+04   -.242E-18 -.228E-18 -.645E+01   0.589E-03 0.356E-03 -.531E-01
 -----------------------------------------------------------------------------------------------
   -.175E-03 0.368E-05 0.353E+01   -.389E-13 -.243E-12 -.227E-11   -.275E-15 -.231E-17 -.436E+01   0.413E-02 0.108E-01 0.841E+00
 
 
 POSITION                                       TOTAL-FORCE (eV/Angst)
 -----------------------------------------------------------------------------------
      0.00000      0.00000      5.37156        -0.000000      0.000000      0.019828
      2.56560      0.00000      5.37156        -0.003856      0.004026      0.039259
      5.13119      0.00000      5.37156         0.003856      0.004026      0.039259
      1.28280      2.22187      5.37156         0.001559     -0.005353      0.039259
      3.84839      2.22187      5.37156        -0.000000      0.000000      0.006808
      6.41399      2.22187      5.37156        -0.001559     -0.005353      0.039259
      2.56560      4.44374      5.37156         0.005415      0.001326      0.039259
      5.13119      4.44374      5.37156        -0.005415      0.001326      0.039259
      7.69679      4.44374      5.37156        -0.000000      0.000000      0.031833
      1.28280      0.74062      7.46636        -0.017910     -0.010340     -0.049469
      3.84839      0.74062      7.46636         0.000000     -0.046169     -0.079732
      6.41399      0.74062      7.46636         0.017910     -0.010340     -0.049469
      2.56560      2.96249      7.46636        -0.039983      0.023084     -0.079732
      5.13119      2.96249      7.46636         0.039983      0.023084     -0.079732
      7.69679      2.96249      7.46636        -0.000000      0.012872      0.057265
      3.84839      5.18437      7.46636        -0.000000      0.020681     -0.049469
      6.41399      5.18437      7.46636         0.011148     -0.006436      0.057265
      8.97958      5.18437      7.46636        -0.011148     -0.006436      0.057265
      7.69679      1.48345      9.56239         0.000000     -0.011050      0.093099
      2.55319      1.47409      9.53589        -0.366141     -0.211392     -0.405434
      5.14360      1.47409      9.53589         0.366141     -0.211392     -0.405434
      8.97438      3.70612      9.57309         0.054236     -0.031313      0.044137
      3.84839      3.71744      9.53589        -0.000000      0.422784     -0.405434
      6.41919      3.70612      9.57309        -0.054236     -0.031313      0.044137
     10.26047      5.92389      9.56239         0.009569      0.005525      0.093099
      5.13310      5.92389      9.56239        -0.009569      0.005525      0.093099
      7.69679      5.91898      9.57309        -0.000000      0.062626      0.044137
      0.00000      0.00000     11.66245        -0.000000      0.000000     -0.147653
      6.40959      6.66262     11.69844        -0.072946     -0.132680     -0.012345
      8.98399      6.66262     11.69844         0.072946     -0.132680     -0.012345
      8.97479      2.21956     11.69844        -0.151377      0.003166     -0.012345
      6.41878      2.21956     11.69844         0.151377      0.003166     -0.012345
     10.26199      4.44905     11.69844        -0.078431      0.129513     -0.012345
      5.13158      4.44905     11.69844         0.078431      0.129513     -0.012345
      7.69679      4.44374     11.67118        -0.000000     -0.000000     -0.139741
      3.84839      2.22187     11.59207        -0.000000     -0.000000      1.105726
      3.84839      2.22187     13.40225        -0.000000      0.000000     -0.017883
 -----------------------------------------------------------------------------------
    total drift:                                0.003954      0.010788      0.007776


--------------------------------------------------------------------------------------------------------



  FREE ENERGIE OF THE ION-ELECTRON SYSTEM (eV)
  ---------------------------------------------------
  free  energy   TOTEN  =      -139.66247183 eV

  energy  without entropy=     -139.66247183  energy(sigma->0) =     -139.66247183
 


--------------------------------------------------------------------------------------------------------


    POTLOK:  cpu time    0.0323: real time    0.0323


--------------------------------------------------------------------------------------------------------


 stress matrix after NEB project (eV)
     -5.59311      0.00000      0.00000
      0.00000     -5.59311      0.00000
     -0.00000      0.00000     -0.80458
  FORCES: max atom, RMS     0.017883    0.002940
  FORCE total and by dimension    0.017883    0.017883
  Stress total and by dimension    7.950662    5.593107
     LOOP+:  cpu time   69.5596: real time   69.5735
 -----------------------------------------------------------------------------
|                                                                             |
|           W    W    AA    RRRRR   N    N  II  N    N   GGGG   !!!           |
|           W    W   A  A   R    R  NN   N  II  NN   N  G    G  !!!           |
|           W    W  A    A  R    R  N N  N  II  N N  N  G       !!!           |
|           W WW W  AAAAAA  RRRRR   N  N N  II  N  N N  G  GGG   !            |
|           WW  WW  A    A  R   R   N   NN  II  N   NN  G    G                |
|           W    W  A    A  R    R  N    N  II  N    N   GGGG   !!!           |
|                                                                             |
|     Tetrahedron method does not include variations of the Fermi             |
|     occupations, so forces and stress will be inaccurate. We suggest        |
|     using a different smearing scheme ISMEAR = 1 or 2 for metals in         |
|     relaxations.                                                            |
|                                                                             |
 -----------------------------------------------------------------------------

    4ORBIT:  cpu time    0.0000: real time    0.0000



 total charge

# of ion       s       p       d       tot
------------------------------------------
    1        0.448   0.286   9.188   9.921
    2        0.449   0.285   9.185   9.919
    3        0.449   0.285   9.185   9.919
    4        0.449   0.285   9.185   9.919
    5        0.447   0.285   9.184   9.917
    6        0.449   0.285   9.185   9.919
    7        0.449   0.285   9.185   9.919
    8        0.449   0.285   9.185   9.919
    9        0.447   0.285   9.187   9.919
   10        0.441   0.373   9.176   9.989
   11        0.442   0.368   9.181   9.991
   12        0.441   0.373   9.176   9.989
   13        0.442   0.368   9.181   9.991
   14        0.442   0.368   9.181   9.991
   15        0.437   0.369   9.177   9.983
   16        0.441   0.373   9.176   9.989
   17        0.437   0.369   9.177   9.983
   18        0.437   0.369   9.177   9.983
   19        0.439   0.363   9.183   9.986
   20        0.458   0.399   9.172  10.029
   21        0.458   0.399   9.172  10.029
   22        0.428   0.371   9.180   9.979
   23        0.458   0.399   9.172  10.029
   24        0.428   0.371   9.180   9.979
   25        0.439   0.363   9.183   9.986
   26        0.439   0.363   9.183   9.986
   27        0.428   0.371   9.180   9.979
   28        0.449   0.289   9.184   9.922
   29        0.464   0.311   9.170   9.945
   30        0.464   0.311   9.170   9.945
   31        0.464   0.311   9.170   9.945
   32        0.464   0.311   9.170   9.945
   33        0.464   0.311   9.170   9.945
   34        0.464   0.311   9.170   9.945
   35        0.448   0.291   9.182   9.921
   36        0.742   0.630   4.494   5.866
   37        0.996   1.225   0.000   2.221
--------------------------------------------------
tot         17.390  13.596 325.754 356.741
 
 BZINTS: Fermi energy:   -0.552175;  395.000000 electrons
         Band energy:-0.135749E+04;  BLOECHL correction:   -0.048506

 total amount of memory used by VASP MPI-rank0   112725. kBytes
=======================================================================

   base      :      30000. kBytes
   nonlr-proj:      18628. kBytes
   fftplans  :       3394. kBytes
   grid      :      14446. kBytes
   one-center:        575. kBytes
   wavefun   :      45682. kBytes
 
  
  
 General timing and accounting informations for this job:
 ========================================================
  
                  Total CPU time used (sec):       76.001
                            User time (sec):       73.296
                          System time (sec):        2.705
                         Elapsed time (sec):       76.383
  
                   Maximum memory used (kb):      357328.
                   Average memory used (kb):          N/A
  
                          Minor page faults:        78432
                          Major page faults:            0
                 Voluntary context switches:         4776
