PROCAR new format
# of k-points:   10         # of bands:  252         # of ions:   37

 k-point     1 :    0.00000000 0.00000000 0.00000000     weight = 0.01562500

band     1 # energy   -9.63448955 # occ.  2.00000000
 
ion      s      p      d    tot
    1  0.002  0.000  0.000  0.002
    2  0.002  0.000  0.000  0.002
    3  0.002  0.000  0.000  0.002
    4  0.002  0.000  0.000  0.002
    5  0.002  0.000  0.000  0.002
    6  0.002  0.000  0.000  0.002
    7  0.002  0.000  0.000  0.002
    8  0.002  0.000  0.000  0.002
    9  0.002  0.000  0.000  0.002
   10  0.009  0.000  0.000  0.009
   11  0.009  0.000  0.000  0.010
   12  0.009  0.000  0.000  0.009
   13  0.009  0.000  0.000  0.010
   14  0.009  0.000  0.000  0.010
   15  0.008  0.000  0.000  0.008
   16  0.009  0.000  0.000  0.009
   17  0.008  0.000  0.000  0.008
   18  0.008  0.000  0.000  0.008
   19  0.013  0.000  0.000  0.013
   20  0.023  0.001  0.001  0.024
   21  0.023  0.001  0.001  0.024
   22  0.013  0.000  0.000  0.013
   23  0.023  0.001  0.001  0.024
   24  0.013  0.000  0.000  0.013
   25  0.013  0.000  0.000  0.013
   26  0.013  0.000  0.000  0.013
   27  0.013  0.000  0.000  0.013
   28  0.005  0.000  0.000  0.006
   29  0.009  0.000  0.000  0.009
   30  0.009  0.000  0.000  0.009
   31  0.009  0.000  0.000  0.009
   32  0.009  0.000  0.000  0.009
   33  0.009  0.000  0.000  0.009
   34  0.009  0.000  0.000  0.009
   35  0.005  0.000  0.000  0.005
   36  0.117  0.012  0.061  0.190
   37  0.181  0.010  0.000  0.190
tot    0.600  0.031  0.066  0.696
 
band     2 # energy   -9.09897391 # occ.  2.00000000
 
ion      s      p      d    tot
    1  0.007  0.001  0.000  0.007
    2  0.007  0.001  0.000  0.007
    3  0.007  0.001  0.000  0.007
    4  0.007  0.001  0.000  0.007
    5  0.006  0.001  0.000  0.007
    6  0.007  0.001  0.000  0.007
    7  0.007  0.001  0.000  0.007
    8  0.007  0.001  0.000  0.007
    9  0.007  0.001  0.000  0.007
   10  0.018  0.000  0.000  0.018
   11  0.017  0.000  0.000  0.017
   12  0.018  0.000  0.000  0.018
   13  0.017  0.000  0.000  0.017
   14  0.017  0.000  0.000  0.017
   15  0.019  0.000  0.000  0.019
   16  0.018  0.000  0.000  0.018
   17  0.019  0.000  0.000  0.019
   18  0.019  0.000  0.000  0.019
   19  0.011  0.000  0.000  0.011
   20  0.005  0.002  0.001  0.007
   21  0.005  0.002  0.001  0.007
   22  0.010  0.000  0.000  0.010
   23  0.005  0.002  0.001  0.007
   24  0.010  0.000  0.000  0.010
   25  0.011  0.000  0.000  0.011
   26  0.011  0.000  0.000  0.011
   27  0.010  0.000  0.000  0.010
   28  0.001  0.000  0.000  0.002
   29  0.000  0.001  0.000  0.001
   30  0.000  0.001  0.000  0.001
   31  0.000  0.001  0.000  0.001
   32  0.000  0.001  0.000  0.001
   33  0.000  0.001  0.000  0.001
   34  0.000  0.001  0.000  0.001
   35  0.001  0.000  0.000  0.002
   36  0.044  0.030  0.074  0.147
   37  0.203  0.008  0.000  0.211
tot    0.546  0.056  0.080  0.682
 
band     3 # energy   -8.00396479 # occ.  2.00000000
 
ion      s      p      d    tot
    1  0.016  0.001  0.000  0.017
    2  0.016  0.001  0.001  0.017
    3  0.016  0.001  0.001  0.017
    4  0.016  0.001  0.001  0.017
    5  0.016  0.001  0.000  0.018
    6  0.016  0.001  0.001  0.017
    7  0.016  0.001  0.001  0.017
    8  0.016  0.001  0.001  0.017
    9  0.016  0.001  0.001  0.017
   10  0.008  0.002  0.000  0.010
   11  0.008  0.002  0.000  0.011
   12  0.008  0.002  0.000  0.010
   13  0.008  0.002  0.000  0.011
   14  0.008  0.002  0.000  0.011
   15  0.007  0.002  0.000  0.010
   16  0.008  0.002  0.000  0.010
   17  0.007  0.002  0.000  0.010
   18  0.007  0.002  0.000  0.010
   19  0.012  0.002  0.001  0.015
   20  0.007  0.002  0.001  0.010
   21  0.007  0.002  0.001  0.010
   22  0.012  0.002  0.001  0.015
   23  0.007  0.002  0.001  0.010
   24  0.012  0.002  0.001  0.015
   25  0.012  0.002  0.001  0.015
   26  0.012  0.002  0.001  0.015
   27  0.012  0.002  0.001  0.015
   28  0.020  0.001  0.000  0.021
   29  0.017  0.001  0.001  0.018
   30  0.017  0.001  0.001  0.018
   31  0.017  0.001  0.001  0.018
   32  0.017  0.001  0.001  0.018
   33  0.017  0.001  0.001  0.018
   34  0.017  0.001  0.001  0.018
   35  0.019  0.001  0.000  0.021
   36  0.003  0.011  0.034  0.048
   37  0.041  0.001  0.000  0.042
tot    0.494  0.063  0.054  0.611
 
band     4 # energy   -6.53569358 # occ.  2.00000000
 
ion      s      p      d    tot
    1  0.015  0.000  0.005  0.020
    2  0.014  0.000  0.005  0.019
    3  0.014  0.000  0.005  0.019
    4  0.014  0.000  0.005  0.019
    5  0.007  0.000  0.006  0.013
    6  0.014  0.000  0.005  0.019
    7  0.014  0.000  0.005  0.019
    8  0.014  0.000  0.005  0.019
    9  0.023  0.000  0.003  0.026
   10  0.003  0.003  0.002  0.008
   11  0.009  0.005  0.001  0.014
   12  0.003  0.003  0.002  0.008
   13  0.009  0.005  0.001  0.014
   14  0.009  0.005  0.001  0.014
   15  0.000  0.003  0.003  0.005
   16  0.003  0.003  0.002  0.008
   17  0.000  0.003  0.003  0.005
   18  0.000  0.003  0.003  0.005
   19  0.002  0.003  0.005  0.010
   20  0.019  0.004  0.006  0.029
   21  0.019  0.004  0.006  0.029
   22  0.001  0.003  0.004  0.008
   23  0.019  0.004  0.006  0.029
   24  0.001  0.003  0.004  0.008
   25  0.002  0.003  0.005  0.010
   26  0.002  0.003  0.005  0.010
   27  0.001  0.003  0.004  0.008
   28  0.019  0.000  0.006  0.025
   29  0.017  0.000  0.008  0.025
   30  0.017  0.000  0.008  0.025
   31  0.017  0.000  0.008  0.025
   32  0.017  0.000  0.008  0.025
   33  0.017  0.000  0.008  0.025
   34  0.017  0.000  0.008  0.025
   35  0.024  0.000  0.006  0.030
   36  0.005  0.001  0.035  0.041
   37  0.000  0.001  0.000  0.001
tot    0.381  0.067  0.196  0.644
 
band     5 # energy   -6.42470737 # occ.  2.00000000
 
ion      s      p      d    tot
    1  0.000  0.002  0.005  0.007
    2  0.008  0.002  0.002  0.012
    3  0.001  0.001  0.002  0.004
    4  0.008  0.002  0.002  0.012
    5  0.000  0.002  0.003  0.006
    6  0.004  0.001  0.002  0.007
    7  0.001  0.001  0.002  0.003
    8  0.003  0.001  0.002  0.006
    9  0.000  0.000  0.002  0.002
   10  0.053  0.005  0.003  0.061
   11  0.006  0.010  0.005  0.020
   12  0.016  0.002  0.011  0.029
   13  0.009  0.009  0.005  0.022
   14  0.030  0.001  0.006  0.037
   15  0.001  0.005  0.006  0.012
   16  0.011  0.002  0.012  0.024
   17  0.001  0.005  0.006  0.012
   18  0.003  0.002  0.003  0.008
   19  0.005  0.011  0.003  0.018
   20  0.071  0.003  0.007  0.082
   21  0.021  0.003  0.015  0.039
   22  0.003  0.004  0.008  0.015
   23  0.015  0.003  0.016  0.034
   24  0.010  0.003  0.003  0.016
   25  0.022  0.000  0.007  0.029
   26  0.007  0.010  0.003  0.019
   27  0.002  0.004  0.009  0.015
   28  0.000  0.002  0.003  0.006
   29  0.011  0.003  0.004  0.018
   30  0.004  0.001  0.003  0.008
   31  0.011  0.003  0.004  0.018
   32  0.003  0.001  0.004  0.008
   33  0.003  0.001  0.003  0.007
   34  0.002  0.001  0.004  0.006
   35  0.000  0.000  0.003  0.003
   36  0.000  0.006  0.018  0.025
   37  0.000  0.000  0.000  0.000
tot    0.342  0.113  0.195  0.650
 
band     6 # energy   -6.42450226 # occ.  2.00000000
 
ion      s      p      d    tot
    1  0.000  0.002  0.005  0.007
    2  0.000  0.001  0.002  0.003
    3  0.007  0.002  0.002  0.011
    4  0.000  0.001  0.002  0.003
    5  0.000  0.002  0.003  0.006
    6  0.005  0.001  0.002  0.008
    7  0.008  0.002  0.002  0.012
    8  0.005  0.002  0.002  0.009
    9  0.000  0.000  0.002  0.002
   10  0.000  0.001  0.014  0.015
   11  0.024  0.003  0.006  0.032
   12  0.037  0.004  0.006  0.047
   13  0.021  0.004  0.006  0.031
   14  0.000  0.012  0.004  0.016
   15  0.002  0.003  0.004  0.009
   16  0.042  0.004  0.006  0.051
   17  0.002  0.003  0.004  0.010
   18  0.000  0.006  0.007  0.013
   19  0.018  0.003  0.006  0.026
   20  0.000  0.003  0.019  0.022
   21  0.050  0.003  0.010  0.064
   22  0.007  0.004  0.005  0.016
   23  0.057  0.003  0.009  0.069
   24  0.000  0.004  0.011  0.015
   25  0.000  0.013  0.002  0.015
   26  0.016  0.004  0.005  0.025
   27  0.008  0.004  0.004  0.016
   28  0.000  0.002  0.003  0.006
   29  0.000  0.001  0.003  0.004
   30  0.007  0.002  0.004  0.013
   31  0.000  0.001  0.003  0.004
   32  0.008  0.002  0.003  0.014
   33  0.008  0.003  0.004  0.015
   34  0.009  0.003  0.003  0.015
   35  0.000  0.000  0.003  0.003
   36  0.000  0.006  0.018  0.025
   37  0.000  0.000  0.000  0.000
tot    0.342  0.113  0.195  0.650
 
band     7 # energy   -6.36101508 # occ.  2.00000000
 
ion      s      p      d    tot
    1  0.000  0.001  0.002  0.003
    2  0.009  0.002  0.002  0.013
    3  0.002  0.001  0.002  0.005
    4  0.009  0.002  0.002  0.014
    5  0.000  0.001  0.004  0.005
    6  0.005  0.002  0.002  0.008
    7  0.001  0.001  0.002  0.003
    8  0.003  0.001  0.002  0.006
    9  0.000  0.003  0.005  0.008
   10  0.000  0.012  0.002  0.014
   11  0.023  0.004  0.004  0.031
   12  0.003  0.004  0.004  0.011
   13  0.019  0.003  0.006  0.028
   14  0.000  0.001  0.014  0.015
   15  0.044  0.003  0.006  0.053
   16  0.004  0.002  0.005  0.011
   17  0.036  0.004  0.006  0.046
   18  0.000  0.007  0.010  0.017
   19  0.034  0.004  0.005  0.042
   20  0.000  0.013  0.002  0.015
   21  0.001  0.005  0.005  0.010
   22  0.036  0.004  0.006  0.046
   23  0.001  0.003  0.005  0.009
   24  0.000  0.009  0.007  0.017
   25  0.000  0.000  0.017  0.017
   26  0.027  0.003  0.007  0.037
   27  0.045  0.003  0.006  0.053
   28  0.000  0.002  0.005  0.007
   29  0.013  0.003  0.003  0.019
   30  0.004  0.002  0.004  0.009
   31  0.013  0.003  0.003  0.019
   32  0.005  0.001  0.003  0.010
   33  0.002  0.002  0.004  0.007
   34  0.003  0.001  0.003  0.007
   35  0.000  0.004  0.005  0.009
   36  0.000  0.001  0.009  0.010
   37  0.000  0.000  0.000  0.000
tot    0.341  0.116  0.180  0.637
 
band     8 # energy   -6.36078978 # occ.  2.00000000
 
ion      s      p      d    tot
    1  0.000  0.001  0.002  0.003
    2  0.001  0.001  0.002  0.003
    3  0.008  0.002  0.002  0.012
    4  0.000  0.001  0.002  0.003
    5  0.000  0.001  0.004  0.005
    6  0.005  0.002  0.002  0.008
    7  0.009  0.002  0.002  0.013
    8  0.006  0.002  0.002  0.010
    9  0.000  0.003  0.005  0.008
   10  0.004  0.001  0.006  0.010
   11  0.005  0.001  0.012  0.018
   12  0.001  0.008  0.003  0.013
   13  0.010  0.002  0.010  0.021
   14  0.028  0.004  0.002  0.034
   15  0.009  0.006  0.009  0.024
   16  0.001  0.010  0.003  0.013
   17  0.018  0.005  0.008  0.031
   18  0.054  0.003  0.005  0.061
   19  0.007  0.001  0.014  0.023
   20  0.001  0.001  0.006  0.008
   21  0.000  0.009  0.003  0.012
   22  0.018  0.007  0.007  0.031
   23  0.000  0.011  0.003  0.014
   24  0.053  0.002  0.005  0.061
   25  0.040  0.005  0.002  0.047
   26  0.014  0.002  0.012  0.027
   27  0.010  0.008  0.007  0.024
   28  0.000  0.002  0.005  0.007
   29  0.000  0.001  0.003  0.005
   30  0.010  0.002  0.003  0.014
   31  0.000  0.001  0.003  0.005
   32  0.008  0.002  0.004  0.014
   33  0.012  0.002  0.003  0.017
   34  0.010  0.003  0.004  0.016
   35  0.000  0.004  0.005  0.009
   36  0.000  0.001  0.009  0.010
   37  0.000  0.000  0.000  0.000
tot    0.341  0.116  0.180  0.637
 
band     9 # energy   -6.34811931 # occ.  2.00000000
 
ion      s      p      d    tot
    1  0.020  0.003  0.001  0.025
    2  0.000  0.002  0.004  0.006
    3  0.000  0.002  0.004  0.006
    4  0.000  0.002  0.004  0.006
    5  0.006  0.001  0.000  0.007
    6  0.000  0.002  0.004  0.006
    7  0.000  0.002  0.004  0.006
    8  0.000  0.002  0.004  0.006
    9  0.006  0.001  0.000  0.006
   10  0.031  0.008  0.003  0.042
   11  0.011  0.000  0.012  0.023
   12  0.031  0.008  0.003  0.042
   13  0.011  0.000  0.012  0.023
   14  0.011  0.000  0.012  0.023
   15  0.005  0.006  0.005  0.016
   16  0.031  0.008  0.003  0.042
   17  0.005  0.006  0.005  0.016
   18  0.005  0.006  0.005  0.016
   19  0.028  0.009  0.002  0.039
   20  0.001  0.004  0.010  0.015
   21  0.001  0.004  0.010  0.015
   22  0.017  0.001  0.011  0.028
   23  0.001  0.004  0.010  0.015
   24  0.017  0.001  0.011  0.028
   25  0.028  0.009  0.002  0.039
   26  0.028  0.009  0.002  0.039
   27  0.017  0.001  0.011  0.028
   28  0.019  0.003  0.001  0.023
   29  0.000  0.002  0.004  0.006
   30  0.000  0.002  0.004  0.006
   31  0.000  0.002  0.004  0.006
   32  0.000  0.002  0.004  0.006
   33  0.000  0.002  0.004  0.006
   34  0.000  0.002  0.004  0.006
   35  0.010  0.002  0.001  0.012
   36  0.002  0.001  0.001  0.004
   37  0.001  0.000  0.000  0.001
tot    0.342  0.114  0.185  0.641
 
band    10 # energy   -6.31329433 # occ.  2.00000000
 
ion      s      p      d    tot
    1  0.001  0.000  0.000  0.002
    2  0.002  0.002  0.005  0.008
    3  0.002  0.002  0.005  0.008
    4  0.002  0.002  0.005  0.008
    5  0.028  0.002  0.000  0.030
    6  0.002  0.002  0.005  0.008
    7  0.002  0.002  0.005  0.008
    8  0.002  0.002  0.005  0.008
    9  0.007  0.003  0.003  0.013
   10  0.000  0.002  0.011  0.013
   11  0.014  0.009  0.003  0.026
   12  0.000  0.002  0.011  0.013
   13  0.014  0.009  0.003  0.026
   14  0.014  0.009  0.003  0.026
   15  0.032  0.004  0.007  0.043
   16  0.000  0.002  0.011  0.013
   17  0.032  0.004  0.007  0.043
   18  0.032  0.004  0.007  0.043
   19  0.004  0.001  0.009  0.014
   20  0.018  0.003  0.008  0.030
   21  0.018  0.003  0.008  0.030
   22  0.017  0.008  0.002  0.027
   23  0.018  0.003  0.008  0.030
   24  0.017  0.008  0.002  0.027
   25  0.004  0.001  0.009  0.014
   26  0.004  0.001  0.009  0.014
   27  0.017  0.008  0.002  0.027
   28  0.001  0.000  0.002  0.003
   29  0.002  0.001  0.005  0.008
   30  0.002  0.001  0.005  0.008
   31  0.002  0.001  0.005  0.008
   32  0.002  0.001  0.005  0.008
   33  0.002  0.001  0.005  0.008
   34  0.002  0.001  0.005  0.008
   35  0.003  0.002  0.002  0.006
   36  0.020  0.010  0.006  0.036
   37  0.011  0.000  0.000  0.011
tot    0.349  0.115  0.197  0.661
 
band    11 # energy   -5.68031899 # occ.  2.00000000
 
ion      s      p      d    tot
    1  0.000  0.002  0.009  0.011
    2  0.017  0.003  0.005  0.025
    3  0.004  0.002  0.004  0.010
    4  0.018  0.003  0.005  0.026
    5  0.000  0.001  0.009  0.009
    6  0.009  0.002  0.005  0.015
    7  0.002  0.002  0.004  0.007
    8  0.005  0.002  0.004  0.012
    9  0.000  0.005  0.008  0.013
   10  0.000  0.005  0.012  0.017
   11  0.009  0.002  0.008  0.019
   12  0.002  0.002  0.009  0.013
   13  0.007  0.002  0.009  0.018
   14  0.000  0.001  0.016  0.017
   15  0.021  0.003  0.007  0.031
   16  0.003  0.001  0.008  0.012
   17  0.017  0.003  0.009  0.029
   18  0.000  0.001  0.019  0.021
   19  0.006  0.004  0.009  0.019
   20  0.000  0.003  0.030  0.033
   21  0.000  0.001  0.017  0.019
   22  0.008  0.004  0.011  0.023
   23  0.000  0.001  0.014  0.015
   24  0.000  0.001  0.026  0.027
   25  0.000  0.000  0.009  0.009
   26  0.005  0.003  0.009  0.017
   27  0.010  0.004  0.007  0.022
   28  0.000  0.003  0.009  0.012
   29  0.023  0.003  0.010  0.037
   30  0.003  0.003  0.011  0.017
   31  0.026  0.003  0.009  0.039
   32  0.016  0.002  0.009  0.027
   33  0.001  0.002  0.011  0.014
   34  0.010  0.001  0.010  0.022
   35  0.000  0.006  0.007  0.013
   36  0.000  0.001  0.039  0.040
   37  0.000  0.000  0.000  0.000
tot    0.224  0.090  0.396  0.710
 
band    12 # energy   -5.68020977 # occ.  2.00000000
 
ion      s      p      d    tot
    1  0.000  0.002  0.009  0.011
    2  0.001  0.002  0.004  0.007
    3  0.014  0.003  0.005  0.022
    4  0.000  0.001  0.004  0.006
    5  0.000  0.001  0.009  0.009
    6  0.010  0.002  0.004  0.016
    7  0.017  0.003  0.005  0.025
    8  0.013  0.003  0.004  0.020
    9  0.000  0.005  0.008  0.013
   10  0.004  0.000  0.007  0.011
   11  0.002  0.001  0.014  0.017
   12  0.001  0.003  0.010  0.015
   13  0.004  0.002  0.012  0.018
   14  0.010  0.002  0.006  0.019
   15  0.004  0.002  0.017  0.023
   16  0.001  0.004  0.011  0.016
   17  0.009  0.002  0.014  0.025
   18  0.025  0.004  0.004  0.033
   19  0.001  0.001  0.009  0.011
   20  0.000  0.000  0.011  0.011
   21  0.000  0.002  0.024  0.026
   22  0.004  0.002  0.018  0.025
   23  0.000  0.003  0.027  0.030
   24  0.012  0.005  0.003  0.020
   25  0.007  0.005  0.009  0.021
   26  0.002  0.002  0.009  0.013
   27  0.002  0.002  0.022  0.026
   28  0.000  0.003  0.009  0.012
   29  0.003  0.002  0.011  0.015
   30  0.023  0.002  0.009  0.034
   31  0.001  0.002  0.011  0.013
   32  0.011  0.003  0.011  0.025
   33  0.026  0.003  0.009  0.038
   34  0.016  0.004  0.011  0.030
   35  0.000  0.006  0.007  0.013
   36  0.000  0.001  0.039  0.040
   37  0.000  0.000  0.000  0.000
tot    0.224  0.090  0.396  0.710
 
band    13 # energy   -5.67540606 # occ.  2.00000000
 
ion      s      p      d    tot
    1  0.005  0.001  0.011  0.016
    2  0.006  0.001  0.010  0.017
    3  0.006  0.001  0.010  0.017
    4  0.006  0.001  0.010  0.017
    5  0.002  0.001  0.010  0.013
    6  0.006  0.001  0.010  0.017
    7  0.006  0.001  0.010  0.017
    8  0.006  0.001  0.010  0.017
    9  0.015  0.000  0.009  0.023
   10  0.009  0.000  0.025  0.035
   11  0.010  0.000  0.023  0.033
   12  0.009  0.000  0.025  0.035
   13  0.010  0.000  0.023  0.033
   14  0.010  0.000  0.023  0.033
   15  0.004  0.000  0.022  0.026
   16  0.009  0.000  0.025  0.035
   17  0.004  0.000  0.022  0.026
   18  0.004  0.000  0.022  0.026
   19  0.005  0.000  0.017  0.023
   20  0.008  0.001  0.031  0.039
   21  0.008  0.001  0.031  0.039
   22  0.003  0.000  0.016  0.020
   23  0.008  0.001  0.031  0.039
   24  0.003  0.000  0.016  0.019
   25  0.005  0.000  0.017  0.023
   26  0.005  0.000  0.017  0.023
   27  0.003  0.000  0.016  0.020
   28  0.001  0.001  0.005  0.007
   29  0.003  0.000  0.007  0.010
   30  0.003  0.000  0.007  0.010
   31  0.003  0.000  0.007  0.010
   32  0.003  0.000  0.007  0.010
   33  0.003  0.000  0.007  0.010
   34  0.003  0.000  0.007  0.010
   35  0.005  0.000  0.005  0.010
   36  0.001  0.002  0.018  0.021
   37  0.000  0.001  0.000  0.001
tot    0.203  0.015  0.563  0.781
 
band    14 # energy   -5.62820374 # occ.  2.00000000
 
ion      s      p      d    tot
    1  0.000  0.004  0.009  0.014
    2  0.022  0.004  0.006  0.032
    3  0.005  0.002  0.005  0.012
    4  0.022  0.004  0.006  0.032
    5  0.000  0.005  0.011  0.016
    6  0.009  0.003  0.006  0.017
    7  0.003  0.002  0.005  0.010
    8  0.006  0.002  0.006  0.015
    9  0.000  0.000  0.012  0.012
   10  0.024  0.005  0.007  0.037
   11  0.003  0.003  0.021  0.027
   12  0.007  0.002  0.018  0.027
   13  0.005  0.003  0.019  0.027
   14  0.016  0.002  0.006  0.024
   15  0.000  0.003  0.014  0.017
   16  0.005  0.001  0.020  0.026
   17  0.000  0.003  0.013  0.016
   18  0.001  0.001  0.009  0.010
   19  0.001  0.002  0.021  0.024
   20  0.018  0.006  0.006  0.030
   21  0.005  0.002  0.022  0.029
   22  0.001  0.002  0.011  0.013
   23  0.004  0.001  0.024  0.029
   24  0.003  0.002  0.010  0.014
   25  0.005  0.001  0.005  0.011
   26  0.002  0.002  0.019  0.022
   27  0.001  0.001  0.011  0.013
   28  0.000  0.003  0.009  0.013
   29  0.017  0.004  0.007  0.028
   30  0.003  0.002  0.005  0.010
   31  0.018  0.004  0.007  0.028
   32  0.008  0.002  0.007  0.017
   33  0.002  0.001  0.005  0.009
   34  0.006  0.002  0.007  0.014
   35  0.000  0.000  0.011  0.011
   36  0.000  0.009  0.015  0.024
   37  0.000  0.000  0.000  0.000
tot    0.222  0.097  0.392  0.711
 
band    15 # energy   -5.62809356 # occ.  2.00000000
 
ion      s      p      d    tot
    1  0.000  0.004  0.009  0.014
    2  0.001  0.002  0.005  0.008
    3  0.018  0.004  0.006  0.027
    4  0.000  0.002  0.005  0.007
    5  0.000  0.005  0.011  0.016
    6  0.014  0.003  0.005  0.022
    7  0.020  0.004  0.006  0.029
    8  0.016  0.003  0.005  0.025
    9  0.000  0.000  0.012  0.012
   10  0.000  0.000  0.023  0.023
   11  0.013  0.003  0.010  0.025
   12  0.017  0.004  0.012  0.032
   13  0.011  0.003  0.011  0.025
   14  0.000  0.003  0.025  0.028
   15  0.001  0.001  0.010  0.012
   16  0.019  0.004  0.010  0.034
   17  0.001  0.002  0.011  0.013
   18  0.000  0.004  0.015  0.019
   19  0.004  0.001  0.009  0.014
   20  0.000  0.000  0.029  0.029
   21  0.013  0.005  0.013  0.030
   22  0.002  0.002  0.010  0.014
   23  0.014  0.005  0.010  0.030
   24  0.000  0.001  0.011  0.013
   25  0.000  0.002  0.025  0.027
   26  0.004  0.002  0.011  0.016
   27  0.002  0.002  0.010  0.014
   28  0.000  0.003  0.009  0.013
   29  0.001  0.001  0.006  0.008
   30  0.015  0.003  0.007  0.025
   31  0.000  0.001  0.006  0.007
   32  0.011  0.002  0.006  0.019
   33  0.016  0.003  0.007  0.027
   34  0.012  0.003  0.006  0.021
   35  0.000  0.000  0.011  0.011
   36  0.000  0.009  0.015  0.024
   37  0.000  0.000  0.000  0.000
tot    0.222  0.097  0.392  0.711
 
band    16 # energy   -5.60158247 # occ.  2.00000000
 
ion      s      p      d    tot
    1  0.038  0.004  0.000  0.042
    2  0.000  0.003  0.010  0.013
    3  0.000  0.003  0.010  0.013
    4  0.000  0.003  0.010  0.013
    5  0.000  0.000  0.001  0.001
    6  0.000  0.003  0.010  0.013
    7  0.000  0.003  0.010  0.013
    8  0.000  0.003  0.010  0.013
    9  0.024  0.003  0.001  0.028
   10  0.009  0.004  0.011  0.024
   11  0.002  0.000  0.014  0.017
   12  0.009  0.004  0.011  0.024
   13  0.002  0.000  0.014  0.017
   14  0.002  0.000  0.014  0.017
   15  0.006  0.003  0.016  0.025
   16  0.009  0.004  0.011  0.024
   17  0.006  0.003  0.016  0.025
   18  0.006  0.003  0.016  0.025
   19  0.005  0.004  0.017  0.026
   20  0.000  0.000  0.018  0.018
   21  0.000  0.000  0.018  0.018
   22  0.010  0.003  0.009  0.022
   23  0.000  0.000  0.018  0.018
   24  0.010  0.003  0.009  0.022
   25  0.005  0.004  0.017  0.026
   26  0.005  0.004  0.017  0.026
   27  0.010  0.003  0.009  0.022
   28  0.041  0.003  0.000  0.045
   29  0.000  0.003  0.012  0.015
   30  0.000  0.003  0.012  0.015
   31  0.000  0.003  0.012  0.015
   32  0.000  0.003  0.012  0.015
   33  0.000  0.003  0.012  0.015
   34  0.000  0.003  0.012  0.015
   35  0.023  0.003  0.001  0.027
   36  0.001  0.001  0.000  0.002
   37  0.000  0.000  0.000  0.000
tot    0.226  0.090  0.391  0.706
 
band    17 # energy   -5.54205028 # occ.  2.00000000
 
ion      s      p      d    tot
    1  0.006  0.001  0.000  0.007
    2  0.000  0.003  0.010  0.013
    3  0.000  0.003  0.010  0.013
    4  0.000  0.003  0.010  0.013
    5  0.043  0.004  0.000  0.046
    6  0.000  0.003  0.010  0.013
    7  0.000  0.003  0.010  0.013
    8  0.000  0.003  0.010  0.013
    9  0.011  0.002  0.001  0.014
   10  0.001  0.001  0.019  0.020
   11  0.006  0.004  0.016  0.026
   12  0.001  0.001  0.019  0.020
   13  0.006  0.004  0.016  0.026
   14  0.006  0.004  0.016  0.026
   15  0.006  0.002  0.009  0.017
   16  0.001  0.001  0.019  0.020
   17  0.006  0.002  0.009  0.017
   18  0.006  0.002  0.009  0.017
   19  0.006  0.001  0.014  0.020
   20  0.009  0.004  0.011  0.024
   21  0.009  0.004  0.011  0.024
   22  0.003  0.002  0.018  0.023
   23  0.009  0.004  0.011  0.024
   24  0.003  0.002  0.018  0.023
   25  0.006  0.001  0.014  0.020
   26  0.006  0.001  0.014  0.020
   27  0.003  0.002  0.018  0.023
   28  0.003  0.001  0.002  0.005
   29  0.000  0.003  0.016  0.019
   30  0.000  0.003  0.016  0.019
   31  0.000  0.003  0.016  0.019
   32  0.000  0.003  0.016  0.019
   33  0.000  0.003  0.016  0.019
   34  0.000  0.003  0.016  0.019
   35  0.013  0.002  0.001  0.016
   36  0.047  0.015  0.006  0.068
   37  0.011  0.000  0.000  0.011
tot    0.229  0.097  0.424  0.750
 
band    18 # energy   -5.05758188 # occ.  2.00000000
 
ion      s      p      d    tot
    1  0.000  0.001  0.026  0.027
    2  0.015  0.002  0.007  0.024
    3  0.007  0.001  0.007  0.016
    4  0.015  0.002  0.007  0.024
    5  0.000  0.001  0.012  0.013
    6  0.002  0.001  0.007  0.011
    7  0.006  0.001  0.007  0.014
    8  0.001  0.001  0.007  0.009
    9  0.000  0.003  0.004  0.008
   10  0.000  0.000  0.058  0.058
   11  0.000  0.004  0.016  0.019
   12  0.000  0.000  0.021  0.021
   13  0.000  0.003  0.014  0.017
   14  0.000  0.000  0.004  0.004
   15  0.000  0.005  0.014  0.019
   16  0.000  0.000  0.016  0.016
   17  0.000  0.004  0.015  0.020
   18  0.000  0.000  0.028  0.028
   19  0.005  0.003  0.010  0.018
   20  0.000  0.000  0.071  0.071
   21  0.000  0.000  0.033  0.034
   22  0.003  0.001  0.015  0.020
   23  0.000  0.000  0.028  0.029
   24  0.000  0.000  0.012  0.012
   25  0.000  0.000  0.019  0.019
   26  0.005  0.002  0.011  0.019
   27  0.003  0.002  0.016  0.021
   28  0.000  0.001  0.004  0.005
   29  0.006  0.000  0.021  0.028
   30  0.000  0.001  0.018  0.019
   31  0.007  0.000  0.022  0.029
   32  0.011  0.000  0.020  0.031
   33  0.001  0.001  0.018  0.019
   34  0.010  0.000  0.019  0.029
   35  0.000  0.001  0.009  0.009
   36  0.000  0.000  0.055  0.055
   37  0.000  0.000  0.000  0.000
tot    0.099  0.043  0.672  0.815
 
band    19 # energy   -5.05746698 # occ.  2.00000000
 
ion      s      p      d    tot
    1  0.000  0.001  0.026  0.027
    2  0.000  0.001  0.007  0.008
    3  0.008  0.001  0.007  0.017
    4  0.001  0.001  0.007  0.009
    5  0.000  0.001  0.012  0.013
    6  0.013  0.001  0.007  0.022
    7  0.010  0.001  0.007  0.019
    8  0.014  0.002  0.007  0.023
    9  0.000  0.003  0.004  0.008
   10  0.000  0.000  0.006  0.006
   11  0.000  0.001  0.007  0.008
   12  0.000  0.000  0.042  0.042
   13  0.000  0.001  0.008  0.009
   14  0.000  0.004  0.019  0.023
   15  0.000  0.001  0.025  0.026
   16  0.000  0.000  0.047  0.047
   17  0.000  0.002  0.023  0.025
   18  0.000  0.006  0.010  0.016
   19  0.001  0.001  0.017  0.019
   20  0.000  0.000  0.017  0.018
   21  0.000  0.000  0.055  0.055
   22  0.001  0.001  0.013  0.015
   23  0.000  0.000  0.060  0.060
   24  0.004  0.002  0.017  0.023
   25  0.007  0.003  0.008  0.018
   26  0.002  0.001  0.016  0.019
   27  0.001  0.001  0.013  0.014
   28  0.000  0.001  0.004  0.005
   29  0.005  0.001  0.018  0.024
   30  0.012  0.000  0.021  0.033
   31  0.004  0.001  0.018  0.023
   32  0.001  0.001  0.020  0.021
   33  0.011  0.000  0.022  0.033
   34  0.002  0.001  0.020  0.023
   35  0.000  0.001  0.009  0.009
   36  0.000  0.000  0.055  0.055
   37  0.000  0.000  0.000  0.000
tot    0.099  0.043  0.672  0.815
 
band    20 # energy   -4.94888404 # occ.  2.00000000
 
ion      s      p      d    tot
    1  0.006  0.000  0.000  0.006
    2  0.000  0.001  0.013  0.014
    3  0.000  0.001  0.013  0.014
    4  0.000  0.001  0.013  0.014
    5  0.024  0.001  0.001  0.026
    6  0.000  0.001  0.013  0.014
    7  0.000  0.001  0.013  0.014
    8  0.000  0.001  0.013  0.014
    9  0.006  0.000  0.001  0.007
   10  0.000  0.000  0.007  0.008
   11  0.000  0.002  0.035  0.037
   12  0.000  0.000  0.007  0.008
   13  0.000  0.002  0.035  0.037
   14  0.000  0.002  0.035  0.037
   15  0.000  0.002  0.010  0.012
   16  0.000  0.000  0.007  0.008
   17  0.000  0.002  0.010  0.012
   18  0.000  0.002  0.010  0.012
   19  0.000  0.000  0.007  0.008
   20  0.001  0.003  0.036  0.039
   21  0.001  0.003  0.036  0.039
   22  0.001  0.002  0.033  0.036
   23  0.001  0.003  0.036  0.039
   24  0.001  0.002  0.033  0.036
   25  0.000  0.000  0.007  0.008
   26  0.000  0.000  0.007  0.008
   27  0.001  0.002  0.033  0.036
   28  0.001  0.000  0.001  0.002
   29  0.000  0.002  0.031  0.033
   30  0.000  0.002  0.031  0.033
   31  0.000  0.002  0.031  0.033
   32  0.000  0.002  0.031  0.033
   33  0.000  0.002  0.031  0.033
   34  0.000  0.002  0.031  0.033
   35  0.038  0.001  0.004  0.043
   36  0.016  0.001  0.014  0.030
   37  0.000  0.000  0.000  0.000
tot    0.097  0.048  0.673  0.819
 
band    21 # energy   -4.92496863 # occ.  2.00000000
 
ion      s      p      d    tot
    1  0.000  0.002  0.002  0.004
    2  0.014  0.001  0.009  0.024
    3  0.008  0.001  0.008  0.017
    4  0.013  0.001  0.009  0.023
    5  0.000  0.002  0.018  0.020
    6  0.002  0.001  0.008  0.011
    7  0.006  0.001  0.008  0.015
    8  0.001  0.001  0.008  0.010
    9  0.000  0.000  0.029  0.029
   10  0.001  0.007  0.021  0.028
   11  0.000  0.001  0.041  0.041
   12  0.000  0.002  0.010  0.012
   13  0.000  0.001  0.035  0.036
   14  0.001  0.003  0.004  0.007
   15  0.000  0.000  0.029  0.030
   16  0.000  0.001  0.008  0.009
   17  0.000  0.000  0.027  0.027
   18  0.000  0.001  0.010  0.011
   19  0.000  0.000  0.047  0.047
   20  0.002  0.006  0.025  0.034
   21  0.001  0.002  0.018  0.021
   22  0.000  0.001  0.022  0.023
   23  0.000  0.001  0.017  0.019
   24  0.000  0.003  0.015  0.017
   25  0.000  0.001  0.003  0.005
   26  0.000  0.000  0.040  0.041
   27  0.000  0.001  0.023  0.024
   28  0.000  0.002  0.036  0.037
   29  0.012  0.001  0.015  0.028
   30  0.000  0.001  0.013  0.014
   31  0.014  0.001  0.015  0.030
   32  0.013  0.001  0.013  0.028
   33  0.000  0.001  0.013  0.014
   34  0.011  0.001  0.013  0.025
   35  0.000  0.000  0.033  0.033
   36  0.000  0.005  0.001  0.006