PROCAR new format
# of k-points:   10         # of bands:  252         # of ions:   38

 k-point     1 :    0.00000000 0.00000000 0.00000000     weight = 0.01562500

band     1 # energy  -22.63833413 # occ.  2.00000000
 
ion      s      p      d    tot
    1  0.000  0.000  0.000  0.000
    2  0.000  0.000  0.000  0.000
    3  0.000  0.000  0.000  0.000
    4  0.000  0.000  0.000  0.000
    5  0.000  0.000  0.000  0.000
    6  0.000  0.000  0.000  0.000
    7  0.000  0.000  0.000  0.000
    8  0.000  0.000  0.000  0.000
    9  0.000  0.000  0.000  0.000
   10  0.000  0.000  0.000  0.000
   11  0.000  0.000  0.000  0.000
   12  0.000  0.000  0.000  0.000
   13  0.000  0.000  0.000  0.000
   14  0.000  0.000  0.000  0.000
   15  0.000  0.000  0.000  0.000
   16  0.000  0.000  0.000  0.000
   17  0.000  0.000  0.000  0.000
   18  0.000  0.000  0.000  0.000
   19  0.000  0.000  0.000  0.000
   20  0.000  0.000  0.000  0.000
   21  0.000  0.000  0.000  0.000
   22  0.000  0.000  0.000  0.000
   23  0.000  0.000  0.000  0.000
   24  0.000  0.000  0.000  0.000
   25  0.000  0.000  0.000  0.000
   26  0.000  0.000  0.000  0.000
   27  0.000  0.000  0.000  0.000
   28  0.000  0.000  0.000  0.000
   29  0.000  0.000  0.000  0.000
   30  0.000  0.000  0.000  0.000
   31  0.000  0.000  0.000  0.000
   32  0.000  0.000  0.000  0.000
   33  0.000  0.000  0.000  0.000
   34  0.000  0.000  0.000  0.000
   35  0.000  0.000  0.000  0.000
   36  0.000  0.000  0.000  0.000
   37  0.155  0.113  0.000  0.268
   38  0.638  0.092  0.000  0.730
tot    0.793  0.205  0.000  0.998
 
band     2 # energy   -8.84724566 # occ.  2.00000000
 
ion      s      p      d    tot
    1  0.005  0.001  0.000  0.006
    2  0.005  0.001  0.000  0.006
    3  0.005  0.001  0.000  0.006
    4  0.005  0.001  0.000  0.006
    5  0.005  0.001  0.000  0.006
    6  0.005  0.001  0.000  0.006
    7  0.005  0.001  0.000  0.006
    8  0.005  0.001  0.000  0.006
    9  0.005  0.001  0.000  0.006
   10  0.020  0.000  0.000  0.020
   11  0.020  0.000  0.000  0.021
   12  0.020  0.000  0.000  0.020
   13  0.020  0.000  0.000  0.021
   14  0.020  0.000  0.000  0.021
   15  0.020  0.000  0.000  0.020
   16  0.020  0.000  0.000  0.020
   17  0.020  0.000  0.000  0.020
   18  0.020  0.000  0.000  0.020
   19  0.022  0.000  0.000  0.022
   20  0.024  0.000  0.000  0.024
   21  0.024  0.000  0.000  0.024
   22  0.022  0.000  0.000  0.022
   23  0.024  0.000  0.000  0.024
   24  0.022  0.000  0.000  0.022
   25  0.022  0.000  0.000  0.022
   26  0.022  0.000  0.000  0.022
   27  0.022  0.000  0.000  0.022
   28  0.007  0.001  0.000  0.007
   29  0.008  0.001  0.000  0.008
   30  0.008  0.001  0.000  0.008
   31  0.008  0.001  0.000  0.008
   32  0.008  0.001  0.000  0.008
   33  0.008  0.001  0.000  0.008
   34  0.008  0.001  0.000  0.008
   35  0.007  0.001  0.000  0.007
   36  0.026  0.001  0.005  0.032
   37  0.035  0.002  0.000  0.037
   38  0.015  0.019  0.000  0.034
tot    0.564  0.033  0.006  0.604
 
band     3 # energy   -8.44380629 # occ.  2.00000000
 
ion      s      p      d    tot
    1  0.002  0.000  0.000  0.003
    2  0.002  0.000  0.000  0.003
    3  0.002  0.000  0.000  0.003
    4  0.002  0.000  0.000  0.003
    5  0.002  0.000  0.000  0.003
    6  0.002  0.000  0.000  0.003
    7  0.002  0.000  0.000  0.003
    8  0.002  0.000  0.000  0.003
    9  0.002  0.000  0.000  0.003
   10  0.006  0.000  0.000  0.006
   11  0.006  0.000  0.000  0.006
   12  0.006  0.000  0.000  0.006
   13  0.006  0.000  0.000  0.006
   14  0.006  0.000  0.000  0.006
   15  0.006  0.000  0.000  0.006
   16  0.006  0.000  0.000  0.006
   17  0.006  0.000  0.000  0.006
   18  0.006  0.000  0.000  0.006
   19  0.002  0.000  0.000  0.003
   20  0.001  0.001  0.000  0.002
   21  0.001  0.001  0.000  0.002
   22  0.002  0.000  0.000  0.002
   23  0.001  0.001  0.000  0.002
   24  0.002  0.000  0.000  0.002
   25  0.002  0.000  0.000  0.003
   26  0.002  0.000  0.000  0.003
   27  0.002  0.000  0.000  0.002
   28  0.000  0.000  0.000  0.000
   29  0.000  0.000  0.000  0.001
   30  0.000  0.000  0.000  0.001
   31  0.000  0.000  0.000  0.001
   32  0.000  0.000  0.000  0.001
   33  0.000  0.000  0.000  0.001
   34  0.000  0.000  0.000  0.001
   35  0.000  0.000  0.000  0.000
   36  0.033  0.025  0.030  0.087
   37  0.233  0.003  0.000  0.236
   38  0.122  0.193  0.000  0.315
tot    0.481  0.229  0.033  0.742
 
band     4 # energy   -7.45017969 # occ.  2.00000000
 
ion      s      p      d    tot
    1  0.017  0.001  0.001  0.019
    2  0.017  0.001  0.001  0.019
    3  0.017  0.001  0.001  0.019
    4  0.017  0.001  0.001  0.019
    5  0.017  0.001  0.001  0.019
    6  0.017  0.001  0.001  0.019
    7  0.017  0.001  0.001  0.019
    8  0.017  0.001  0.001  0.019
    9  0.017  0.001  0.001  0.018
   10  0.008  0.002  0.001  0.011
   11  0.009  0.002  0.000  0.011
   12  0.008  0.002  0.001  0.011
   13  0.009  0.002  0.000  0.011
   14  0.009  0.002  0.000  0.011
   15  0.008  0.002  0.001  0.011
   16  0.008  0.002  0.001  0.011
   17  0.008  0.002  0.001  0.011
   18  0.008  0.002  0.001  0.011
   19  0.012  0.002  0.001  0.014
   20  0.010  0.002  0.001  0.012
   21  0.010  0.002  0.001  0.012
   22  0.012  0.002  0.001  0.014
   23  0.010  0.002  0.001  0.012
   24  0.012  0.002  0.001  0.014
   25  0.012  0.002  0.001  0.014
   26  0.012  0.002  0.001  0.014
   27  0.012  0.002  0.001  0.014
   28  0.018  0.001  0.000  0.019
   29  0.016  0.001  0.000  0.017
   30  0.016  0.001  0.000  0.017
   31  0.016  0.001  0.000  0.017
   32  0.016  0.001  0.000  0.017
   33  0.016  0.001  0.000  0.017
   34  0.016  0.001  0.000  0.017
   35  0.018  0.001  0.000  0.019
   36  0.011  0.002  0.001  0.014
   37  0.009  0.003  0.000  0.012
   38  0.010  0.032  0.000  0.042
tot    0.492  0.089  0.020  0.600
 
band     5 # energy   -5.96414156 # occ.  2.00000000
 
ion      s      p      d    tot
    1  0.008  0.000  0.003  0.011
    2  0.009  0.000  0.003  0.013
    3  0.009  0.000  0.003  0.013
    4  0.009  0.000  0.003  0.013
    5  0.017  0.000  0.002  0.019
    6  0.009  0.000  0.003  0.013
    7  0.009  0.000  0.003  0.013
    8  0.009  0.000  0.003  0.013
    9  0.005  0.000  0.004  0.009
   10  0.002  0.003  0.001  0.006
   11  0.000  0.002  0.002  0.004
   12  0.002  0.003  0.001  0.006
   13  0.000  0.002  0.002  0.004
   14  0.000  0.002  0.002  0.004
   15  0.006  0.003  0.001  0.009
   16  0.002  0.003  0.001  0.006
   17  0.006  0.003  0.001  0.009
   18  0.006  0.003  0.001  0.009
   19  0.009  0.001  0.002  0.013
   20  0.000  0.003  0.004  0.007
   21  0.000  0.003  0.004  0.007
   22  0.007  0.002  0.002  0.011
   23  0.000  0.003  0.004  0.007
   24  0.007  0.002  0.002  0.011
   25  0.009  0.001  0.002  0.013
   26  0.009  0.001  0.002  0.013
   27  0.007  0.002  0.002  0.011
   28  0.003  0.000  0.004  0.007
   29  0.008  0.001  0.004  0.013
   30  0.008  0.001  0.004  0.013
   31  0.008  0.001  0.004  0.013
   32  0.008  0.001  0.004  0.013
   33  0.008  0.001  0.004  0.013
   34  0.008  0.001  0.004  0.013
   35  0.002  0.000  0.003  0.006
   36  0.070  0.010  0.016  0.096
   37  0.004  0.097  0.000  0.101
   38  0.013  0.151  0.000  0.165
tot    0.301  0.306  0.111  0.718
 
band     6 # energy   -5.83907709 # occ.  2.00000000
 
ion      s      p      d    tot
    1  0.009  0.000  0.002  0.011
    2  0.005  0.001  0.004  0.010
    3  0.005  0.001  0.004  0.010
    4  0.005  0.001  0.004  0.010
    5  0.001  0.002  0.004  0.008
    6  0.005  0.001  0.004  0.010
    7  0.005  0.001  0.004  0.010
    8  0.005  0.001  0.004  0.010
    9  0.023  0.001  0.000  0.024
   10  0.000  0.003  0.006  0.010
   11  0.027  0.008  0.001  0.036
   12  0.000  0.003  0.006  0.010
   13  0.027  0.008  0.001  0.036
   14  0.028  0.008  0.001  0.036
   15  0.006  0.001  0.009  0.016
   16  0.000  0.003  0.006  0.010
   17  0.006  0.001  0.009  0.016
   18  0.006  0.001  0.009  0.016
   19  0.002  0.001  0.010  0.013
   20  0.033  0.007  0.003  0.043
   21  0.033  0.007  0.003  0.043
   22  0.002  0.006  0.004  0.012
   23  0.033  0.007  0.003  0.043
   24  0.002  0.006  0.004  0.012
   25  0.002  0.001  0.010  0.013
   26  0.002  0.001  0.010  0.013
   27  0.002  0.006  0.004  0.012
   28  0.016  0.000  0.001  0.017
   29  0.005  0.001  0.005  0.011
   30  0.005  0.001  0.005  0.011
   31  0.005  0.001  0.005  0.011
   32  0.005  0.001  0.005  0.011
   33  0.005  0.001  0.005  0.011
   34  0.005  0.001  0.005  0.011
   35  0.022  0.001  0.001  0.024
   36  0.009  0.001  0.016  0.026
   37  0.001  0.008  0.000  0.009
   38  0.001  0.009  0.000  0.010
tot    0.357  0.114  0.178  0.648
 
band     7 # energy   -5.81916007 # occ.  2.00000000
 
ion      s      p      d    tot
    1  0.000  0.002  0.005  0.007
    2  0.001  0.001  0.002  0.003
    3  0.009  0.002  0.002  0.013
    4  0.001  0.001  0.002  0.003
    5  0.000  0.003  0.004  0.007
    6  0.005  0.002  0.002  0.008
    7  0.009  0.002  0.002  0.013
    8  0.005  0.002  0.002  0.009
    9  0.000  0.000  0.002  0.002
   10  0.000  0.001  0.016  0.017
   11  0.027  0.003  0.006  0.037
   12  0.039  0.004  0.006  0.049
   13  0.027  0.004  0.006  0.036
   14  0.000  0.012  0.004  0.016
   15  0.001  0.003  0.004  0.009
   16  0.040  0.004  0.006  0.050
   17  0.001  0.003  0.004  0.009
   18  0.000  0.007  0.007  0.014
   19  0.013  0.003  0.005  0.022
   20  0.000  0.003  0.015  0.019
   21  0.048  0.004  0.007  0.059
   22  0.010  0.003  0.005  0.018
   23  0.049  0.004  0.007  0.060
   24  0.000  0.003  0.012  0.015
   25  0.000  0.014  0.002  0.015
   26  0.013  0.004  0.005  0.022
   27  0.010  0.003  0.005  0.018
   28  0.000  0.002  0.003  0.005
   29  0.000  0.001  0.002  0.003
   30  0.009  0.002  0.002  0.014
   31  0.000  0.001  0.002  0.003
   32  0.007  0.002  0.003  0.012
   33  0.010  0.002  0.002  0.014
   34  0.008  0.002  0.003  0.012
   35  0.000  0.000  0.003  0.004
   36  0.000  0.007  0.004  0.010
   37  0.000  0.003  0.000  0.003
   38  0.000  0.008  0.000  0.008
tot    0.342  0.128  0.172  0.641
 
band     8 # energy   -5.81908072 # occ.  2.00000000
 
ion      s      p      d    tot
    1  0.000  0.002  0.005  0.007
    2  0.009  0.002  0.002  0.013
    3  0.001  0.001  0.002  0.004
    4  0.009  0.002  0.002  0.013
    5  0.000  0.003  0.004  0.007
    6  0.005  0.002  0.002  0.008
    7  0.001  0.001  0.002  0.003
    8  0.004  0.002  0.002  0.008
    9  0.000  0.000  0.002  0.002
   10  0.053  0.005  0.003  0.060
   11  0.009  0.009  0.005  0.023
   12  0.014  0.002  0.013  0.028
   13  0.009  0.009  0.005  0.023
   14  0.036  0.001  0.007  0.043
   15  0.000  0.006  0.006  0.012
   16  0.013  0.002  0.013  0.027
   17  0.000  0.006  0.006  0.012
   18  0.002  0.002  0.004  0.007
   19  0.004  0.010  0.003  0.017
   20  0.065  0.004  0.005  0.073
   21  0.017  0.004  0.013  0.033
   22  0.004  0.003  0.009  0.016
   23  0.016  0.004  0.013  0.032
   24  0.013  0.003  0.003  0.019
   25  0.018  0.000  0.007  0.025
   26  0.005  0.010  0.003  0.018
   27  0.003  0.003  0.009  0.016
   28  0.000  0.002  0.003  0.005
   29  0.011  0.003  0.003  0.017
   30  0.002  0.001  0.002  0.006
   31  0.011  0.003  0.003  0.017
   32  0.004  0.001  0.002  0.007
   33  0.002  0.001  0.002  0.005
   34  0.004  0.001  0.002  0.007
   35  0.000  0.000  0.003  0.004
   36  0.000  0.007  0.004  0.010
   37  0.000  0.003  0.000  0.003
   38  0.000  0.008  0.000  0.008
tot    0.342  0.128  0.172  0.641
 
band     9 # energy   -5.79540642 # occ.  2.00000000
 
ion      s      p      d    tot
    1  0.020  0.003  0.001  0.025
    2  0.000  0.002  0.004  0.006
    3  0.000  0.002  0.004  0.006
    4  0.000  0.002  0.004  0.006
    5  0.001  0.000  0.000  0.002
    6  0.000  0.002  0.004  0.006
    7  0.000  0.002  0.004  0.006
    8  0.000  0.002  0.004  0.006
    9  0.010  0.002  0.000  0.011
   10  0.031  0.006  0.006  0.042
   11  0.005  0.000  0.012  0.017
   12  0.030  0.006  0.006  0.042
   13  0.005  0.000  0.012  0.017
   14  0.005  0.000  0.011  0.017
   15  0.012  0.008  0.003  0.023
   16  0.030  0.006  0.006  0.042
   17  0.012  0.008  0.003  0.023
   18  0.012  0.008  0.003  0.024
   19  0.023  0.009  0.002  0.034
   20  0.000  0.002  0.011  0.013
   21  0.000  0.002  0.011  0.013
   22  0.025  0.002  0.009  0.036
   23  0.000  0.002  0.011  0.013
   24  0.024  0.002  0.009  0.035
   25  0.022  0.009  0.002  0.033
   26  0.023  0.009  0.002  0.034
   27  0.025  0.002  0.009  0.036
   28  0.018  0.003  0.001  0.021
   29  0.000  0.002  0.004  0.006
   30  0.000  0.002  0.004  0.006
   31  0.000  0.002  0.004  0.006
   32  0.000  0.002  0.004  0.006
   33  0.000  0.002  0.004  0.006
   34  0.000  0.002  0.004  0.006
   35  0.013  0.002  0.001  0.017
   36  0.000  0.000  0.000  0.000
   37  0.000  0.000  0.000  0.000
   38  0.000  0.000  0.000  0.000
tot    0.345  0.114  0.180  0.639
 
band    10 # energy   -5.79066879 # occ.  2.00000000
 
ion      s      p      d    tot
    1  0.000  0.001  0.003  0.004
    2  0.001  0.001  0.002  0.004
    3  0.009  0.002  0.002  0.014
    4  0.001  0.001  0.002  0.004
    5  0.000  0.000  0.004  0.004
    6  0.005  0.002  0.002  0.009
    7  0.009  0.002  0.002  0.014
    8  0.005  0.002  0.002  0.009
    9  0.000  0.003  0.006  0.009
   10  0.008  0.000  0.006  0.015
   11  0.006  0.002  0.011  0.019
   12  0.002  0.010  0.003  0.015
   13  0.006  0.002  0.011  0.019
   14  0.024  0.004  0.002  0.030
   15  0.015  0.005  0.010  0.030
   16  0.002  0.010  0.003  0.015
   17  0.015  0.005  0.010  0.030
   18  0.059  0.003  0.005  0.067
   19  0.011  0.001  0.014  0.026
   20  0.000  0.001  0.005  0.006
   21  0.000  0.008  0.005  0.013
   22  0.012  0.008  0.006  0.026
   23  0.000  0.008  0.005  0.013
   24  0.049  0.001  0.006  0.056
   25  0.046  0.005  0.002  0.053
   26  0.011  0.001  0.013  0.026
   27  0.012  0.008  0.006  0.026
   28  0.000  0.002  0.005  0.007
   29  0.000  0.001  0.002  0.003
   30  0.008  0.002  0.002  0.013
   31  0.000  0.001  0.002  0.003
   32  0.008  0.002  0.003  0.012
   33  0.009  0.002  0.002  0.013
   34  0.008  0.002  0.003  0.012
   35  0.000  0.003  0.005  0.008
   36  0.000  0.001  0.002  0.003
   37  0.000  0.003  0.000  0.003
   38  0.000  0.006  0.000  0.006
tot    0.340  0.123  0.176  0.638
 
band    11 # energy   -5.79057942 # occ.  2.00000000
 
ion      s      p      d    tot
    1  0.000  0.001  0.003  0.004
    2  0.009  0.002  0.002  0.014
    3  0.001  0.001  0.002  0.004
    4  0.009  0.002  0.002  0.014
    5  0.000  0.000  0.004  0.004
    6  0.005  0.002  0.002  0.009
    7  0.001  0.001  0.002  0.004
    8  0.005  0.002  0.002  0.009
    9  0.000  0.003  0.006  0.009
   10  0.000  0.013  0.002  0.015
   11  0.018  0.003  0.005  0.026
   12  0.006  0.003  0.005  0.015
   13  0.018  0.003  0.005  0.026
   14  0.000  0.002  0.014  0.015
   15  0.045  0.004  0.007  0.055
   16  0.006  0.003  0.005  0.015
   17  0.045  0.004  0.007  0.055
   18  0.000  0.006  0.012  0.017
   19  0.034  0.004  0.006  0.044
   20  0.000  0.010  0.005  0.015
   21  0.000  0.003  0.005  0.009
   22  0.036  0.004  0.006  0.046
   23  0.000  0.003  0.005  0.009
   24  0.000  0.010  0.006  0.017
   25  0.000  0.000  0.017  0.017
   26  0.034  0.004  0.006  0.044
   27  0.036  0.004  0.006  0.046
   28  0.000  0.002  0.005  0.007
   29  0.011  0.002  0.003  0.016
   30  0.002  0.001  0.002  0.006
   31  0.011  0.002  0.003  0.016
   32  0.003  0.001  0.002  0.007
   33  0.002  0.001  0.002  0.006
   34  0.003  0.001  0.002  0.007
   35  0.000  0.003  0.005  0.008
   36  0.000  0.001  0.002  0.003
   37  0.000  0.003  0.000  0.003
   38  0.000  0.006  0.000  0.006
tot    0.340  0.122  0.176  0.638
 
band    12 # energy   -5.62232029 # occ.  2.00000000
 
ion      s      p      d    tot
    1  0.000  0.000  0.000  0.000
    2  0.000  0.000  0.000  0.001
    3  0.000  0.000  0.000  0.000
    4  0.000  0.000  0.000  0.001
    5  0.000  0.000  0.000  0.001
    6  0.001  0.000  0.000  0.001
    7  0.000  0.000  0.000  0.000
    8  0.001  0.000  0.000  0.001
    9  0.000  0.000  0.000  0.000
   10  0.001  0.000  0.000  0.001
   11  0.001  0.000  0.001  0.002
   12  0.000  0.000  0.001  0.001
   13  0.001  0.000  0.001  0.002
   14  0.004  0.000  0.000  0.004
   15  0.000  0.001  0.000  0.001
   16  0.000  0.000  0.001  0.001
   17  0.000  0.001  0.000  0.001
   18  0.001  0.000  0.000  0.001
   19  0.000  0.000  0.001  0.001
   20  0.001  0.000  0.001  0.002
   21  0.000  0.000  0.001  0.001
   22  0.000  0.000  0.000  0.001
   23  0.000  0.000  0.001  0.001
   24  0.001  0.000  0.000  0.002
   25  0.000  0.000  0.000  0.000
   26  0.000  0.000  0.001  0.001
   27  0.000  0.000  0.000  0.001
   28  0.000  0.000  0.000  0.000
   29  0.001  0.000  0.002  0.003
   30  0.000  0.000  0.001  0.001
   31  0.001  0.000  0.002  0.003
   32  0.001  0.001  0.001  0.003
   33  0.000  0.000  0.001  0.001
   34  0.001  0.001  0.001  0.003
   35  0.000  0.000  0.000  0.000
   36  0.000  0.004  0.018  0.022
   37  0.000  0.169  0.000  0.169
   38  0.000  0.429  0.000  0.429
tot    0.019  0.609  0.036  0.664
 
band    13 # energy   -5.62224329 # occ.  2.00000000
 
ion      s      p      d    tot
    1  0.000  0.000  0.000  0.000
    2  0.000  0.000  0.000  0.001
    3  0.001  0.000  0.000  0.001
    4  0.000  0.000  0.000  0.001
    5  0.000  0.000  0.000  0.001
    6  0.000  0.000  0.000  0.000
    7  0.001  0.000  0.000  0.001
    8  0.000  0.000  0.000  0.000
    9  0.000  0.000  0.000  0.000
   10  0.000  0.000  0.001  0.001
   11  0.003  0.000  0.000  0.003
   12  0.001  0.000  0.000  0.001
   13  0.003  0.000  0.000  0.003
   14  0.000  0.000  0.001  0.001
   15  0.001  0.000  0.000  0.001
   16  0.001  0.000  0.000  0.001
   17  0.001  0.000  0.000  0.001
   18  0.000  0.001  0.000  0.001
   19  0.000  0.000  0.000  0.001
   20  0.000  0.000  0.001  0.001
   21  0.001  0.000  0.001  0.001
   22  0.001  0.000  0.000  0.001
   23  0.001  0.000  0.001  0.001
   24  0.000  0.000  0.000  0.001
   25  0.000  0.000  0.001  0.001
   26  0.000  0.000  0.000  0.001
   27  0.001  0.000  0.000  0.001
   28  0.000  0.000  0.000  0.000
   29  0.000  0.000  0.001  0.001
   30  0.001  0.001  0.002  0.004
   31  0.000  0.000  0.001  0.001
   32  0.001  0.000  0.001  0.002
   33  0.001  0.001  0.002  0.004
   34  0.001  0.000  0.001  0.002
   35  0.000  0.000  0.000  0.000
   36  0.000  0.004  0.018  0.022
   37  0.000  0.169  0.000  0.169
   38  0.000  0.429  0.000  0.429
tot    0.019  0.609  0.036  0.664
 
band    14 # energy   -5.46958687 # occ.  2.00000000
 
ion      s      p      d    tot
    1  0.000  0.001  0.003  0.003
    2  0.003  0.001  0.006  0.011
    3  0.003  0.001  0.006  0.011
    4  0.003  0.001  0.006  0.011
    5  0.036  0.002  0.001  0.038
    6  0.003  0.001  0.006  0.011
    7  0.003  0.001  0.006  0.011
    8  0.003  0.001  0.006  0.011
    9  0.001  0.002  0.005  0.008
   10  0.005  0.002  0.006  0.013
   11  0.006  0.005  0.005  0.016
   12  0.005  0.002  0.006  0.013
   13  0.006  0.005  0.005  0.016
   14  0.006  0.005  0.005  0.016
   15  0.019  0.001  0.008  0.029
   16  0.005  0.002  0.006  0.013
   17  0.019  0.001  0.008  0.029
   18  0.019  0.001  0.008  0.029
   19  0.000  0.003  0.001  0.004
   20  0.002  0.000  0.010  0.012
   21  0.002  0.000  0.010  0.012
   22  0.001  0.003  0.004  0.007
   23  0.002  0.000  0.010  0.012
   24  0.001  0.003  0.004  0.007
   25  0.000  0.003  0.001  0.004
   26  0.000  0.003  0.001  0.004
   27  0.001  0.003  0.004  0.007
   28  0.010  0.000  0.002  0.012
   29  0.003  0.001  0.003  0.007
   30  0.003  0.001  0.003  0.007
   31  0.003  0.001  0.003  0.007
   32  0.003  0.001  0.003  0.007
   33  0.003  0.001  0.003  0.007
   34  0.003  0.001  0.003  0.007
   35  0.006  0.000  0.001  0.008
   36  0.020  0.021  0.057  0.098
   37  0.017  0.101  0.000  0.118
   38  0.006  0.110  0.000  0.116
tot    0.228  0.289  0.230  0.746
 
band    15 # energy   -5.04474133 # occ.  2.00000000
 
ion      s      p      d    tot
    1  0.002  0.001  0.008  0.011
    2  0.004  0.001  0.009  0.014
    3  0.004  0.001  0.009  0.014
    4  0.004  0.001  0.009  0.014
    5  0.000  0.002  0.008  0.010
    6  0.004  0.001  0.009  0.014
    7  0.004  0.001  0.009  0.014
    8  0.004  0.001  0.009  0.014
    9  0.022  0.000  0.005  0.027
   10  0.008  0.000  0.024  0.032
   11  0.010  0.001  0.020  0.030
   12  0.008  0.000  0.024  0.032
   13  0.010  0.001  0.020  0.030
   14  0.010  0.001  0.020  0.030
   15  0.001  0.001  0.020  0.022
   16  0.008  0.000  0.024  0.032
   17  0.001  0.001  0.020  0.022
   18  0.001  0.001  0.020  0.022
   19  0.005  0.000  0.020  0.025
   20  0.012  0.001  0.026  0.039
   21  0.012  0.001  0.026  0.039
   22  0.001  0.001  0.021  0.023
   23  0.012  0.001  0.026  0.039
   24  0.001  0.001  0.021  0.023
   25  0.005  0.000  0.020  0.025
   26  0.005  0.000  0.020  0.025
   27  0.001  0.001  0.021  0.023
   28  0.002  0.001  0.007  0.009
   29  0.004  0.001  0.009  0.013
   30  0.004  0.001  0.009  0.013
   31  0.004  0.001  0.009  0.013
   32  0.004  0.001  0.009  0.013
   33  0.004  0.001  0.009  0.013
   34  0.004  0.001  0.009  0.013
   35  0.021  0.000  0.005  0.026
   36  0.000  0.002  0.008  0.010
   37  0.000  0.000  0.000  0.000
   38  0.000  0.000  0.000  0.000
tot    0.203  0.025  0.543  0.770
 
band    16 # energy   -5.03017299 # occ.  2.00000000
 
ion      s      p      d    tot
    1  0.039  0.003  0.000  0.042
    2  0.000  0.003  0.010  0.013
    3  0.000  0.003  0.010  0.013
    4  0.000  0.003  0.010  0.013
    5  0.000  0.000  0.001  0.002
    6  0.000  0.003  0.010  0.013
    7  0.000  0.003  0.010  0.013
    8  0.000  0.003  0.010  0.013
    9  0.021  0.003  0.002  0.026
   10  0.006  0.003  0.012  0.021
   11  0.003  0.000  0.016  0.019
   12  0.006  0.003  0.012  0.021
   13  0.003  0.000  0.016  0.019
   14  0.003  0.000  0.016  0.018
   15  0.008  0.003  0.017  0.028
   16  0.006  0.003  0.012  0.021
   17  0.008  0.003  0.017  0.028
   18  0.008  0.003  0.017  0.028
   19  0.003  0.003  0.018  0.025
   20  0.000  0.000  0.017  0.017
   21  0.000  0.000  0.016  0.016
   22  0.013  0.003  0.011  0.027
   23  0.000  0.000  0.016  0.016
   24  0.013  0.003  0.011  0.026
   25  0.003  0.003  0.019  0.025
   26  0.003  0.003  0.018  0.025
   27  0.013  0.003  0.011  0.027
   28  0.041  0.003  0.000  0.044
   29  0.000  0.003  0.011  0.014
   30  0.000  0.003  0.011  0.014
   31  0.000  0.003  0.011  0.014
   32  0.000  0.003  0.011  0.014
   33  0.000  0.003  0.011  0.014
   34  0.000  0.003  0.011  0.014
   35  0.019  0.003  0.002  0.025
   36  0.000  0.000  0.000  0.001
   37  0.000  0.000  0.000  0.000
   38  0.000  0.000  0.000  0.000
tot    0.224  0.086  0.400  0.710
 
band    17 # energy   -5.02722816 # occ.  2.00000000
 
ion      s      p      d    tot
    1  0.000  0.003  0.012  0.015
    2  0.001  0.002  0.005  0.008
    3  0.020  0.004  0.005  0.029
    4  0.001  0.002  0.005  0.008
    5  0.000  0.000  0.011  0.011
    6  0.011  0.003  0.005  0.019
    7  0.019  0.004  0.005  0.029
    8  0.011  0.003  0.005  0.019
    9  0.000  0.006  0.008  0.014
   10  0.005  0.001  0.007  0.012
   11  0.001  0.002  0.013  0.016
   12  0.001  0.003  0.019  0.023
   13  0.001  0.002  0.013  0.016
   14  0.006  0.002  0.010  0.018
   15  0.006  0.002  0.020  0.027
   16  0.001  0.003  0.019  0.023
   17  0.006  0.002  0.020  0.027
   18  0.022  0.005  0.006  0.033
   19  0.004  0.001  0.016  0.021
   20  0.000  0.000  0.010  0.010
   21  0.000  0.003  0.017  0.020
   22  0.004  0.002  0.022  0.028
   23  0.000  0.003  0.017  0.020
   24  0.016  0.003  0.004  0.024
   25  0.017  0.005  0.008  0.029
   26  0.004  0.001  0.016  0.021
   27  0.004  0.003  0.022  0.028
   28  0.000  0.003  0.009  0.012
   29  0.002  0.002  0.006  0.010
   30  0.021  0.004  0.005  0.030
   31  0.002  0.002  0.006  0.010
   32  0.010  0.003  0.006  0.019
   33  0.021  0.004  0.005  0.030
   34  0.010  0.003  0.006  0.019
   35  0.000  0.006  0.010  0.015
   36  0.000  0.000  0.010  0.010
   37  0.000  0.000  0.000  0.000
   38  0.000  0.000  0.000  0.000
tot    0.226  0.094  0.382  0.702
 
band    18 # energy   -5.02716963 # occ.  2.00000000
 
ion      s      p      d    tot
    1  0.000  0.003  0.012  0.015
    2  0.020  0.004  0.005  0.029
    3  0.002  0.002  0.005  0.009
    4  0.020  0.004  0.005  0.029
    5  0.000  0.000  0.011  0.011
    6  0.010  0.003  0.005  0.018
    7  0.002  0.002  0.005  0.009
    8  0.010  0.003  0.005  0.018
    9  0.000  0.006  0.008  0.014
   10  0.000  0.004  0.023  0.027
   11  0.005  0.002  0.011  0.018
   12  0.004  0.001  0.011  0.016
   13  0.005  0.002  0.011  0.018
   14  0.000  0.001  0.014  0.016
   15  0.017  0.004  0.010  0.031
   16  0.004  0.001  0.011  0.016
   17  0.017  0.004  0.010  0.031
   18  0.000  0.001  0.025  0.025
   19  0.012  0.004  0.011  0.026
   20  0.000  0.003  0.019  0.023
   21  0.000  0.001  0.012  0.014
   22  0.012  0.003  0.010  0.025
   23  0.000  0.001  0.012  0.014
   24  0.000  0.002  0.028  0.030
   25  0.000  0.000  0.018  0.018
   26  0.012  0.004  0.011  0.026
   27  0.012  0.003  0.010  0.025
   28  0.000  0.003  0.009  0.012
   29  0.020  0.004  0.006  0.029
   30  0.001  0.002  0.006  0.009
   31  0.020  0.004  0.006  0.029
   32  0.012  0.003  0.006  0.020
   33  0.001  0.002  0.006  0.009
   34  0.012  0.003  0.006  0.020
   35  0.000  0.006  0.010  0.015
   36  0.000  0.001  0.010  0.010
   37  0.000  0.000  0.000  0.000
   38  0.000  0.000  0.000  0.000
tot    0.226  0.094  0.382  0.702
 
band    19 # energy   -5.02251477 # occ.  2.00000000
 
ion      s      p      d    tot
    1  0.000  0.003  0.009  0.012
    2  0.001  0.002  0.005  0.008
    3  0.019  0.004  0.006  0.028
    4  0.001  0.002  0.005  0.008
    5  0.000  0.006  0.010  0.015
    6  0.012  0.003  0.005  0.020
    7  0.019  0.004  0.006  0.029
    8  0.012  0.003  0.005  0.020
    9  0.000  0.000  0.012  0.013
   10  0.000  0.000  0.020  0.020
   11  0.012  0.003  0.010  0.025
   12  0.013  0.004  0.011  0.028
   13  0.011  0.003  0.011  0.025
   14  0.000  0.002  0.028  0.030
   15  0.000  0.001  0.011  0.012
   16  0.013  0.004  0.011  0.028
   17  0.000  0.001  0.011  0.012
   18  0.000  0.003  0.017  0.020
   19  0.004  0.001  0.011  0.016
   20  0.000  0.001  0.030  0.031
   21  0.016  0.004  0.012  0.032
   22  0.004  0.002  0.011  0.017
   23  0.017  0.004  0.012  0.032
   24  0.000  0.001  0.014  0.015
   25  0.000  0.003  0.023  0.027
   26  0.004  0.001  0.011  0.016
   27  0.004  0.002  0.011  0.017
   28  0.000  0.003  0.011  0.014
   29  0.002  0.002  0.006  0.009
   30  0.018  0.004  0.007  0.028
   31  0.001  0.002  0.005  0.008
   32  0.009  0.003  0.006  0.017
   33  0.018  0.004  0.007  0.028
   34  0.009  0.003  0.006  0.017
   35  0.000  0.000  0.010  0.011
   36  0.000  0.007  0.008  0.015
   37  0.000  0.002  0.000  0.002
   38  0.000  0.006  0.000  0.006
tot    0.220  0.101  0.392  0.712
 
band    20 # energy   -5.02247276 # occ.  2.00000000
 
ion      s      p      d    tot
    1  0.000  0.003  0.009  0.012
    2  0.020  0.004  0.005  0.029
    3  0.002  0.002  0.005  0.009
    4  0.020  0.004  0.005  0.030
    5  0.000  0.006  0.010  0.015
    6  0.010  0.003  0.005  0.018
    7  0.002  0.002  0.005  0.009
    8  0.009  0.003  0.005  0.018
    9  0.000  0.000  0.012  0.013
   10  0.017  0.005  0.008  0.031
   11  0.004  0.002  0.023  0.029
   12  0.004  0.001  0.016  0.022
   13  0.004  0.002  0.022  0.029
   14  0.016  0.003  0.005  0.024
   15  0.000  0.003  0.015  0.018
   16  0.004  0.001  0.017  0.022
   17  0.000  0.002  0.015  0.017
   18  0.000  0.000  0.009  0.009
   19  0.001  0.003  0.019  0.023
   20  0.022  0.005  0.006  0.033
   21  0.006  0.002  0.024  0.031
   22  0.002  0.002  0.013  0.016
   23  0.005  0.002  0.024  0.031
   24  0.006  0.003  0.010  0.019
   25  0.005  0.001  0.007  0.012
   26  0.001  0.003  0.019  0.023
   27  0.001  0.002  0.013  0.016
   28  0.000  0.003  0.012  0.014
   29  0.017  0.004  0.006  0.027
   30  0.001  0.002  0.005  0.008
   31  0.017  0.004  0.006  0.027
   32  0.011  0.003  0.006  0.020
   33  0.001  0.002  0.005  0.007
   34  0.010  0.003  0.006  0.019
   35  0.000  0.000  0.010  0.011
   36  0.000  0.007  0.008  0.015
   37  0.000  0.002  0.000  0.002
   38  0.000  0.006  0.000  0.006
tot    0.220  0.101  0.392  0.713
 
band    21 # energy   -4.78200686 # occ.  2.00000000
 
ion      s      p      d    tot
    1  0.015  0.002  0.000  0.017
    2  0.000  0.002  0.011  0.013
    3  0.000  0.002  0.011  0.013
    4  0.000  0.002  0.011  0.013
    5  0.038  0.003  0.000  0.041
    6  0.000  0.002  0.011  0.013
    7  0.000  0.002  0.011  0.013
    8  0.000  0.002  0.011  0.013
    9  0.003  0.001  0.000  0.004
   10  0.001  0.001  0.029  0.031
   11  0.002  0.004  0.023  0.028
   12  0.001  0.001  0.029  0.031
   13  0.002  0.004  0.023  0.028
   14  0.002  0.004  0.023  0.028
   15  0.002  0.001  0.007  0.010
   16  0.001  0.001  0.029  0.031