PROCAR new format
# of k-points:   10         # of bands:  252         # of ions:   37

 k-point     1 :    0.00000000 0.00000000 0.00000000     weight = 0.01562500

band     1 # energy  -11.58931177 # occ.  2.00000000
 
ion      s      p      d    tot
    1  0.000  0.000  0.000  0.000
    2  0.000  0.000  0.000  0.000
    3  0.000  0.000  0.000  0.000
    4  0.000  0.000  0.000  0.000
    5  0.000  0.000  0.000  0.000
    6  0.000  0.000  0.000  0.000
    7  0.000  0.000  0.000  0.000
    8  0.000  0.000  0.000  0.000
    9  0.000  0.000  0.000  0.000
   10  0.000  0.000  0.000  0.000
   11  0.000  0.000  0.000  0.000
   12  0.000  0.000  0.000  0.000
   13  0.000  0.000  0.000  0.000
   14  0.000  0.000  0.000  0.000
   15  0.000  0.000  0.000  0.000
   16  0.000  0.000  0.000  0.000
   17  0.000  0.000  0.000  0.000
   18  0.000  0.000  0.000  0.000
   19  0.000  0.000  0.000  0.000
   20  0.000  0.000  0.001  0.001
   21  0.000  0.000  0.001  0.001
   22  0.000  0.000  0.000  0.000
   23  0.000  0.000  0.001  0.001
   24  0.000  0.000  0.000  0.000
   25  0.000  0.000  0.000  0.000
   26  0.000  0.000  0.000  0.000
   27  0.000  0.000  0.000  0.000
   28  0.000  0.000  0.000  0.000
   29  0.000  0.000  0.000  0.000
   30  0.000  0.000  0.000  0.000
   31  0.000  0.000  0.000  0.000
   32  0.000  0.000  0.000  0.000
   33  0.000  0.000  0.000  0.000
   34  0.000  0.000  0.000  0.000
   35  0.000  0.000  0.000  0.000
   36  0.091  0.078  0.178  0.346
   37  0.622  0.013  0.000  0.635
tot    0.715  0.092  0.180  0.988
 
band     2 # energy   -6.43829129 # occ.  2.00000000
 
ion      s      p      d    tot
    1  0.005  0.001  0.000  0.006
    2  0.005  0.001  0.000  0.006
    3  0.005  0.001  0.000  0.006
    4  0.005  0.001  0.000  0.006
    5  0.005  0.001  0.000  0.006
    6  0.005  0.001  0.000  0.006
    7  0.005  0.001  0.000  0.006
    8  0.005  0.001  0.000  0.006
    9  0.005  0.000  0.000  0.005
   10  0.022  0.000  0.000  0.022
   11  0.023  0.000  0.000  0.023
   12  0.022  0.000  0.000  0.022
   13  0.023  0.000  0.000  0.023
   14  0.023  0.000  0.000  0.023
   15  0.020  0.000  0.000  0.021
   16  0.022  0.000  0.000  0.022
   17  0.020  0.000  0.000  0.021
   18  0.020  0.000  0.000  0.021
   19  0.022  0.000  0.001  0.023
   20  0.029  0.000  0.000  0.030
   21  0.029  0.000  0.000  0.030
   22  0.022  0.000  0.001  0.023
   23  0.029  0.000  0.000  0.030
   24  0.022  0.000  0.001  0.023
   25  0.022  0.000  0.001  0.023
   26  0.022  0.000  0.001  0.023
   27  0.022  0.000  0.001  0.023
   28  0.006  0.000  0.000  0.006
   29  0.006  0.001  0.000  0.007
   30  0.006  0.001  0.000  0.007
   31  0.006  0.001  0.000  0.007
   32  0.006  0.001  0.000  0.007
   33  0.006  0.001  0.000  0.007
   34  0.006  0.001  0.000  0.007
   35  0.005  0.000  0.000  0.006
   36  0.015  0.005  0.001  0.020
   37  0.003  0.000  0.000  0.003
tot    0.526  0.017  0.010  0.552
 
band     3 # energy   -5.58286361 # occ.  2.00000000
 
ion      s      p      d    tot
    1  0.008  0.000  0.000  0.009
    2  0.009  0.000  0.000  0.010
    3  0.009  0.000  0.000  0.010
    4  0.009  0.000  0.000  0.010
    5  0.009  0.000  0.000  0.010
    6  0.009  0.000  0.000  0.010
    7  0.009  0.000  0.000  0.010
    8  0.009  0.000  0.000  0.010
    9  0.010  0.001  0.000  0.010
   10  0.012  0.001  0.015  0.028
   11  0.013  0.001  0.013  0.027
   12  0.012  0.001  0.015  0.028
   13  0.013  0.001  0.013  0.027
   14  0.013  0.001  0.013  0.027
   15  0.014  0.001  0.010  0.025
   16  0.012  0.001  0.015  0.028
   17  0.014  0.001  0.010  0.025
   18  0.014  0.001  0.010  0.025
   19  0.007  0.001  0.013  0.021
   20  0.014  0.002  0.017  0.032
   21  0.014  0.002  0.017  0.032
   22  0.007  0.001  0.012  0.020
   23  0.014  0.002  0.017  0.032
   24  0.007  0.001  0.012  0.020
   25  0.007  0.001  0.013  0.021
   26  0.007  0.001  0.013  0.021
   27  0.007  0.001  0.012  0.020
   28  0.006  0.000  0.001  0.007
   29  0.008  0.000  0.002  0.010
   30  0.008  0.000  0.002  0.010
   31  0.008  0.000  0.002  0.010
   32  0.008  0.000  0.002  0.010
   33  0.008  0.000  0.002  0.010
   34  0.008  0.000  0.002  0.010
   35  0.006  0.000  0.000  0.006
   36  0.021  0.004  0.001  0.027
   37  0.003  0.000  0.000  0.003
tot    0.363  0.031  0.259  0.653
 
band     4 # energy   -5.36710621 # occ.  2.00000000
 
ion      s      p      d    tot
    1  0.002  0.000  0.008  0.010
    2  0.003  0.000  0.004  0.007
    3  0.003  0.000  0.004  0.007
    4  0.003  0.000  0.004  0.007
    5  0.003  0.000  0.002  0.005
    6  0.003  0.000  0.004  0.007
    7  0.003  0.000  0.004  0.007
    8  0.003  0.000  0.004  0.007
    9  0.005  0.000  0.002  0.007
   10  0.000  0.000  0.017  0.017
   11  0.000  0.000  0.012  0.012
   12  0.000  0.000  0.017  0.017
   13  0.000  0.000  0.012  0.012
   14  0.000  0.000  0.012  0.012
   15  0.000  0.000  0.005  0.005
   16  0.000  0.000  0.017  0.017
   17  0.000  0.000  0.005  0.005
   18  0.000  0.000  0.005  0.005
   19  0.004  0.000  0.015  0.019
   20  0.000  0.001  0.074  0.075
   21  0.000  0.001  0.074  0.075
   22  0.001  0.000  0.012  0.013
   23  0.000  0.001  0.074  0.075
   24  0.001  0.000  0.012  0.013
   25  0.004  0.000  0.015  0.019
   26  0.004  0.000  0.015  0.019
   27  0.001  0.000  0.012  0.013
   28  0.004  0.000  0.013  0.016
   29  0.011  0.000  0.027  0.038
   30  0.011  0.000  0.027  0.038
   31  0.011  0.000  0.027  0.038
   32  0.011  0.000  0.027  0.038
   33  0.011  0.000  0.027  0.038
   34  0.011  0.000  0.027  0.038
   35  0.006  0.000  0.013  0.019
   36  0.039  0.001  0.024  0.064
   37  0.002  0.000  0.000  0.002
tot    0.160  0.008  0.650  0.818
 
band     5 # energy   -5.24703213 # occ.  2.00000000
 
ion      s      p      d    tot
    1  0.005  0.001  0.001  0.007
    2  0.000  0.000  0.003  0.003
    3  0.000  0.000  0.003  0.003
    4  0.000  0.000  0.003  0.003
    5  0.001  0.000  0.000  0.001
    6  0.000  0.000  0.003  0.003
    7  0.000  0.000  0.003  0.003
    8  0.000  0.000  0.003  0.003
    9  0.000  0.000  0.000  0.001
   10  0.005  0.000  0.020  0.025
   11  0.000  0.000  0.014  0.014
   12  0.005  0.000  0.020  0.025
   13  0.000  0.000  0.014  0.014
   14  0.000  0.000  0.014  0.014
   15  0.002  0.001  0.003  0.006
   16  0.005  0.000  0.020  0.025
   17  0.002  0.001  0.003  0.006
   18  0.002  0.001  0.003  0.006
   19  0.000  0.001  0.035  0.036
   20  0.006  0.000  0.137  0.142
   21  0.006  0.000  0.137  0.142
   22  0.016  0.000  0.007  0.023
   23  0.006  0.000  0.137  0.142
   24  0.016  0.000  0.007  0.023
   25  0.000  0.001  0.035  0.036
   26  0.000  0.001  0.035  0.036
   27  0.016  0.000  0.007  0.023
   28  0.001  0.000  0.001  0.001
   29  0.001  0.000  0.003  0.004
   30  0.001  0.000  0.003  0.004
   31  0.001  0.000  0.003  0.004
   32  0.001  0.000  0.003  0.004
   33  0.001  0.000  0.003  0.004
   34  0.001  0.000  0.003  0.004
   35  0.007  0.001  0.001  0.009
   36  0.009  0.009  0.008  0.025
   37  0.003  0.002  0.000  0.005
tot    0.117  0.021  0.695  0.833
 
band     6 # energy   -5.20704190 # occ.  2.00000000
 
ion      s      p      d    tot
    1  0.000  0.000  0.006  0.006
    2  0.000  0.000  0.002  0.002
    3  0.000  0.000  0.002  0.002
    4  0.001  0.000  0.002  0.003
    5  0.000  0.000  0.004  0.004
    6  0.000  0.000  0.002  0.002
    7  0.001  0.000  0.002  0.003
    8  0.000  0.000  0.002  0.002
    9  0.000  0.000  0.001  0.001
   10  0.001  0.001  0.016  0.018
   11  0.000  0.000  0.022  0.022
   12  0.005  0.001  0.013  0.019
   13  0.001  0.000  0.021  0.021
   14  0.000  0.000  0.021  0.022
   15  0.000  0.000  0.005  0.006
   16  0.001  0.001  0.017  0.018
   17  0.002  0.000  0.008  0.011
   18  0.001  0.000  0.005  0.006
   19  0.004  0.001  0.022  0.027
   20  0.008  0.000  0.145  0.154
   21  0.028  0.000  0.008  0.036
   22  0.001  0.000  0.031  0.032
   23  0.006  0.000  0.164  0.170
   24  0.000  0.001  0.041  0.043
   25  0.006  0.001  0.025  0.031
   26  0.018  0.000  0.043  0.062
   27  0.000  0.001  0.043  0.044
   28  0.000  0.000  0.004  0.005
   29  0.000  0.000  0.008  0.008
   30  0.001  0.001  0.004  0.006
   31  0.000  0.000  0.006  0.007
   32  0.001  0.000  0.004  0.006
   33  0.000  0.000  0.007  0.007
   34  0.000  0.000  0.008  0.008
   35  0.000  0.000  0.001  0.001
   36  0.000  0.002  0.010  0.012
   37  0.000  0.000  0.000  0.000
tot    0.087  0.014  0.724  0.826
 
band     7 # energy   -5.20701864 # occ.  2.00000000
 
ion      s      p      d    tot
    1  0.000  0.000  0.006  0.006
    2  0.001  0.000  0.002  0.002
    3  0.001  0.000  0.002  0.002
    4  0.000  0.000  0.002  0.002
    5  0.000  0.000  0.004  0.004
    6  0.001  0.000  0.002  0.002
    7  0.000  0.000  0.002  0.002
    8  0.000  0.000  0.002  0.002
    9  0.000  0.000  0.001  0.001
   10  0.003  0.001  0.014  0.019
   11  0.000  0.000  0.021  0.022
   12  0.000  0.000  0.018  0.018
   13  0.000  0.001  0.022  0.022
   14  0.000  0.000  0.021  0.022
   15  0.002  0.000  0.007  0.009
   16  0.004  0.001  0.014  0.019
   17  0.000  0.000  0.004  0.004
   18  0.001  0.000  0.007  0.009
   19  0.015  0.000  0.038  0.053
   20  0.020  0.000  0.066  0.086
   21  0.000  0.000  0.203  0.204
   22  0.000  0.001  0.046  0.047
   23  0.022  0.000  0.047  0.070
   24  0.000  0.001  0.036  0.037
   25  0.013  0.001  0.036  0.049
   26  0.000  0.001  0.017  0.018
   27  0.000  0.001  0.034  0.035
   28  0.000  0.000  0.004  0.005
   29  0.001  0.000  0.005  0.006
   30  0.000  0.000  0.008  0.008
   31  0.001  0.001  0.006  0.007
   32  0.000  0.000  0.008  0.008
   33  0.001  0.001  0.006  0.007
   34  0.001  0.000  0.005  0.006
   35  0.000  0.000  0.001  0.001
   36  0.000  0.002  0.010  0.012
   37  0.000  0.000  0.000  0.000
tot    0.087  0.014  0.724  0.826
 
band     8 # energy   -5.17326946 # occ.  2.00000000
 
ion      s      p      d    tot
    1  0.016  0.000  0.006  0.023
    2  0.009  0.000  0.020  0.029
    3  0.009  0.000  0.020  0.029
    4  0.009  0.000  0.020  0.029
    5  0.011  0.000  0.032  0.043
    6  0.009  0.000  0.020  0.029
    7  0.009  0.000  0.020  0.029
    8  0.009  0.000  0.020  0.029
    9  0.004  0.000  0.019  0.023
   10  0.000  0.001  0.018  0.019
   11  0.002  0.000  0.045  0.048
   12  0.000  0.001  0.018  0.019
   13  0.002  0.000  0.045  0.048
   14  0.002  0.000  0.045  0.048
   15  0.004  0.000  0.021  0.025
   16  0.000  0.001  0.018  0.019
   17  0.004  0.000  0.021  0.025
   18  0.004  0.000  0.021  0.025
   19  0.003  0.000  0.002  0.005
   20  0.000  0.000  0.040  0.040
   21  0.000  0.000  0.039  0.040
   22  0.000  0.000  0.015  0.015
   23  0.000  0.000  0.040  0.040
   24  0.000  0.000  0.015  0.015
   25  0.003  0.000  0.002  0.005
   26  0.003  0.000  0.002  0.005
   27  0.000  0.000  0.015  0.015
   28  0.004  0.000  0.000  0.004
   29  0.000  0.000  0.012  0.012
   30  0.000  0.000  0.012  0.012
   31  0.000  0.000  0.012  0.012
   32  0.000  0.000  0.012  0.012
   33  0.000  0.000  0.012  0.012
   34  0.000  0.000  0.012  0.012
   35  0.001  0.000  0.002  0.003
   36  0.008  0.001  0.002  0.011
   37  0.000  0.000  0.000  0.000
tot    0.125  0.009  0.675  0.809
 
band     9 # energy   -5.15669772 # occ.  2.00000000
 
ion      s      p      d    tot
    1  0.000  0.000  0.004  0.004
    2  0.001  0.000  0.002  0.004
    3  0.001  0.001  0.006  0.008
    4  0.000  0.000  0.004  0.004
    5  0.000  0.000  0.008  0.008
    6  0.001  0.001  0.007  0.008
    7  0.000  0.000  0.004  0.004
    8  0.001  0.000  0.002  0.003
    9  0.000  0.000  0.001  0.001
   10  0.005  0.001  0.036  0.042
   11  0.024  0.001  0.032  0.057
   12  0.000  0.000  0.086  0.086
   13  0.000  0.001  0.091  0.092
   14  0.023  0.001  0.036  0.059
   15  0.005  0.000  0.027  0.032
   16  0.006  0.001  0.033  0.039
   17  0.000  0.001  0.005  0.006
   18  0.005  0.000  0.026  0.031
   19  0.000  0.000  0.015  0.015
   20  0.009  0.001  0.048  0.058
   21  0.000  0.001  0.033  0.034
   22  0.000  0.000  0.025  0.025
   23  0.010  0.001  0.049  0.059
   24  0.008  0.001  0.013  0.021
   25  0.000  0.000  0.015  0.016
   26  0.000  0.000  0.023  0.023
   27  0.008  0.001  0.012  0.021
   28  0.000  0.000  0.001  0.001
   29  0.001  0.000  0.005  0.006
   30  0.000  0.000  0.003  0.003
   31  0.002  0.000  0.006  0.008
   32  0.000  0.000  0.003  0.003
   33  0.002  0.000  0.006  0.009
   34  0.001  0.000  0.005  0.006
   35  0.000  0.000  0.006  0.006
   36  0.000  0.001  0.006  0.007
   37  0.000  0.000  0.000  0.000
tot    0.114  0.016  0.682  0.812
 
band    10 # energy   -5.15668550 # occ.  2.00000000
 
ion      s      p      d    tot
    1  0.000  0.000  0.004  0.004
    2  0.001  0.000  0.006  0.007
    3  0.000  0.000  0.002  0.002
    4  0.001  0.001  0.005  0.006
    5  0.000  0.000  0.008  0.008
    6  0.000  0.000  0.002  0.002
    7  0.001  0.001  0.005  0.007
    8  0.001  0.000  0.006  0.007
    9  0.000  0.000  0.001  0.001
   10  0.002  0.000  0.067  0.070
   11  0.007  0.001  0.074  0.082
   12  0.007  0.001  0.017  0.025
   13  0.032  0.001  0.015  0.047
   14  0.009  0.001  0.070  0.080
   15  0.002  0.001  0.011  0.014
   16  0.002  0.000  0.070  0.072
   17  0.007  0.000  0.033  0.040
   18  0.002  0.001  0.013  0.016
   19  0.000  0.000  0.020  0.021
   20  0.003  0.001  0.038  0.043
   21  0.013  0.000  0.054  0.067
   22  0.010  0.001  0.008  0.019
   23  0.003  0.001  0.037  0.041
   24  0.003  0.000  0.020  0.024
   25  0.000  0.000  0.020  0.020
   26  0.000  0.000  0.012  0.013
   27  0.002  0.000  0.021  0.024
   28  0.000  0.000  0.001  0.001
   29  0.001  0.000  0.005  0.006
   30  0.002  0.000  0.007  0.009
   31  0.000  0.000  0.003  0.004
   32  0.002  0.000  0.006  0.009
   33  0.000  0.000  0.003  0.003
   34  0.001  0.000  0.004  0.006
   35  0.000  0.000  0.006  0.006
   36  0.000  0.001  0.006  0.007
   37  0.000  0.000  0.000  0.000
tot    0.114  0.016  0.682  0.812
 
band    11 # energy   -5.12984100 # occ.  2.00000000
 
ion      s      p      d    tot
    1  0.000  0.000  0.002  0.002
    2  0.001  0.000  0.007  0.008
    3  0.001  0.000  0.007  0.008
    4  0.001  0.000  0.007  0.008
    5  0.007  0.001  0.000  0.008
    6  0.001  0.000  0.007  0.008
    7  0.001  0.000  0.007  0.008
    8  0.001  0.000  0.007  0.008
    9  0.000  0.000  0.008  0.008
   10  0.008  0.001  0.006  0.015
   11  0.012  0.001  0.039  0.052
   12  0.008  0.001  0.006  0.015
   13  0.012  0.001  0.039  0.052
   14  0.012  0.001  0.039  0.052
   15  0.002  0.000  0.043  0.045
   16  0.008  0.001  0.006  0.015
   17  0.002  0.000  0.043  0.045
   18  0.002  0.000  0.043  0.045
   19  0.012  0.001  0.027  0.040
   20  0.006  0.001  0.028  0.035
   21  0.006  0.001  0.028  0.035
   22  0.000  0.000  0.038  0.038
   23  0.006  0.001  0.028  0.035
   24  0.000  0.000  0.038  0.038
   25  0.012  0.001  0.027  0.040
   26  0.012  0.001  0.027  0.040
   27  0.000  0.000  0.038  0.038
   28  0.003  0.001  0.004  0.007
   29  0.000  0.000  0.006  0.006
   30  0.000  0.000  0.006  0.006
   31  0.000  0.000  0.006  0.006
   32  0.000  0.000  0.006  0.006
   33  0.000  0.000  0.006  0.006
   34  0.000  0.000  0.006  0.006
   35  0.001  0.000  0.001  0.002
   36  0.001  0.000  0.001  0.001
   37  0.000  0.000  0.000  0.000
tot    0.136  0.019  0.638  0.792
 
band    12 # energy   -5.11029636 # occ.  2.00000000
 
ion      s      p      d    tot
    1  0.003  0.000  0.025  0.027
    2  0.006  0.000  0.016  0.021
    3  0.006  0.000  0.016  0.021
    4  0.006  0.000  0.016  0.021
    5  0.002  0.000  0.007  0.009
    6  0.006  0.000  0.016  0.021
    7  0.006  0.000  0.016  0.021
    8  0.006  0.000  0.016  0.021
    9  0.015  0.000  0.012  0.027
   10  0.003  0.000  0.022  0.025
   11  0.002  0.000  0.012  0.015
   12  0.003  0.000  0.022  0.025
   13  0.002  0.000  0.012  0.015
   14  0.002  0.000  0.012  0.015
   15  0.000  0.000  0.015  0.016
   16  0.003  0.000  0.022  0.025
   17  0.000  0.000  0.015  0.016
   18  0.000  0.000  0.015  0.016
   19  0.001  0.001  0.009  0.010
   20  0.004  0.000  0.019  0.024
   21  0.004  0.000  0.019  0.024
   22  0.002  0.000  0.037  0.039
   23  0.004  0.000  0.019  0.024
   24  0.002  0.000  0.037  0.039
   25  0.001  0.001  0.009  0.010
   26  0.001  0.001  0.009  0.010
   27  0.002  0.000  0.037  0.039
   28  0.016  0.000  0.006  0.022
   29  0.006  0.000  0.019  0.025
   30  0.006  0.000  0.019  0.025
   31  0.006  0.000  0.019  0.025
   32  0.006  0.000  0.019  0.025
   33  0.006  0.000  0.019  0.025
   34  0.006  0.000  0.019  0.025
   35  0.006  0.000  0.031  0.037
   36  0.000  0.001  0.004  0.005
   37  0.000  0.000  0.000  0.000
tot    0.149  0.009  0.635  0.792
 
band    13 # energy   -5.10087397 # occ.  2.00000000
 
ion      s      p      d    tot
    1  0.000  0.001  0.007  0.008
    2  0.002  0.001  0.006  0.009
    3  0.000  0.000  0.005  0.006
    4  0.003  0.001  0.004  0.008
    5  0.000  0.000  0.007  0.007
    6  0.000  0.000  0.005  0.006
    7  0.004  0.001  0.004  0.009
    8  0.003  0.001  0.006  0.009
    9  0.000  0.000  0.012  0.012
   10  0.010  0.000  0.017  0.027
   11  0.001  0.000  0.015  0.016
   12  0.000  0.000  0.029  0.030
   13  0.000  0.000  0.011  0.011
   14  0.001  0.000  0.015  0.016
   15  0.005  0.000  0.021  0.025
   16  0.011  0.000  0.016  0.027
   17  0.000  0.000  0.033  0.033
   18  0.004  0.000  0.022  0.026
   19  0.009  0.000  0.026  0.036
   20  0.000  0.000  0.050  0.051
   21  0.000  0.001  0.021  0.022
   22  0.000  0.000  0.064  0.065
   23  0.001  0.000  0.052  0.053
   24  0.015  0.000  0.030  0.045
   25  0.008  0.000  0.033  0.041
   26  0.000  0.000  0.101  0.101
   27  0.016  0.000  0.026  0.043
   28  0.000  0.000  0.008  0.008
   29  0.002  0.001  0.012  0.014
   30  0.004  0.001  0.005  0.010
   31  0.000  0.000  0.005  0.006
   32  0.004  0.001  0.004  0.009
   33  0.000  0.000  0.006  0.006
   34  0.002  0.001  0.012  0.014
   35  0.000  0.000  0.006  0.006
   36  0.000  0.000  0.004  0.004
   37  0.000  0.000  0.000  0.000
tot    0.106  0.012  0.700  0.818
 
band    14 # energy   -5.10085299 # occ.  2.00000000
 
ion      s      p      d    tot
    1  0.000  0.001  0.007  0.008
    2  0.002  0.000  0.004  0.007
    3  0.004  0.001  0.005  0.010
    4  0.001  0.000  0.006  0.007
    5  0.000  0.000  0.007  0.007
    6  0.004  0.001  0.005  0.010
    7  0.000  0.000  0.006  0.007
    8  0.001  0.000  0.005  0.006
    9  0.000  0.000  0.012  0.012
   10  0.004  0.000  0.025  0.029
   11  0.000  0.000  0.012  0.013
   12  0.014  0.000  0.013  0.027
   13  0.001  0.000  0.016  0.018
   14  0.000  0.000  0.013  0.013
   15  0.001  0.000  0.030  0.031
   16  0.003  0.000  0.026  0.029
   17  0.006  0.000  0.017  0.023
   18  0.002  0.000  0.029  0.031
   19  0.003  0.000  0.080  0.083
   20  0.000  0.001  0.032  0.033
   21  0.001  0.000  0.061  0.062
   22  0.021  0.000  0.016  0.037
   23  0.000  0.001  0.030  0.030
   24  0.006  0.000  0.050  0.057
   25  0.003  0.000  0.074  0.077
   26  0.012  0.000  0.006  0.018
   27  0.004  0.000  0.054  0.058
   28  0.000  0.000  0.008  0.008
   29  0.002  0.000  0.003  0.005
   30  0.000  0.000  0.010  0.010
   31  0.004  0.001  0.009  0.014
   32  0.000  0.000  0.010  0.011
   33  0.004  0.001  0.009  0.014
   34  0.002  0.000  0.003  0.006
   35  0.000  0.000  0.006  0.006
   36  0.000  0.000  0.004  0.004
   37  0.000  0.000  0.000  0.000
tot    0.106  0.012  0.700  0.818
 
band    15 # energy   -5.09143706 # occ.  2.00000000
 
ion      s      p      d    tot
    1  0.001  0.000  0.008  0.009
    2  0.000  0.000  0.006  0.006
    3  0.000  0.000  0.006  0.006
    4  0.000  0.000  0.006  0.006
    5  0.000  0.000  0.000  0.000
    6  0.000  0.000  0.006  0.006
    7  0.000  0.000  0.006  0.006
    8  0.000  0.000  0.006  0.006
    9  0.000  0.000  0.005  0.006
   10  0.000  0.000  0.069  0.069
   11  0.003  0.001  0.008  0.012
   12  0.000  0.000  0.069  0.069
   13  0.003  0.001  0.008  0.012
   14  0.003  0.001  0.008  0.012
   15  0.007  0.000  0.044  0.051
   16  0.000  0.000  0.069  0.070
   17  0.007  0.000  0.044  0.051
   18  0.007  0.000  0.044  0.051
   19  0.003  0.000  0.044  0.047
   20  0.000  0.001  0.016  0.016
   21  0.000  0.001  0.016  0.016
   22  0.000  0.000  0.041  0.042
   23  0.000  0.001  0.016  0.017
   24  0.000  0.000  0.041  0.042
   25  0.003  0.000  0.044  0.047
   26  0.003  0.000  0.044  0.047
   27  0.000  0.000  0.041  0.042
   28  0.001  0.000  0.012  0.014
   29  0.000  0.000  0.011  0.011
   30  0.000  0.000  0.011  0.011
   31  0.000  0.000  0.011  0.011
   32  0.000  0.000  0.011  0.011
   33  0.000  0.000  0.011  0.011
   34  0.000  0.000  0.011  0.011
   35  0.001  0.000  0.001  0.001
   36  0.002  0.001  0.000  0.002
   37  0.000  0.000  0.000  0.000
tot    0.047  0.009  0.794  0.849
 
band    16 # energy   -5.08419622 # occ.  2.00000000
 
ion      s      p      d    tot
    1  0.000  0.000  0.009  0.009
    2  0.000  0.000  0.008  0.008
    3  0.002  0.000  0.004  0.005
    4  0.001  0.001  0.008  0.010
    5  0.000  0.000  0.001  0.001
    6  0.001  0.000  0.004  0.005
    7  0.001  0.001  0.008  0.009
    8  0.000  0.000  0.008  0.008
    9  0.000  0.000  0.011  0.011
   10  0.008  0.000  0.039  0.047
   11  0.001  0.000  0.036  0.037
   12  0.000  0.001  0.019  0.020
   13  0.000  0.000  0.060  0.061
   14  0.001  0.000  0.035  0.036
   15  0.011  0.000  0.041  0.052
   16  0.007  0.000  0.038  0.046
   17  0.000  0.000  0.122  0.122
   18  0.012  0.000  0.037  0.049
   19  0.000  0.000  0.022  0.023
   20  0.000  0.000  0.026  0.027
   21  0.000  0.000  0.008  0.008
   22  0.000  0.000  0.026  0.026
   23  0.000  0.000  0.026  0.026
   24  0.000  0.000  0.030  0.031
   25  0.000  0.000  0.020  0.021
   26  0.000  0.000  0.053  0.053
   27  0.000  0.000  0.030  0.031
   28  0.000  0.000  0.012  0.012
   29  0.002  0.000  0.006  0.008
   30  0.000  0.000  0.005  0.005
   31  0.001  0.000  0.005  0.006
   32  0.000  0.000  0.005  0.005
   33  0.001  0.000  0.005  0.006
   34  0.002  0.000  0.006  0.008
   35  0.000  0.000  0.012  0.012
   36  0.000  0.000  0.000  0.000
   37  0.000  0.000  0.000  0.000
tot    0.052  0.008  0.784  0.844
 
band    17 # energy   -5.08417150 # occ.  2.00000000
 
ion      s      p      d    tot
    1  0.000  0.000  0.009  0.009
    2  0.001  0.001  0.005  0.007
    3  0.000  0.000  0.010  0.010
    4  0.001  0.000  0.005  0.006
    5  0.000  0.000  0.001  0.001
    6  0.000  0.000  0.010  0.010
    7  0.001  0.000  0.005  0.006
    8  0.001  0.001  0.005  0.007
    9  0.000  0.000  0.011  0.011
   10  0.002  0.000  0.025  0.028
   11  0.000  0.000  0.051  0.052
   12  0.010  0.000  0.045  0.056
   13  0.001  0.000  0.027  0.028
   14  0.000  0.000  0.053  0.053
   15  0.004  0.000  0.092  0.097
   16  0.003  0.000  0.026  0.029
   17  0.016  0.000  0.011  0.027
   18  0.004  0.000  0.096  0.100
   19  0.000  0.000  0.042  0.042
   20  0.000  0.000  0.013  0.013
   21  0.000  0.000  0.032  0.033
   22  0.000  0.000  0.032  0.032
   23  0.000  0.000  0.014  0.014
   24  0.000  0.000  0.027  0.027
   25  0.000  0.000  0.043  0.043
   26  0.000  0.001  0.011  0.011
   27  0.000  0.000  0.028  0.028
   28  0.000  0.000  0.012  0.012
   29  0.000  0.000  0.005  0.005
   30  0.002  0.000  0.006  0.008
   31  0.001  0.000  0.006  0.007
   32  0.002  0.000  0.006  0.008
   33  0.001  0.000  0.006  0.007
   34  0.000  0.000  0.005  0.005
   35  0.000  0.000  0.012  0.012
   36  0.000  0.000  0.000  0.000
   37  0.000  0.000  0.000  0.000
tot    0.052  0.008  0.784  0.844
 
band    18 # energy   -4.99668067 # occ.  2.00000000
 
ion      s      p      d    tot
    1  0.000  0.000  0.001  0.001
    2  0.000  0.000  0.006  0.006
    3  0.000  0.000  0.006  0.006
    4  0.001  0.001  0.005  0.007
    5  0.000  0.001  0.015  0.015
    6  0.001  0.001  0.005  0.007
    7  0.000  0.000  0.005  0.006
    8  0.001  0.000  0.005  0.006
    9  0.000  0.000  0.007  0.008
   10  0.001  0.001  0.020  0.021
   11  0.000  0.001  0.069  0.069
   12  0.001  0.001  0.018  0.020
   13  0.002  0.000  0.053  0.056
   14  0.003  0.000  0.050  0.053
   15  0.000  0.000  0.007  0.007
   16  0.000  0.000  0.010  0.010
   17  0.002  0.000  0.015  0.017
   18  0.002  0.000  0.016  0.019
   19  0.000  0.000  0.000  0.000
   20  0.002  0.000  0.099  0.101
   21  0.002  0.000  0.104  0.106
   22  0.000  0.001  0.025  0.026
   23  0.000  0.000  0.131  0.131
   24  0.000  0.001  0.024  0.025
   25  0.000  0.001  0.019  0.020
   26  0.000  0.001  0.016  0.017
   27  0.000  0.000  0.034  0.034
   28  0.000  0.000  0.003  0.003
   29  0.000  0.000  0.007  0.008
   30  0.000  0.000  0.008  0.008
   31  0.001  0.001  0.008  0.010
   32  0.001  0.001  0.008  0.010
   33  0.001  0.001  0.010  0.011
   34  0.001  0.001  0.010  0.011
   35  0.000  0.000  0.000  0.000
   36  0.000  0.004  0.012  0.015
   37  0.000  0.001  0.000  0.001
tot    0.024  0.017  0.831  0.872
 
band    19 # energy   -4.99667069 # occ.  2.00000000
 
ion      s      p      d    tot
    1  0.000  0.000  0.001  0.001
    2  0.001  0.000  0.005  0.006
    3  0.001  0.000  0.005  0.006
    4  0.000  0.000  0.005  0.005
    5  0.000  0.001  0.015  0.015
    6  0.000  0.000  0.005  0.006
    7  0.001  0.001  0.006  0.007
    8  0.001  0.000  0.006  0.007
    9  0.000  0.000  0.007  0.008
   10  0.000  0.000  0.012  0.013
   11  0.004  0.000  0.046  0.050
   12  0.000  0.000  0.014  0.014
   13  0.001  0.000  0.062  0.063
   14  0.001  0.000  0.064  0.066
   15  0.003  0.000  0.018  0.022
   16  0.001  0.001  0.022  0.024
   17  0.001  0.000  0.011  0.012
   18  0.001  0.000  0.009  0.010
   19  0.001  0.001  0.023  0.024
   20  0.000  0.000  0.124  0.124
   21  0.001  0.000  0.119  0.120
   22  0.000  0.000  0.030  0.031
   23  0.002  0.000  0.092  0.094
   24  0.000  0.000  0.032  0.032
   25  0.000  0.000  0.005  0.005
   26  0.000  0.000  0.007  0.008
   27  0.000  0.001  0.021  0.023
   28  0.000  0.000  0.003  0.003
   29  0.001  0.001  0.010  0.012
   30  0.001  0.001  0.009  0.011
   31  0.000  0.000  0.009  0.010
   32  0.000  0.000  0.009  0.009
   33  0.000  0.000  0.007  0.008
   34  0.000  0.000  0.007  0.008
   35  0.000  0.000  0.000  0.000
   36  0.000  0.004  0.012  0.015
   37  0.000  0.001  0.000  0.001
tot    0.024  0.017  0.831  0.872
 
band    20 # energy   -4.97014046 # occ.  2.00000000
 
ion      s      p      d    tot
    1  0.000  0.000  0.000  0.000
    2  0.000  0.000  0.003  0.003
    3  0.000  0.000  0.003  0.003
    4  0.000  0.000  0.003  0.003
    5  0.001  0.001  0.018  0.020
    6  0.000  0.000  0.003  0.003
    7  0.000  0.000  0.003  0.003
    8  0.000  0.000  0.003  0.003
    9  0.000  0.000  0.008  0.009
   10  0.000  0.000  0.009  0.009
   11  0.000  0.001  0.087  0.088
   12  0.000  0.000  0.009  0.009
   13  0.000  0.001  0.087  0.088
   14  0.000  0.001  0.087  0.088
   15  0.000  0.001  0.040  0.041
   16  0.000  0.000  0.009  0.009
   17  0.000  0.001  0.040  0.041
   18  0.000  0.001  0.040  0.041
   19  0.001  0.000  0.014  0.014
   20  0.002  0.000  0.061  0.062
   21  0.002  0.000  0.060  0.062
   22  0.003  0.000  0.021  0.024
   23  0.002  0.000  0.060  0.062
   24  0.003  0.000  0.021  0.024
   25  0.001  0.000  0.014  0.014
   26  0.001  0.000  0.014  0.014
   27  0.003  0.000  0.021  0.024
   28  0.004  0.001  0.000  0.005
   29  0.000  0.000  0.014  0.014
   30  0.000  0.000  0.014  0.014
   31  0.000  0.000  0.014  0.014
   32  0.000  0.000  0.014  0.014
   33  0.000  0.000  0.014  0.014
   34  0.000  0.000  0.014  0.014
   35  0.005  0.001  0.001  0.006
   36  0.001  0.001  0.002  0.004
   37  0.000  0.000  0.000  0.001
tot    0.031  0.013  0.823  0.867
 
band    21 # energy   -4.92816726 # occ.  2.00000000
 
ion      s      p      d    tot
    1  0.000  0.000  0.001  0.001
    2  0.000  0.001  0.015  0.016
    3  0.000  0.001  0.015  0.016
    4  0.000  0.001  0.015  0.016
    5  0.006  0.001  0.001  0.007
    6  0.000  0.001  0.015  0.016
    7  0.000  0.001  0.015  0.016
    8  0.000  0.001  0.015  0.016
    9  0.004  0.001  0.001  0.006
   10  0.003  0.000  0.033  0.037
   11  0.000  0.000  0.030  0.031
   12  0.003  0.000  0.033  0.037
   13  0.000  0.000  0.030  0.031
   14  0.000  0.000  0.030  0.031
   15  0.005  0.000  0.014  0.019
   16  0.003  0.000  0.033  0.037
   17  0.005  0.000  0.014  0.019
   18  0.005  0.000  0.014  0.019
   19  0.000  0.000  0.056  0.056
   20  0.000  0.000  0.010  0.010
   21  0.000  0.000  0.010  0.010
   22  0.000  0.001  0.040  0.042
   23  0.000  0.000  0.010  0.010
   24  0.000  0.001  0.040  0.042
   25  0.000  0.000  0.056  0.057
   26  0.000  0.000  0.056  0.056
   27  0.000  0.001  0.040  0.042
   28  0.002  0.000  0.029  0.031
   29  0.001  0.000  0.016  0.017
   30  0.001  0.000  0.016  0.017
   31  0.001  0.000  0.016  0.017
   32  0.001  0.000  0.016  0.017
   33  0.001  0.000  0.016  0.017
   34  0.001  0.000  0.016  0.017
   35  0.007  0.001  0.000  0.008
   36  0.004  0.001  0.000  0.005