PROCAR new format
# of k-points:   10         # of bands:  252         # of ions:   37

 k-point     1 :    0.00000000 0.00000000 0.00000000     weight = 0.01562500

band     1 # energy  -16.60692349 # occ.  2.00000000
 
ion      s      p      d    tot
    1  0.000  0.000  0.000  0.000
    2  0.000  0.000  0.000  0.000
    3  0.000  0.000  0.000  0.000
    4  0.000  0.000  0.000  0.000
    5  0.000  0.000  0.000  0.000
    6  0.000  0.000  0.000  0.000
    7  0.000  0.000  0.000  0.000
    8  0.000  0.000  0.000  0.000
    9  0.000  0.000  0.000  0.000
   10  0.000  0.000  0.000  0.000
   11  0.000  0.000  0.000  0.000
   12  0.000  0.000  0.000  0.000
   13  0.000  0.000  0.000  0.000
   14  0.000  0.000  0.000  0.000
   15  0.000  0.000  0.000  0.000
   16  0.000  0.000  0.000  0.000
   17  0.000  0.000  0.000  0.000
   18  0.000  0.000  0.000  0.000
   19  0.000  0.000  0.000  0.000
   20  0.000  0.000  0.000  0.000
   21  0.000  0.000  0.000  0.000
   22  0.000  0.000  0.000  0.000
   23  0.000  0.000  0.000  0.000
   24  0.000  0.000  0.000  0.000
   25  0.000  0.000  0.000  0.000
   26  0.000  0.000  0.000  0.000
   27  0.000  0.000  0.000  0.000
   28  0.000  0.000  0.000  0.000
   29  0.000  0.000  0.000  0.000
   30  0.000  0.000  0.000  0.000
   31  0.000  0.000  0.000  0.000
   32  0.000  0.000  0.000  0.000
   33  0.000  0.000  0.000  0.000
   34  0.000  0.000  0.000  0.000
   35  0.000  0.000  0.000  0.000
   36  0.034  0.042  0.044  0.120
   37  0.769  0.011  0.000  0.780
tot    0.803  0.054  0.044  0.901
 
band     2 # energy   -8.23127588 # occ.  2.00000000
 
ion      s      p      d    tot
    1  0.007  0.001  0.000  0.007
    2  0.007  0.001  0.000  0.007
    3  0.007  0.001  0.000  0.007
    4  0.007  0.001  0.000  0.007
    5  0.007  0.001  0.000  0.007
    6  0.007  0.001  0.000  0.007
    7  0.007  0.001  0.000  0.007
    8  0.007  0.001  0.000  0.007
    9  0.007  0.001  0.000  0.007
   10  0.027  0.000  0.000  0.027
   11  0.027  0.000  0.000  0.027
   12  0.027  0.000  0.000  0.027
   13  0.027  0.000  0.000  0.027
   14  0.027  0.000  0.000  0.027
   15  0.027  0.000  0.000  0.027
   16  0.027  0.000  0.000  0.027
   17  0.027  0.000  0.000  0.027
   18  0.027  0.000  0.000  0.027
   19  0.024  0.000  0.000  0.024
   20  0.026  0.000  0.000  0.026
   21  0.026  0.000  0.000  0.026
   22  0.025  0.000  0.000  0.025
   23  0.026  0.000  0.000  0.026
   24  0.025  0.000  0.000  0.025
   25  0.024  0.000  0.000  0.024
   26  0.024  0.000  0.000  0.024
   27  0.025  0.000  0.000  0.025
   28  0.005  0.000  0.000  0.005
   29  0.005  0.000  0.000  0.005
   30  0.005  0.000  0.000  0.005
   31  0.005  0.000  0.000  0.005
   32  0.005  0.000  0.000  0.005
   33  0.005  0.000  0.000  0.005
   34  0.005  0.000  0.000  0.005
   35  0.005  0.000  0.000  0.005
   36  0.004  0.001  0.000  0.004
   37  0.000  0.000  0.000  0.000
tot    0.565  0.012  0.003  0.581
 
band     3 # energy   -7.03815155 # occ.  2.00000000
 
ion      s      p      d    tot
    1  0.017  0.000  0.001  0.019
    2  0.017  0.000  0.001  0.019
    3  0.017  0.000  0.001  0.019
    4  0.017  0.000  0.001  0.019
    5  0.017  0.000  0.001  0.018
    6  0.017  0.000  0.001  0.019
    7  0.017  0.000  0.001  0.019
    8  0.017  0.000  0.001  0.019
    9  0.017  0.000  0.001  0.019
   10  0.010  0.002  0.003  0.015
   11  0.010  0.002  0.003  0.014
   12  0.010  0.002  0.003  0.015
   13  0.010  0.002  0.003  0.014
   14  0.010  0.002  0.003  0.014
   15  0.010  0.002  0.003  0.014
   16  0.010  0.002  0.003  0.015
   17  0.010  0.002  0.003  0.014
   18  0.010  0.002  0.003  0.014
   19  0.015  0.001  0.004  0.020
   20  0.016  0.001  0.004  0.021
   21  0.016  0.001  0.004  0.021
   22  0.015  0.001  0.004  0.020
   23  0.016  0.001  0.004  0.021
   24  0.015  0.001  0.004  0.020
   25  0.015  0.001  0.004  0.020
   26  0.015  0.001  0.004  0.020
   27  0.015  0.001  0.004  0.020
   28  0.013  0.001  0.000  0.014
   29  0.013  0.001  0.000  0.014
   30  0.013  0.001  0.000  0.014
   31  0.013  0.001  0.000  0.014
   32  0.013  0.001  0.000  0.014
   33  0.013  0.001  0.000  0.014
   34  0.013  0.001  0.000  0.014
   35  0.013  0.001  0.000  0.014
   36  0.007  0.001  0.000  0.008
   37  0.001  0.000  0.000  0.001
tot    0.492  0.034  0.072  0.598
 
band     4 # energy   -6.09667115 # occ.  2.00000000
 
ion      s      p      d    tot
    1  0.003  0.000  0.017  0.020
    2  0.011  0.000  0.013  0.024
    3  0.011  0.000  0.013  0.024
    4  0.011  0.000  0.013  0.024
    5  0.004  0.000  0.010  0.015
    6  0.011  0.000  0.013  0.024
    7  0.011  0.000  0.013  0.024
    8  0.011  0.000  0.013  0.024
    9  0.035  0.001  0.006  0.041
   10  0.013  0.001  0.021  0.035
   11  0.018  0.002  0.013  0.033
   12  0.013  0.001  0.021  0.035
   13  0.018  0.002  0.013  0.033
   14  0.018  0.002  0.013  0.033
   15  0.003  0.001  0.023  0.027
   16  0.013  0.001  0.021  0.035
   17  0.003  0.001  0.023  0.027
   18  0.003  0.001  0.023  0.027
   19  0.001  0.001  0.013  0.014
   20  0.012  0.001  0.011  0.025
   21  0.012  0.001  0.011  0.024
   22  0.010  0.001  0.002  0.013
   23  0.012  0.001  0.011  0.024
   24  0.010  0.001  0.002  0.014
   25  0.001  0.001  0.013  0.014
   26  0.001  0.001  0.013  0.014
   27  0.010  0.001  0.002  0.013
   28  0.004  0.000  0.000  0.004
   29  0.001  0.000  0.003  0.005
   30  0.001  0.000  0.003  0.005
   31  0.001  0.000  0.003  0.005
   32  0.001  0.000  0.003  0.005
   33  0.001  0.000  0.003  0.005
   34  0.001  0.000  0.003  0.005
   35  0.007  0.000  0.000  0.008
   36  0.002  0.001  0.001  0.005
   37  0.000  0.000  0.000  0.000
tot    0.299  0.028  0.379  0.705
 
band     5 # energy   -6.09086894 # occ.  2.00000000
 
ion      s      p      d    tot
    1  0.026  0.000  0.005  0.032
    2  0.010  0.000  0.013  0.023
    3  0.010  0.000  0.013  0.023
    4  0.010  0.000  0.013  0.023
    5  0.014  0.000  0.012  0.026
    6  0.010  0.000  0.013  0.023
    7  0.010  0.000  0.013  0.023
    8  0.010  0.000  0.013  0.023
    9  0.000  0.001  0.015  0.016
   10  0.000  0.000  0.032  0.033
   11  0.000  0.001  0.022  0.023
   12  0.000  0.000  0.032  0.033
   13  0.000  0.001  0.022  0.023
   14  0.000  0.001  0.022  0.023
   15  0.034  0.002  0.009  0.045
   16  0.000  0.000  0.032  0.033
   17  0.034  0.002  0.009  0.045
   18  0.034  0.002  0.009  0.045
   19  0.001  0.001  0.014  0.015
   20  0.014  0.000  0.012  0.026
   21  0.014  0.000  0.012  0.026
   22  0.008  0.002  0.007  0.017
   23  0.014  0.000  0.012  0.026
   24  0.008  0.002  0.007  0.017
   25  0.001  0.001  0.014  0.015
   26  0.001  0.001  0.014  0.015
   27  0.008  0.002  0.007  0.017
   28  0.000  0.000  0.000  0.000
   29  0.000  0.000  0.002  0.003
   30  0.000  0.000  0.002  0.002
   31  0.000  0.000  0.002  0.003
   32  0.000  0.000  0.002  0.003
   33  0.000  0.000  0.002  0.002
   34  0.000  0.000  0.002  0.003
   35  0.003  0.000  0.000  0.003
   36  0.005  0.001  0.001  0.008
   37  0.000  0.001  0.000  0.001
tot    0.282  0.026  0.409  0.717
 
band     6 # energy   -6.07310138 # occ.  2.00000000
 
ion      s      p      d    tot
    1  0.000  0.000  0.005  0.005
    2  0.007  0.001  0.004  0.012
    3  0.004  0.001  0.003  0.008
    4  0.007  0.001  0.004  0.012
    5  0.000  0.001  0.010  0.011
    6  0.000  0.000  0.003  0.004
    7  0.004  0.001  0.003  0.008
    8  0.000  0.000  0.003  0.004
    9  0.000  0.001  0.002  0.003
   10  0.000  0.001  0.025  0.026
   11  0.045  0.002  0.014  0.061
   12  0.009  0.001  0.011  0.021
   13  0.045  0.002  0.014  0.061
   14  0.000  0.001  0.039  0.040
   15  0.014  0.001  0.013  0.028
   16  0.009  0.001  0.012  0.021
   17  0.014  0.001  0.013  0.028
   18  0.000  0.005  0.004  0.008
   19  0.000  0.001  0.010  0.012
   20  0.000  0.004  0.019  0.023
   21  0.034  0.001  0.014  0.049
   22  0.030  0.002  0.012  0.044
   23  0.033  0.001  0.014  0.049
   24  0.000  0.000  0.039  0.039
   25  0.000  0.003  0.007  0.009
   26  0.000  0.001  0.011  0.012
   27  0.030  0.002  0.012  0.044
   28  0.000  0.000  0.001  0.001
   29  0.001  0.000  0.002  0.003
   30  0.007  0.001  0.003  0.011
   31  0.001  0.000  0.002  0.004
   32  0.003  0.001  0.003  0.007
   33  0.007  0.001  0.003  0.011
   34  0.003  0.001  0.003  0.007
   35  0.000  0.001  0.007  0.007
   36  0.000  0.001  0.001  0.003
   37  0.000  0.000  0.000  0.000
tot    0.307  0.043  0.344  0.694
 
band     7 # energy   -6.07305889 # occ.  2.00000000
 
ion      s      p      d    tot
    1  0.000  0.000  0.005  0.005
    2  0.001  0.000  0.003  0.004
    3  0.003  0.001  0.004  0.008
    4  0.001  0.000  0.003  0.004
    5  0.000  0.001  0.010  0.011
    6  0.007  0.001  0.003  0.012
    7  0.003  0.001  0.004  0.008
    8  0.007  0.001  0.003  0.012
    9  0.000  0.001  0.002  0.003
   10  0.011  0.001  0.007  0.020
   11  0.015  0.001  0.031  0.048
   12  0.003  0.001  0.021  0.025
   13  0.015  0.001  0.031  0.047
   14  0.060  0.002  0.006  0.067
   15  0.005  0.003  0.007  0.015
   16  0.003  0.001  0.021  0.025
   17  0.005  0.003  0.006  0.015
   18  0.019  0.000  0.016  0.035
   19  0.000  0.002  0.008  0.010
   20  0.045  0.001  0.012  0.058
   21  0.011  0.003  0.017  0.031
   22  0.010  0.001  0.030  0.041
   23  0.011  0.003  0.017  0.031
   24  0.040  0.002  0.003  0.045
   25  0.000  0.001  0.012  0.012
   26  0.000  0.002  0.008  0.010
   27  0.010  0.001  0.030  0.041
   28  0.000  0.000  0.001  0.001
   29  0.006  0.001  0.003  0.011
   30  0.000  0.000  0.003  0.003
   31  0.006  0.001  0.003  0.011
   32  0.004  0.001  0.002  0.007
   33  0.000  0.000  0.003  0.003
   34  0.004  0.001  0.002  0.007
   35  0.000  0.001  0.007  0.007
   36  0.000  0.001  0.001  0.003
   37  0.000  0.000  0.000  0.000
tot    0.307  0.043  0.344  0.694
 
band     8 # energy   -6.06202234 # occ.  2.00000000
 
ion      s      p      d    tot
    1  0.006  0.001  0.001  0.009
    2  0.000  0.001  0.006  0.007
    3  0.000  0.001  0.006  0.007
    4  0.000  0.001  0.006  0.007
    5  0.018  0.002  0.001  0.020
    6  0.000  0.001  0.006  0.007
    7  0.000  0.001  0.006  0.007
    8  0.000  0.001  0.006  0.007
    9  0.000  0.000  0.002  0.002
   10  0.026  0.003  0.002  0.031
   11  0.020  0.001  0.022  0.043
   12  0.025  0.003  0.002  0.030
   13  0.020  0.001  0.022  0.043
   14  0.021  0.001  0.022  0.044
   15  0.000  0.001  0.025  0.026
   16  0.025  0.003  0.002  0.030
   17  0.000  0.001  0.025  0.026
   18  0.000  0.001  0.024  0.026
   19  0.026  0.002  0.006  0.035
   20  0.006  0.002  0.014  0.022
   21  0.006  0.002  0.014  0.022
   22  0.008  0.000  0.026  0.034
   23  0.006  0.002  0.014  0.022
   24  0.008  0.000  0.026  0.034
   25  0.026  0.002  0.007  0.035
   26  0.026  0.002  0.006  0.035
   27  0.008  0.000  0.026  0.034
   28  0.010  0.001  0.001  0.013
   29  0.000  0.000  0.004  0.004
   30  0.000  0.000  0.004  0.004
   31  0.000  0.000  0.004  0.004
   32  0.000  0.000  0.004  0.005
   33  0.000  0.000  0.004  0.004
   34  0.000  0.000  0.004  0.005
   35  0.005  0.001  0.002  0.007
   36  0.001  0.000  0.000  0.001
   37  0.000  0.000  0.000  0.000
tot    0.302  0.041  0.352  0.694
 
band     9 # energy   -6.04797569 # occ.  2.00000000
 
ion      s      p      d    tot
    1  0.000  0.001  0.007  0.008
    2  0.007  0.001  0.004  0.013
    3  0.005  0.001  0.003  0.009
    4  0.007  0.001  0.004  0.013
    5  0.000  0.000  0.002  0.002
    6  0.000  0.000  0.003  0.004
    7  0.005  0.001  0.003  0.009
    8  0.000  0.000  0.003  0.004
    9  0.000  0.001  0.010  0.010
   10  0.051  0.001  0.013  0.065
   11  0.000  0.003  0.009  0.012
   12  0.013  0.003  0.017  0.033
   13  0.000  0.003  0.009  0.012
   14  0.000  0.000  0.014  0.015
   15  0.011  0.000  0.034  0.046
   16  0.013  0.003  0.017  0.033
   17  0.011  0.000  0.035  0.046
   18  0.044  0.002  0.003  0.049
   19  0.013  0.002  0.027  0.042
   20  0.013  0.002  0.006  0.021
   21  0.003  0.001  0.021  0.025
   22  0.004  0.003  0.007  0.014
   23  0.003  0.001  0.021  0.025
   24  0.015  0.000  0.015  0.030
   25  0.052  0.002  0.005  0.060
   26  0.013  0.002  0.027  0.042
   27  0.004  0.003  0.008  0.014
   28  0.000  0.001  0.006  0.007
   29  0.000  0.000  0.002  0.003
   30  0.004  0.001  0.002  0.007
   31  0.000  0.000  0.002  0.003
   32  0.002  0.001  0.003  0.005
   33  0.004  0.001  0.002  0.007
   34  0.002  0.001  0.003  0.005
   35  0.000  0.000  0.001  0.002
   36  0.000  0.000  0.001  0.001
   37  0.000  0.000  0.000  0.000
tot    0.301  0.042  0.351  0.694
 
band    10 # energy   -6.04792204 # occ.  2.00000000
 
ion      s      p      d    tot
    1  0.000  0.001  0.007  0.008
    2  0.001  0.000  0.003  0.004
    3  0.004  0.001  0.004  0.008
    4  0.001  0.000  0.003  0.004
    5  0.000  0.000  0.002  0.002
    6  0.008  0.001  0.004  0.013
    7  0.004  0.001  0.004  0.008
    8  0.008  0.001  0.004  0.013
    9  0.000  0.001  0.010  0.010
   10  0.000  0.004  0.019  0.022
   11  0.000  0.001  0.012  0.014
   12  0.039  0.001  0.014  0.054
   13  0.000  0.001  0.012  0.014
   14  0.000  0.003  0.007  0.011
   15  0.033  0.001  0.014  0.048
   16  0.038  0.001  0.014  0.054
   17  0.033  0.001  0.013  0.048
   18  0.000  0.000  0.045  0.045
   19  0.039  0.002  0.013  0.053
   20  0.000  0.001  0.026  0.026
   21  0.010  0.001  0.011  0.022
   22  0.011  0.001  0.012  0.025
   23  0.010  0.001  0.011  0.022
   24  0.000  0.004  0.005  0.009
   25  0.000  0.002  0.034  0.036
   26  0.039  0.002  0.013  0.054
   27  0.011  0.001  0.012  0.024
   28  0.000  0.001  0.006  0.007
   29  0.004  0.001  0.003  0.007
   30  0.000  0.000  0.002  0.003
   31  0.004  0.001  0.003  0.007
   32  0.002  0.001  0.002  0.005
   33  0.000  0.000  0.002  0.003
   34  0.002  0.001  0.002  0.005
   35  0.000  0.000  0.001  0.002
   36  0.000  0.000  0.001  0.001
   37  0.000  0.000  0.000  0.000
tot    0.301  0.042  0.351  0.694
 
band    11 # energy   -5.90138408 # occ.  2.00000000
 
ion      s      p      d    tot
    1  0.001  0.000  0.000  0.001
    2  0.001  0.000  0.000  0.001
    3  0.001  0.000  0.000  0.001
    4  0.001  0.000  0.000  0.001
    5  0.002  0.000  0.000  0.002
    6  0.001  0.000  0.000  0.001
    7  0.001  0.000  0.000  0.001
    8  0.001  0.000  0.000  0.001
    9  0.000  0.000  0.000  0.001
   10  0.000  0.000  0.002  0.003
   11  0.001  0.000  0.002  0.003
   12  0.000  0.000  0.002  0.003
   13  0.001  0.000  0.002  0.003
   14  0.001  0.000  0.002  0.003
   15  0.001  0.000  0.003  0.004
   16  0.000  0.000  0.002  0.003
   17  0.001  0.000  0.003  0.004
   18  0.001  0.000  0.003  0.004
   19  0.004  0.001  0.021  0.026
   20  0.003  0.000  0.025  0.029
   21  0.003  0.000  0.025  0.029
   22  0.008  0.001  0.027  0.036
   23  0.003  0.000  0.025  0.029
   24  0.008  0.001  0.027  0.036
   25  0.004  0.001  0.021  0.026
   26  0.004  0.001  0.021  0.026
   27  0.008  0.001  0.027  0.036
   28  0.031  0.000  0.022  0.054
   29  0.025  0.000  0.023  0.048
   30  0.025  0.000  0.023  0.048
   31  0.025  0.000  0.023  0.048
   32  0.025  0.000  0.023  0.048
   33  0.025  0.000  0.023  0.048
   34  0.025  0.000  0.023  0.048
   35  0.031  0.000  0.024  0.055
   36  0.006  0.000  0.006  0.013
   37  0.001  0.000  0.000  0.001
tot    0.277  0.012  0.430  0.719
 
band    12 # energy   -5.59245508 # occ.  2.00000000
 
ion      s      p      d    tot
    1  0.014  0.002  0.002  0.018
    2  0.000  0.001  0.009  0.009
    3  0.000  0.001  0.009  0.009
    4  0.000  0.001  0.009  0.009
    5  0.000  0.000  0.002  0.002
    6  0.000  0.001  0.009  0.009
    7  0.000  0.001  0.009  0.009
    8  0.000  0.001  0.009  0.009
    9  0.018  0.002  0.000  0.019
   10  0.010  0.002  0.013  0.025
   11  0.002  0.000  0.043  0.046
   12  0.010  0.002  0.013  0.025
   13  0.002  0.000  0.043  0.046
   14  0.002  0.000  0.043  0.046
   15  0.003  0.001  0.025  0.029
   16  0.010  0.002  0.013  0.025
   17  0.003  0.001  0.025  0.029
   18  0.003  0.001  0.025  0.029
   19  0.005  0.001  0.014  0.020
   20  0.002  0.000  0.047  0.049
   21  0.002  0.000  0.047  0.049
   22  0.011  0.001  0.018  0.030
   23  0.002  0.000  0.047  0.049
   24  0.011  0.001  0.018  0.030
   25  0.005  0.001  0.014  0.020
   26  0.005  0.001  0.014  0.020
   27  0.011  0.001  0.018  0.030
   28  0.010  0.001  0.001  0.012
   29  0.000  0.001  0.005  0.006
   30  0.000  0.001  0.005  0.006
   31  0.000  0.001  0.005  0.006
   32  0.000  0.001  0.005  0.006
   33  0.000  0.001  0.005  0.006
   34  0.000  0.001  0.005  0.006
   35  0.010  0.001  0.002  0.013
   36  0.000  0.000  0.001  0.001
   37  0.000  0.000  0.000  0.000
tot    0.152  0.029  0.571  0.752
 
band    13 # energy   -5.58625110 # occ.  2.00000000
 
ion      s      p      d    tot
    1  0.000  0.001  0.004  0.005
    2  0.000  0.000  0.005  0.006
    3  0.008  0.001  0.005  0.014
    4  0.000  0.000  0.005  0.006
    5  0.000  0.001  0.011  0.013
    6  0.006  0.001  0.004  0.010
    7  0.008  0.001  0.005  0.014
    8  0.006  0.001  0.004  0.011
    9  0.000  0.000  0.008  0.008
   10  0.000  0.001  0.053  0.054
   11  0.015  0.001  0.020  0.037
   12  0.008  0.002  0.020  0.029
   13  0.014  0.001  0.022  0.038
   14  0.000  0.000  0.049  0.049
   15  0.001  0.001  0.020  0.022
   16  0.008  0.002  0.018  0.028
   17  0.001  0.001  0.020  0.021
   18  0.000  0.001  0.010  0.012
   19  0.008  0.000  0.020  0.029
   20  0.000  0.000  0.066  0.066
   21  0.017  0.001  0.023  0.040
   22  0.002  0.001  0.019  0.022
   23  0.018  0.001  0.020  0.039
   24  0.000  0.001  0.031  0.032
   25  0.000  0.001  0.017  0.018
   26  0.008  0.000  0.020  0.028
   27  0.002  0.001  0.019  0.021
   28  0.000  0.001  0.009  0.009
   29  0.001  0.000  0.004  0.006
   30  0.010  0.001  0.004  0.014
   31  0.001  0.000  0.004  0.005
   32  0.004  0.001  0.004  0.009
   33  0.010  0.001  0.004  0.015
   34  0.004  0.001  0.004  0.010
   35  0.000  0.000  0.004  0.004
   36  0.000  0.002  0.002  0.004
   37  0.000  0.000  0.000  0.000
tot    0.161  0.032  0.554  0.747
 
band    14 # energy   -5.58624961 # occ.  2.00000000
 
ion      s      p      d    tot
    1  0.000  0.001  0.004  0.005
    2  0.009  0.001  0.004  0.015
    3  0.001  0.000  0.004  0.006
    4  0.009  0.001  0.004  0.015
    5  0.000  0.001  0.011  0.013
    6  0.004  0.001  0.005  0.010
    7  0.001  0.000  0.004  0.006
    8  0.003  0.001  0.005  0.009
    9  0.000  0.000  0.008  0.008
   10  0.011  0.002  0.008  0.020
   11  0.005  0.000  0.040  0.045
   12  0.003  0.001  0.040  0.044
   13  0.006  0.000  0.039  0.045
   14  0.020  0.001  0.012  0.033
   15  0.000  0.001  0.013  0.015
   16  0.002  0.001  0.043  0.046
   17  0.000  0.001  0.014  0.015
   18  0.001  0.000  0.023  0.025
   19  0.002  0.001  0.018  0.021
   20  0.023  0.002  0.006  0.031
   21  0.006  0.000  0.050  0.056
   22  0.001  0.001  0.027  0.029
   23  0.005  0.000  0.053  0.058
   24  0.002  0.001  0.015  0.018
   25  0.011  0.000  0.021  0.032
   26  0.003  0.001  0.018  0.022
   27  0.000  0.001  0.027  0.029
   28  0.000  0.001  0.009  0.009
   29  0.009  0.001  0.004  0.014
   30  0.000  0.001  0.004  0.005
   31  0.009  0.001  0.004  0.014
   32  0.006  0.001  0.003  0.010
   33  0.000  0.001  0.004  0.005
   34  0.006  0.001  0.003  0.010
   35  0.000  0.000  0.004  0.004
   36  0.000  0.002  0.002  0.004
   37  0.000  0.000  0.000  0.000
tot    0.161  0.032  0.554  0.747
 
band    15 # energy   -5.57871129 # occ.  2.00000000
 
ion      s      p      d    tot
    1  0.007  0.000  0.001  0.008
    2  0.000  0.001  0.008  0.009
    3  0.000  0.001  0.008  0.009
    4  0.000  0.001  0.008  0.009
    5  0.018  0.002  0.001  0.021
    6  0.000  0.001  0.008  0.009
    7  0.000  0.001  0.008  0.009
    8  0.000  0.001  0.008  0.009
    9  0.003  0.001  0.002  0.006
   10  0.000  0.000  0.041  0.042
   11  0.007  0.002  0.009  0.018
   12  0.000  0.000  0.042  0.042
   13  0.007  0.002  0.009  0.018
   14  0.008  0.002  0.009  0.019
   15  0.008  0.001  0.027  0.036
   16  0.000  0.000  0.042  0.042
   17  0.008  0.001  0.027  0.036
   18  0.008  0.001  0.027  0.035
   19  0.010  0.001  0.038  0.048
   20  0.009  0.002  0.009  0.020
   21  0.009  0.002  0.009  0.020
   22  0.000  0.000  0.036  0.036
   23  0.009  0.002  0.009  0.020
   24  0.000  0.000  0.036  0.037
   25  0.010  0.001  0.038  0.048
   26  0.010  0.001  0.038  0.048
   27  0.000  0.000  0.036  0.036
   28  0.001  0.001  0.005  0.006
   29  0.000  0.000  0.005  0.006
   30  0.000  0.000  0.005  0.006
   31  0.000  0.000  0.005  0.006
   32  0.000  0.000  0.005  0.006
   33  0.000  0.000  0.005  0.006
   34  0.000  0.000  0.005  0.006
   35  0.003  0.000  0.000  0.003
   36  0.014  0.002  0.001  0.017
   37  0.001  0.002  0.000  0.003
tot    0.151  0.032  0.572  0.756
 
band    16 # energy   -5.55619492 # occ.  2.00000000
 
ion      s      p      d    tot
    1  0.000  0.001  0.014  0.014
    2  0.010  0.001  0.005  0.016
    3  0.002  0.000  0.005  0.008
    4  0.010  0.001  0.005  0.016
    5  0.000  0.000  0.005  0.005
    6  0.003  0.001  0.006  0.009
    7  0.002  0.000  0.005  0.008
    8  0.003  0.001  0.006  0.009
    9  0.000  0.001  0.008  0.010
   10  0.000  0.001  0.024  0.025
   11  0.001  0.001  0.020  0.022
   12  0.006  0.000  0.023  0.029
   13  0.001  0.001  0.020  0.022
   14  0.000  0.001  0.025  0.026
   15  0.013  0.002  0.021  0.036
   16  0.006  0.000  0.023  0.029
   17  0.013  0.002  0.021  0.036
   18  0.000  0.000  0.066  0.066
   19  0.011  0.001  0.020  0.032
   20  0.000  0.002  0.015  0.017
   21  0.001  0.000  0.021  0.022
   22  0.018  0.001  0.021  0.040
   23  0.001  0.000  0.021  0.022
   24  0.000  0.000  0.038  0.039
   25  0.000  0.000  0.064  0.065
   26  0.011  0.001  0.020  0.032
   27  0.018  0.001  0.021  0.040
   28  0.000  0.001  0.004  0.004
   29  0.006  0.001  0.004  0.011
   30  0.000  0.000  0.004  0.005
   31  0.006  0.001  0.004  0.011
   32  0.003  0.001  0.002  0.006
   33  0.000  0.000  0.004  0.005
   34  0.003  0.001  0.002  0.006
   35  0.000  0.001  0.008  0.009
   36  0.000  0.000  0.001  0.001
   37  0.000  0.000  0.000  0.000
tot    0.150  0.029  0.573  0.752
 
band    17 # energy   -5.55617294 # occ.  2.00000000
 
ion      s      p      d    tot
    1  0.000  0.001  0.014  0.014
    2  0.000  0.000  0.005  0.006
    3  0.008  0.001  0.005  0.014
    4  0.000  0.000  0.005  0.006
    5  0.000  0.000  0.005  0.005
    6  0.007  0.001  0.004  0.013
    7  0.008  0.001  0.005  0.014
    8  0.007  0.001  0.004  0.013
    9  0.000  0.001  0.008  0.010
   10  0.008  0.000  0.022  0.030
   11  0.000  0.001  0.023  0.025
   12  0.002  0.001  0.024  0.026
   13  0.000  0.001  0.023  0.025
   14  0.002  0.001  0.018  0.021
   15  0.004  0.001  0.051  0.056
   16  0.002  0.001  0.024  0.026
   17  0.004  0.001  0.051  0.056
   18  0.017  0.002  0.006  0.026
   19  0.004  0.001  0.050  0.054
   20  0.001  0.000  0.023  0.024
   21  0.000  0.001  0.017  0.019
   22  0.006  0.000  0.033  0.039
   23  0.000  0.001  0.017  0.019
   24  0.024  0.001  0.015  0.041
   25  0.015  0.001  0.005  0.021
   26  0.004  0.001  0.050  0.054
   27  0.006  0.000  0.033  0.039
   28  0.000  0.001  0.004  0.004
   29  0.000  0.000  0.003  0.003
   30  0.006  0.001  0.003  0.009
   31  0.000  0.000  0.003  0.003
   32  0.003  0.001  0.005  0.009
   33  0.006  0.001  0.003  0.009
   34  0.003  0.001  0.005  0.009
   35  0.000  0.001  0.008  0.009
   36  0.000  0.000  0.001  0.001
   37  0.000  0.000  0.000  0.000
tot    0.150  0.029  0.573  0.752
 
band    18 # energy   -5.20351568 # occ.  2.00000000
 
ion      s      p      d    tot
    1  0.000  0.001  0.014  0.015
    2  0.011  0.001  0.012  0.023
    3  0.002  0.001  0.010  0.013
    4  0.011  0.001  0.012  0.024
    5  0.000  0.000  0.032  0.032
    6  0.003  0.000  0.016  0.019
    7  0.002  0.001  0.010  0.013
    8  0.003  0.000  0.016  0.019
    9  0.000  0.001  0.010  0.011
   10  0.000  0.000  0.006  0.006
   11  0.000  0.000  0.038  0.039
   12  0.000  0.000  0.014  0.014
   13  0.000  0.000  0.038  0.039
   14  0.000  0.000  0.041  0.041
   15  0.000  0.000  0.046  0.047
   16  0.000  0.000  0.014  0.014
   17  0.000  0.000  0.046  0.046
   18  0.000  0.000  0.033  0.033
   19  0.001  0.000  0.011  0.012
   20  0.000  0.000  0.023  0.023
   21  0.001  0.000  0.034  0.035
   22  0.000  0.000  0.040  0.040
   23  0.001  0.000  0.034  0.035
   24  0.000  0.000  0.035  0.035
   25  0.000  0.000  0.012  0.012
   26  0.001  0.000  0.011  0.012
   27  0.000  0.000  0.040  0.041
   28  0.000  0.000  0.015  0.015
   29  0.004  0.001  0.007  0.012
   30  0.011  0.001  0.010  0.021
   31  0.004  0.001  0.007  0.011
   32  0.001  0.000  0.011  0.012
   33  0.010  0.001  0.010  0.021
   34  0.002  0.000  0.011  0.013
   35  0.000  0.000  0.019  0.020
   36  0.000  0.002  0.001  0.002
   37  0.000  0.000  0.000  0.000
tot    0.068  0.016  0.739  0.823
 
band    19 # energy   -5.20351497 # occ.  2.00000000
 
ion      s      p      d    tot
    1  0.000  0.001  0.014  0.015
    2  0.000  0.000  0.013  0.014
    3  0.008  0.000  0.015  0.024
    4  0.000  0.000  0.013  0.013
    5  0.000  0.000  0.032  0.032
    6  0.007  0.001  0.009  0.018
    7  0.008  0.000  0.015  0.024
    8  0.008  0.001  0.010  0.018
    9  0.000  0.001  0.010  0.011
   10  0.000  0.000  0.016  0.017
   11  0.000  0.000  0.040  0.040
   12  0.000  0.000  0.009  0.009
   13  0.000  0.000  0.040  0.040
   14  0.000  0.000  0.037  0.038
   15  0.000  0.000  0.037  0.038
   16  0.000  0.000  0.009  0.009
   17  0.000  0.000  0.038  0.038
   18  0.000  0.000  0.050  0.051
   19  0.000  0.000  0.012  0.012
   20  0.001  0.000  0.038  0.039
   21  0.000  0.000  0.027  0.027
   22  0.000  0.000  0.037  0.037
   23  0.000  0.000  0.026  0.027
   24  0.000  0.000  0.042  0.042
   25  0.001  0.000  0.011  0.012
   26  0.000  0.000  0.012  0.012
   27  0.000  0.000  0.036  0.037
   28  0.000  0.000  0.015  0.015
   29  0.006  0.000  0.012  0.019
   30  0.000  0.001  0.008  0.009
   31  0.007  0.000  0.012  0.019
   32  0.009  0.001  0.008  0.018
   33  0.000  0.001  0.008  0.009
   34  0.009  0.001  0.008  0.018
   35  0.000  0.000  0.019  0.020
   36  0.000  0.002  0.001  0.002
   37  0.000  0.000  0.000  0.000
tot    0.068  0.016  0.739  0.823
 
band    20 # energy   -5.19157919 # occ.  2.00000000
 
ion      s      p      d    tot
    1  0.016  0.001  0.000  0.017
    2  0.000  0.001  0.016  0.017
    3  0.000  0.001  0.016  0.016
    4  0.000  0.001  0.016  0.017
    5  0.011  0.000  0.013  0.025
    6  0.000  0.001  0.016  0.016
    7  0.000  0.001  0.016  0.016
    8  0.000  0.001  0.016  0.016
    9  0.000  0.000  0.008  0.009
   10  0.000  0.000  0.027  0.028
   11  0.000  0.000  0.038  0.038
   12  0.000  0.000  0.027  0.028
   13  0.000  0.000  0.038  0.038
   14  0.000  0.000  0.038  0.039
   15  0.000  0.000  0.039  0.040
   16  0.000  0.000  0.027  0.028
   17  0.000  0.000  0.039  0.040
   18  0.000  0.000  0.039  0.040
   19  0.000  0.000  0.026  0.026
   20  0.001  0.000  0.027  0.027
   21  0.001  0.000  0.027  0.027
   22  0.001  0.000  0.030  0.031
   23  0.001  0.000  0.027  0.027
   24  0.001  0.000  0.030  0.032
   25  0.000  0.000  0.026  0.026
   26  0.000  0.000  0.026  0.026
   27  0.001  0.000  0.030  0.031
   28  0.014  0.001  0.001  0.016
   29  0.000  0.001  0.012  0.012
   30  0.000  0.001  0.012  0.012
   31  0.000  0.001  0.012  0.012
   32  0.000  0.001  0.012  0.012
   33  0.000  0.001  0.012  0.012
   34  0.000  0.001  0.012  0.012
   35  0.008  0.000  0.005  0.013
   36  0.001  0.000  0.002  0.003
   37  0.000  0.001  0.000  0.001
tot    0.056  0.014  0.758  0.829
 
band    21 # energy   -5.17816422 # occ.  2.00000000
 
ion      s      p      d    tot
    1  0.001  0.000  0.014  0.016
    2  0.000  0.001  0.018  0.019
    3  0.000  0.001  0.018  0.019
    4  0.000  0.001  0.018  0.019
    5  0.012  0.001  0.002  0.016
    6  0.000  0.001  0.018  0.019
    7  0.000  0.001  0.018  0.019
    8  0.000  0.001  0.018  0.019
    9  0.024  0.001  0.007  0.031
   10  0.000  0.000  0.047  0.047
   11  0.000  0.001  0.041  0.042
   12  0.000  0.000  0.047  0.047
   13  0.000  0.001  0.041  0.042
   14  0.000  0.001  0.041  0.041
   15  0.000  0.000  0.031  0.031
   16  0.000  0.000  0.047  0.047
   17  0.000  0.000  0.031  0.031
   18  0.000  0.000  0.031  0.032
   19  0.001  0.000  0.024  0.026
   20  0.001  0.000  0.035  0.036
   21  0.001  0.000  0.035  0.036
   22  0.000  0.000  0.017  0.017
   23  0.001  0.000  0.035  0.036
   24  0.000  0.000  0.017  0.017
   25  0.001  0.000  0.024  0.026
   26  0.001  0.000  0.024  0.026
   27  0.000  0.000  0.017  0.017
   28  0.001  0.000  0.004  0.004
   29  0.000  0.000  0.007  0.008
   30  0.000  0.000  0.007  0.008
   31  0.000  0.000  0.007  0.008
   32  0.000  0.000  0.007  0.008
   33  0.000  0.000  0.007  0.008
   34  0.000  0.000  0.007  0.008
   35  0.001  0.000  0.001  0.003
   36  0.006  0.000  0.002  0.008