 vasp.6.2.0 18Jan21 (build Jun 12 2021 23:27:24) complex                        
  
 executed on             LinuxIFC date 2022.05.30  17:09:42
 running on   28 total cores
 distrk:  each k-point on   28 cores,    1 groups
 distr:  one band on NCORE=   1 cores,   28 groups


--------------------------------------------------------------------------------------------------------


 INCAR:
   ISMEAR = -5
   SIGMA = 0.1
   ISPIN = 1
   EDIFF = 1.d-5
   EDIFFG = -0.01
   NSW = 0
   NELM = 150
   ENCUT = 500
   ISIF = 2
   IBRION = 2
   LREAL = Auto
   ALGO = Fast
   ICHARG = 11
   LORBIT = 10
   LCHARG = .F.
   LWAVE = .F.

 POTCAR:    PAW_PBE Ag 02Apr2005                  
 POTCAR:    PAW_PBE Mo 08Apr2002                  
 POTCAR:    PAW_PBE C 08Apr2002                   
 -----------------------------------------------------------------------------
|                                                                             |
|           W    W    AA    RRRRR   N    N  II  N    N   GGGG   !!!           |
|           W    W   A  A   R    R  NN   N  II  NN   N  G    G  !!!           |
|           W    W  A    A  R    R  N N  N  II  N N  N  G       !!!           |
|           W WW W  AAAAAA  RRRRR   N  N N  II  N  N N  G  GGG   !            |
|           WW  WW  A    A  R   R   N   NN  II  N   NN  G    G                |
|           W    W  A    A  R    R  N    N  II  N    N   GGGG   !!!           |
|                                                                             |
|     For optimal performance we recommend to set                             |
|       NCORE = 2 up to number-of-cores-per-socket                            |
|     NCORE specifies how many cores store one orbital (NPAR=cpu/NCORE).      |
|     This setting can greatly improve the performance of VASP for DFT.       |
|     The default, NCORE=1 might be grossly inefficient on modern             |
|     multi-core architectures or massively parallel machines. Do your        |
|     own testing! More info at https://www.vasp.at/wiki/index.php/NCORE      |
|     Unfortunately you need to use the default for GW and RPA                |
|     calculations (for HF NCORE is supported but not extensively tested      |
|     yet).                                                                   |
|                                                                             |
 -----------------------------------------------------------------------------

 POTCAR:    PAW_PBE Ag 02Apr2005                  
   VRHFIN =Ag : s1 d10                                                                              
   LEXCH  = PE                                                                                      
   EATOM  =  1037.2675 eV,   76.2370 Ry                                                             
                                                                                                    
   TITEL  = PAW_PBE Ag 02Apr2005                                                                    
   LULTRA =        F    use ultrasoft PP ?                                                          
   IUNSCR =        1    unscreen: 0-lin 1-nonlin 2-no                                               
   RPACOR =    2.000    partial core radius                                                         
   POMASS =  107.868; ZVAL   =   11.000    mass and valenz                                          
   RCORE  =    2.500    outmost cutoff radius                                                       
   RWIGS  =    2.840; RWIGS  =    1.503    wigner-seitz radius (au A)                               
   ENMAX  =  249.844; ENMIN  =  187.383 eV                                                          
   ICORE  =        3    local potential                                                             
   LCOR   =        T    correct aug charges                                                         
   LPAW   =        T    paw PP                                                                      
   EAUG   =  412.496                                                                                
   DEXC   =    0.000                                                                                
   RMAX   =    2.560    core radius for proj-oper                                                   
   RAUG   =    1.300    factor for augmentation sphere                                              
   RDEP   =    2.576    radius for radial grids                                                     
   RDEPT  =    2.072    core radius for aug-charge                                                  
                                                                                                    
   Atomic configuration                                                                             
   12 entries                                                                                       
     n  l   j            E        occ.                                                              
     1  0  0.50    -25324.9161   2.0000                                                             
     2  0  0.50     -3728.5341   2.0000                                                             
     2  1  1.50     -3344.0404   6.0000                                                             
     3  0  0.50      -683.5581   2.0000                                                             
     3  1  1.50      -557.3225   6.0000                                                             
     3  2  2.50      -358.3853  10.0000                                                             
     4  0  0.50       -95.0341   2.0000                                                             
     4  1  1.50       -58.5511   6.0000                                                             
     4  2  2.50        -7.4440  10.0000                                                             
     5  0  0.50        -4.4045   1.0000                                                             
     5  1  0.50        -1.3606   0.0000                                                             
     4  3  2.50        -1.3606   0.0000                                                             
   Description                                                                                      
     l       E           TYP  RCUT    TYP  RCUT                                                     
     2     -7.4439781     23  2.400                                                                 
     2     -8.8045607     23  2.400                                                                 
     0     -4.4044681     23  2.400                                                                 
     0      1.9520038     23  2.400                                                                 
     1     -1.3605826     23  2.500                                                                 
     1     27.2116520     23  2.500                                                                 
     3     -4.0817478     23  2.400                                                                 
  local pseudopotential read in
  partial core-charges read in
  partial kinetic energy density read in
  atomic valenz-charges read in
  non local Contribution for L=           2  read in
    real space projection operators read in
  non local Contribution for L=           2  read in
    real space projection operators read in
  non local Contribution for L=           0  read in
    real space projection operators read in
  non local Contribution for L=           0  read in
    real space projection operators read in
  non local Contribution for L=           1  read in
    real space projection operators read in
  non local Contribution for L=           1  read in
    real space projection operators read in
    PAW grid and wavefunctions read in
 
   number of l-projection  operators is LMAX  =           6
   number of lm-projection operators is LMMAX =          18
 
 POTCAR:    PAW_PBE Mo 08Apr2002                  
   VRHFIN =Mo: 4p5s4d                                                                               
   LEXCH  = PE                                                                                      
   EATOM  =   217.5176 eV,   15.9871 Ry                                                             
                                                                                                    
   TITEL  = PAW_PBE Mo 08Apr2002                                                                    
   LULTRA =        F    use ultrasoft PP ?                                                          
   IUNSCR =        1    unscreen: 0-lin 1-nonlin 2-no                                               
   RPACOR =    2.200    partial core radius                                                         
   POMASS =   95.940; ZVAL   =    6.000    mass and valenz                                          
   RCORE  =    2.750    outmost cutoff radius                                                       
   RWIGS  =    2.750; RWIGS  =    1.455    wigner-seitz radius (au A)                               
   ENMAX  =  224.584; ENMIN  =  168.438 eV                                                          
   RCLOC  =    2.111    cutoff for local pot                                                        
   LCOR   =        T    correct aug charges                                                         
   LPAW   =        T    paw PP                                                                      
   EAUG   =  345.278                                                                                
   DEXC   =    0.000                                                                                
   RMAX   =    2.821    core radius for proj-oper                                                   
   RAUG   =    1.300    factor for augmentation sphere                                              
   RDEP   =    2.815    radius for radial grids                                                     
   RDEPT  =    2.211    core radius for aug-charge                                                  
                                                                                                    
   Atomic configuration                                                                             
   12 entries                                                                                       
     n  l   j            E        occ.                                                              
     1  0  0.50    -19819.0341   2.0000                                                             
     2  0  0.50     -2799.0127   2.0000                                                             
     2  1  1.50     -2502.0276   6.0000                                                             
     3  0  0.50      -476.4448   2.0000                                                             
     3  1  1.50      -379.1496   6.0000                                                             
     3  2  2.50      -220.9367  10.0000                                                             
     4  0  0.50       -64.3378   2.0000                                                             
     4  1  1.50       -38.4773   6.0000                                                             
     4  2  2.50        -3.7535   5.0000                                                             
     5  0  0.50        -4.0862   1.0000                                                             
     5  1  0.50        -2.7701   0.0000                                                             
     4  3  2.50        -1.3606   0.0000                                                             
   Description                                                                                      
     l       E           TYP  RCUT    TYP  RCUT                                                     
     2     -3.7534765     23  2.500                                                                 
     2     -5.1140591     23  2.500                                                                 
     0     -4.0861560     23  2.600                                                                 
     0     13.6058260     23  2.600                                                                 
     1      5.4423304     23  2.750                                                                 
     1     27.2116520     23  2.750                                                                 
  local pseudopotential read in
  partial core-charges read in
  partial kinetic energy density read in
  atomic valenz-charges read in
  non local Contribution for L=           2  read in
    real space projection operators read in
  non local Contribution for L=           2  read in
    real space projection operators read in
  non local Contribution for L=           0  read in
    real space projection operators read in
  non local Contribution for L=           0  read in
    real space projection operators read in
  non local Contribution for L=           1  read in
    real space projection operators read in
  non local Contribution for L=           1  read in
    real space projection operators read in
    PAW grid and wavefunctions read in
 
   number of l-projection  operators is LMAX  =           6
   number of lm-projection operators is LMMAX =          18
 
 POTCAR:    PAW_PBE C 08Apr2002                   
   VRHFIN =C: s2p2                                                                                  
   LEXCH  = PE                                                                                      
   EATOM  =   147.1560 eV,   10.8157 Ry                                                             
                                                                                                    
   TITEL  = PAW_PBE C 08Apr2002                                                                     
   LULTRA =        F    use ultrasoft PP ?                                                          
   IUNSCR =        1    unscreen: 0-lin 1-nonlin 2-no                                               
   RPACOR =    1.200    partial core radius                                                         
   POMASS =   12.011; ZVAL   =    4.000    mass and valenz                                          
   RCORE  =    1.500    outmost cutoff radius                                                       
   RWIGS  =    1.630; RWIGS  =    0.863    wigner-seitz radius (au A)                               
   ENMAX  =  400.000; ENMIN  =  300.000 eV                                                          
   ICORE  =        2    local potential                                                             
   LCOR   =        T    correct aug charges                                                         
   LPAW   =        T    paw PP                                                                      
   EAUG   =  644.873                                                                                
   DEXC   =    0.000                                                                                
   RMAX   =    1.529    core radius for proj-oper                                                   
   RAUG   =    1.300    factor for augmentation sphere                                              
   RDEP   =    1.501    radius for radial grids                                                     
   RDEPT  =    1.300    core radius for aug-charge                                                  
                                                                                                    
   Atomic configuration                                                                             
    4 entries                                                                                       
     n  l   j            E        occ.                                                              
     1  0  0.50      -273.3789   2.0000                                                             
     2  0  0.50       -13.7508   2.0000                                                             
     2  1  0.50        -5.2854   2.0000                                                             
     3  2  1.50        -5.4423   0.0000                                                             
   Description                                                                                      
     l       E           TYP  RCUT    TYP  RCUT                                                     
     0    -13.7508458     23  1.200                                                                 
     0     -8.2022199     23  1.200                                                                 
     1     -5.2854383     23  1.500                                                                 
     1     34.0145650     23  1.500                                                                 
     2     -5.4423304      7  1.500                                                                 
  local pseudopotential read in
  partial core-charges read in
  partial kinetic energy density read in
  atomic valenz-charges read in
  non local Contribution for L=           0  read in
    real space projection operators read in
  non local Contribution for L=           0  read in
    real space projection operators read in
  non local Contribution for L=           1  read in
    real space projection operators read in
  non local Contribution for L=           1  read in
    real space projection operators read in
    PAW grid and wavefunctions read in
 
   number of l-projection  operators is LMAX  =           4
   number of lm-projection operators is LMMAX =           8
 
 Optimization of the real space projectors (new method)

 maximal supplied QI-value         = 15.12
 optimisation between [QCUT,QGAM] = [ 11.34, 22.83] = [ 36.00,145.93] Ry 
 Optimized for a Real-space Cutoff    1.43 Angstroem

   l    n(q)    QCUT    max X(q) W(low)/X(q) W(high)/X(q)  e(spline) 
   2      9    11.338    53.897    0.16E-03    0.20E-03    0.28E-06
   2      9    11.338    52.416    0.16E-03    0.20E-03    0.29E-06
   0     10    11.338   122.045    0.31E-04    0.76E-04    0.15E-06
   0     10    11.338    73.629    0.30E-04    0.72E-04    0.15E-06
   1      9    11.338    15.255    0.20E-03    0.19E-04    0.17E-06
   1      9    11.338     9.562    0.16E-03    0.15E-04    0.14E-06
 Optimization of the real space projectors (new method)

 maximal supplied QI-value         = 13.61
 optimisation between [QCUT,QGAM] = [ 11.43, 22.86] = [ 36.58,146.31] Ry 
 Optimized for a Real-space Cutoff    1.56 Angstroem

   l    n(q)    QCUT    max X(q) W(low)/X(q) W(high)/X(q)  e(spline) 
   2     10    11.429    80.908    0.27E-03    0.78E-03    0.13E-05
   2     10    11.429    79.000    0.27E-03    0.78E-03    0.13E-05
   0     11    11.429    52.066    0.33E-04    0.97E-04    0.72E-06
   0     11    11.429    24.514    0.27E-04    0.80E-04    0.60E-06
   1     10    11.429    16.033    0.31E-04    0.17E-03    0.36E-06
   1     10    11.429    11.179    0.22E-04    0.13E-03    0.29E-06
 Optimization of the real space projectors (new method)

 maximal supplied QI-value         = 25.13
 optimisation between [QCUT,QGAM] = [ 11.31, 22.87] = [ 35.82,146.48] Ry 
 Optimized for a Real-space Cutoff    1.00 Angstroem

   l    n(q)    QCUT    max X(q) W(low)/X(q) W(high)/X(q)  e(spline) 
   0      7    11.310   115.676    0.43E-03    0.13E-02    0.19E-06
   0      7    11.310    87.132    0.43E-03    0.13E-02    0.18E-06
   1      6    11.310     4.429    0.42E-03    0.74E-03    0.11E-06
   1      6    11.310     2.733    0.34E-03    0.55E-03    0.92E-07
  PAW_PBE Ag 02Apr2005                  :
 energy of atom  1       EATOM=-1037.2675
 kinetic energy error for atom=    0.0052 (will be added to EATOM!!)
  PAW_PBE Mo 08Apr2002                  :
 energy of atom  2       EATOM= -217.5176
 kinetic energy error for atom=    0.0017 (will be added to EATOM!!)
  PAW_PBE C 08Apr2002                   :
 energy of atom  3       EATOM= -147.1560
 kinetic energy error for atom=    0.0076 (will be added to EATOM!!)
 
 
 POSCAR: Ag-Mo-C
  positions in direct lattice
  velocities in cartesian coordinates
 exchange correlation table for  LEXCH =        8
   RHO(1)=    0.500       N(1)  =     2000
   RHO(2)=  100.500       N(2)  =     4000

 VTST: version 3.2, (02/03/18)

 CHAIN: initializing optimizer
 
 OPT: Using VASP Conjugate-Gradient optimizer
 CHAIN: Read ICHAIN            0
 
 POSCAR: Ag-Mo-C
  positions in direct lattice
  velocities in cartesian coordinates
 


--------------------------------------------------------------------------------------------------------


 ion  position               nearest neighbor table
   1  0.000  0.000  0.217-   2 2.93   8 2.93   7 2.93   6 2.93   4 2.93  12 2.93  16 2.93  10 2.93
                             3 2.93
   2  0.333  0.000  0.217-   1 2.93   8 2.93   9 2.93   3 2.93   4 2.93   5 2.93  10 2.93  17 2.93
                            11 2.93
   3  0.667  0.000  0.217-   9 2.93   2 2.93   5 2.93  11 2.93   7 2.93  18 2.93   1 2.93   6 2.93
                            12 2.93
   4  0.000  0.333  0.217-   5 2.93   6 2.93   2 2.93   1 2.93   7 2.93  13 2.93  15 2.93   9 2.93
                            10 2.93
   5  0.333  0.333  0.217-   4 2.93   3 2.93   7 2.93   2 2.93   8 2.93  14 2.93  13 2.93  11 2.93
                             6 2.93
   6  0.667  0.333  0.217-   4 2.93   9 2.93   1 2.93  15 2.93   8 2.93  12 2.93   3 2.93   5 2.93
                            14 2.93
   7  0.000  0.667  0.217-   8 2.93   1 2.93   5 2.93   3 2.93   4 2.93  16 2.93  18 2.93  13 2.93
                             9 2.93
   8  0.333  0.667  0.217-   7 2.93   1 2.93   2 2.93   9 2.93   5 2.93  16 2.93   6 2.93  17 2.93
                            14 2.93
   9  0.667  0.667  0.217-   3 2.93   2 2.93   8 2.93   6 2.93  17 2.93   4 2.93  15 2.93   7 2.93
                            18 2.93
  10  0.111  0.111  0.315-  20 2.90  19 2.93  26 2.93  12 2.93  16 2.93  15 2.93  17 2.93  13 2.93
                            11 2.93   2 2.93   1 2.93   4 2.93
  11  0.444  0.111  0.315-  21 2.90  20 2.90  27 2.93  14 2.93  17 2.93  18 2.93   3 2.93  12 2.93
                            13 2.93  10 2.93   5 2.93   2 2.93
  12  0.778  0.111  0.315-  21 2.90  25 2.93  19 2.93  10 2.93  16 2.93  18 2.93  15 2.93  11 2.93
                             1 2.93  14 2.93   6 2.93   3 2.93
  13  0.111  0.444  0.315-  20 2.90  23 2.90  22 2.93  15 2.93  14 2.93  18 2.93  10 2.93  11 2.93
                            16 2.93   4 2.93   5 2.93   7 2.93
  14  0.444  0.444  0.315-  23 2.90  21 2.90  24 2.93  13 2.93  11 2.93  16 2.93   5 2.93  12 2.93
                            17 2.93   8 2.93  15 2.93   6 2.93
  15  0.778  0.444  0.315-  24 2.92  22 2.92  19 2.92  13 2.93  10 2.93  12 2.93  17 2.93  18 2.93
                             4 2.93   6 2.93   9 2.93  14 2.93
  16  0.111  0.778  0.315-  23 2.90  26 2.93  25 2.93  18 2.93  12 2.93  10 2.93  14 2.93  17 2.93
                            13 2.93   7 2.93   8 2.93   1 2.93
  17  0.444  0.778  0.315-  27 2.92  24 2.92  26 2.92  11 2.93  10 2.93   9 2.93  18 2.93  15 2.93
                            16 2.93   2 2.93  14 2.93   8 2.93
  18  0.778  0.778  0.315-  22 2.92  27 2.92  25 2.92  16 2.93  12 2.93  13 2.93  11 2.93  17 2.93
                            15 2.93   7 2.93   3 2.93   9 2.93
  19  0.889  0.222  0.413-  28 2.92  15 2.92  10 2.93  12 2.93  24 2.93  22 2.93  26 2.93  25 2.93
                            20 2.93  21 2.93  32 2.96  31 2.96
  20  0.222  0.222  0.412-  36 2.79  13 2.90  11 2.90  10 2.90  21 2.93  23 2.93  19 2.93  26 2.93
                            27 2.93  22 2.93  31 2.94  29 2.94
  21  0.555  0.222  0.412-  36 2.79  11 2.90  14 2.90  12 2.90  20 2.93  23 2.93  25 2.93  19 2.93
                            27 2.93  24 2.93  30 2.94  32 2.94
  22  0.888  0.556  0.413-  35 2.91  24 2.92  27 2.92  18 2.92  15 2.92  13 2.93  25 2.93  19 2.93
                            23 2.93  20 2.93  33 2.94  31 2.94
  23  0.222  0.555  0.412-  36 2.79  14 2.90  13 2.90  16 2.90  21 2.93  20 2.93  26 2.93  25 2.93
                            22 2.93  24 2.93  34 2.94  33 2.94
  24  0.556  0.556  0.413-  35 2.91  27 2.92  22 2.92  15 2.92  17 2.92  14 2.93  19 2.93  26 2.93
                            23 2.93  21 2.93  32 2.94  34 2.94
  25  0.889  0.889  0.413-  28 2.92  18 2.92  16 2.93  12 2.93  22 2.93  27 2.93  26 2.93  19 2.93
                            23 2.93  21 2.93  33 2.96  30 2.96
  26  0.222  0.889  0.413-  28 2.92  17 2.92  16 2.93  10 2.93  27 2.93  24 2.93  25 2.93  19 2.93
                            23 2.93  20 2.93  34 2.96  29 2.96
  27  0.556  0.888  0.413-  35 2.91  24 2.92  22 2.92  17 2.92  18 2.92  11 2.93  26 2.93  25 2.93
                            20 2.93  21 2.93  29 2.94  30 2.94
  28  0.000  0.000  0.510-  26 2.92  25 2.92  19 2.92  29 2.95  34 2.95  33 2.95  32 2.95  31 2.95
                            30 2.95
  29  0.333  0.005  0.512-  31 2.88  30 2.89  36 2.89  27 2.94  20 2.94  28 2.95  35 2.96  26 2.96
                            34 3.02
  30  0.662  0.005  0.512-  32 2.88  29 2.89  36 2.89  27 2.94  21 2.94  28 2.95  35 2.96  25 2.96
                            33 3.02
  31  0.005  0.333  0.512-  29 2.88  33 2.89  36 2.89  22 2.94  20 2.94  28 2.95  35 2.96  19 2.96
                            32 3.02
  32  0.662  0.333  0.512-  30 2.88  34 2.89  36 2.89  24 2.94  21 2.94  28 2.95  35 2.96  19 2.96
                            31 3.02
  33  0.005  0.662  0.512-  34 2.88  31 2.89  36 2.89  22 2.94  23 2.94  28 2.95  35 2.96  25 2.96
                            30 3.02
  34  0.333  0.662  0.512-  33 2.88  32 2.89  36 2.89  24 2.94  23 2.94  28 2.95  35 2.96  26 2.96
                            29 3.02
  35  0.667  0.667  0.510-  24 2.91  27 2.91  22 2.91  30 2.96  32 2.96  29 2.96  34 2.96  31 2.96
                            33 2.96
  36  0.333  0.333  0.503-  37 1.75  21 2.79  20 2.79  23 2.79  31 2.89  30 2.89  33 2.89  29 2.89
                            34 2.89  32 2.89
  37  0.333  0.333  0.575-  36 1.75
 
  LATTYP: Found a hexagonal cell.
 ALAT       =     8.7913665772
 C/A-ratio  =     2.7711238095
  
  Lattice vectors:
  
 A1 = (  -4.3956832886,  -7.6135467898,   0.0000000000)
 A2 = (   8.7913665771,   0.0000000000,   0.0000000000)
 A3 = (   0.0000000000,   0.0000000000,  24.3619652401)


Analysis of symmetry for initial positions (statically):
=====================================================================
 Subroutine PRICEL returns:
 Original cell was already a primitive cell.
 

 Routine SETGRP: Setting up the symmetry group for a 
 hexagonal supercell.


 Subroutine GETGRP returns: Found  6 space group operations
 (whereof  6 operations were pure point group operations)
 out of a pool of 24 trial point group operations.


The static configuration has the point symmetry C_3v.


Analysis of symmetry for dynamics (positions and initial velocities):
=====================================================================
 Subroutine PRICEL returns:
 Original cell was already a primitive cell.
 

 Routine SETGRP: Setting up the symmetry group for a 
 hexagonal supercell.


 Subroutine GETGRP returns: Found  6 space group operations
 (whereof  6 operations were pure point group operations)
 out of a pool of 24 trial point group operations.


The dynamic configuration has the point symmetry C_3v.


Analysis of constrained symmetry for selective dynamics:
=====================================================================
 Subroutine PRICEL returns:
 Original cell was already a primitive cell.
 

 Routine SETGRP: Setting up the symmetry group for a 
 hexagonal supercell.


 Subroutine GETGRP returns: Found  6 space group operations
 (whereof  6 operations were pure point group operations)
 out of a pool of 24 trial point group operations.


The constrained configuration has the point symmetry C_3v.


 Subroutine INISYM returns: Found  6 space group operations
 (whereof  6 operations are pure point group operations),
 and found     1 'primitive' translations


----------------------------------------------------------------------------------------

                                     Primitive cell                                     

  volume of cell :    1630.6311

  direct lattice vectors                    reciprocal lattice vectors
     8.791366577  0.000000000  0.000000000     0.113747958 -0.065672414  0.000000000
     4.395683289  7.613546790  0.000000000     0.000000000  0.131344829  0.000000000
     0.000000000  0.000000000 24.361965240     0.000000000  0.000000000  0.041047592

  length of vectors
     8.791366577  8.791366577 24.361965240     0.131344829  0.131344829  0.041047592

  position of ions in fractional coordinates (direct lattice)
     0.000000000  0.000000000  0.216821102
     0.333333313  0.000000000  0.216821102
     0.666666627  0.000000000  0.216821102
     1.000000000  0.333333343  0.216821102
     0.333333313  0.333333343  0.216821102
     0.666666687  0.333333343  0.216821102
     1.000000000  0.666666687  0.216821102
     0.333333313  0.666666687  0.216821102
     0.666666627  0.666666687  0.216821102
     0.111111104  0.111111112  0.315035970
     0.444444448  0.111111112  0.315035970
     0.777777791  0.111111112  0.315035970
     0.111111097  0.444444448  0.315035970
     0.444444418  0.444444448  0.315035970
     0.777777791  0.444444448  0.315035970
     0.111111104  0.777777791  0.315035970
     0.444444448  0.777777791  0.315035970
     0.777777791  0.777777791  0.315035970
     0.888826068  0.222347881  0.413002413
     0.222340574  0.222340589  0.411710721
     0.555318792  0.222340589  0.411710721
     0.888411547  0.555794257  0.413023695
     0.222340589  0.555318852  0.411710721
     0.555794257  0.555794257  0.413023695
     0.888826068  0.888826068  0.413002413
     0.222347851  0.888826068  0.413002413
     0.555794197  0.888411547  0.413023695
     0.000000000  0.000000000  0.510498151
     0.333121829  0.005303367  0.511694625
     0.661574743  0.005303367  0.511694625
     0.005303367  0.333121859  0.511694625
     0.661574803  0.333121859  0.511694625
     0.005303367  0.661574803  0.511694625
     0.333121829  0.661574803  0.511694625
     0.666666627  0.666666687  0.510480207
     0.333333313  0.333333343  0.502639035
     0.333333313  0.333333343  0.574558473

  ion indices of the primitive-cell ions
   primitive index   ion index
                 1           1
                 2           2
                 3           3
                 4           4
                 5           5
                 6           6
                 7           7
                 8           8
                 9           9
                10          10
                11          11
                12          12
                13          13
                14          14
                15          15
                16          16
                17          17
                18          18
                19          19
                20          20
                21          21
                22          22
                23          23
                24          24
                25          25
                26          26
                27          27
                28          28
                29          29
                30          30
                31          31
                32          32
                33          33
                34          34
                35          35
                36          36
                37          37

----------------------------------------------------------------------------------------

 
 
 KPOINTS: Automatic mesh                          

Automatic generation of k-mesh.
 Grid dimensions read from file:
 generate k-points for:    8    8    1

 Generating k-lattice:

  Cartesian coordinates                     Fractional coordinates (reciprocal lattice)
     0.014218495 -0.008209052  0.000000000     0.125000000 -0.000000000  0.000000000
     0.000000000  0.016418104  0.000000000     0.000000000  0.125000000  0.000000000
     0.000000000  0.000000000  0.041047592     0.000000000  0.000000000  1.000000000

  Length of vectors
     0.016418104  0.016418104  0.041047592

  Shift w.r.t. Gamma in fractional coordinates (k-lattice)
     0.000000000  0.000000000  0.000000000

 TETIRR: Found     36 inequivalent tetrahedra from      384
 
 Subroutine IBZKPT returns following result:
 ===========================================
 
 Found     10 irreducible k-points:
 
 Following reciprocal coordinates:
            Coordinates               Weight
  0.000000  0.000000  0.000000      1.000000
  0.125000  0.000000  0.000000      6.000000
  0.250000  0.000000  0.000000      6.000000
  0.375000 -0.000000  0.000000      6.000000
  0.500000  0.000000  0.000000      3.000000
  0.250000  0.125000  0.000000      6.000000
  0.375000  0.125000  0.000000     12.000000
  0.500000  0.125000  0.000000     12.000000
  0.500000  0.250000  0.000000      6.000000
 -0.375000  0.250000  0.000000      6.000000
 
 Following cartesian coordinates:
            Coordinates               Weight
  0.000000  0.000000  0.000000      1.000000
  0.014218 -0.008209  0.000000      6.000000
  0.028437 -0.016418  0.000000      6.000000
  0.042655 -0.024627  0.000000      6.000000
  0.056874 -0.032836  0.000000      3.000000
  0.028437 -0.000000  0.000000      6.000000
  0.042655 -0.008209  0.000000     12.000000
  0.056874 -0.016418  0.000000     12.000000
  0.056874 -0.000000  0.000000      6.000000
 -0.042655  0.057463  0.000000      6.000000
 


--------------------------------------------------------------------------------------------------------




 Dimension of arrays:
   k-points           NKPTS =     10   k-points in BZ     NKDIM =     10   number of bands    NBANDS=    252
   number of dos      NEDOS =    301   number of ions     NIONS =     37
   non local maximal  LDIM  =      6   non local SUM 2l+1 LMDIM =     18
   total plane-waves  NPLWV = 322560
   max r-space proj   IRMAX =   3221   max aug-charges    IRDMAX=  12898
   dimension x,y,z NGX =    48 NGY =   48 NGZ =  140
   dimension x,y,z NGXF=    96 NGYF=   96 NGZF=  280
   support grid    NGXF=    96 NGYF=   96 NGZF=  280
   ions per type =              35   1   1
   NGX,Y,Z   is equivalent  to a cutoff of   9.08,  9.08,  9.55 a.u.
   NGXF,Y,Z  is equivalent  to a cutoff of  18.15, 18.15, 19.11 a.u.

 SYSTEM =  unknown system                          
 POSCAR =  Ag-Mo-C                                 

 Startparameter for this run:
   NWRITE =      2    write-flag & timer
   PREC   = normal    normal or accurate (medium, high low for compatibility)
   ISTART =      0    job   : 0-new  1-cont  2-samecut
   ICHARG =     11    charge: 1-file 2-atom 10-const
   ISPIN  =      1    spin polarized calculation?
   LNONCOLLINEAR =      F non collinear calculations
   LSORBIT =      F    spin-orbit coupling
   INIWAV =      1    electr: 0-lowe 1-rand  2-diag
   LASPH  =      F    aspherical Exc in radial PAW
   METAGGA=      F    non-selfconsistent MetaGGA calc.

 Electronic Relaxation 1
   ENCUT  =  500.0 eV  36.75 Ry    6.06 a.u.  16.03 16.03 44.42*2*pi/ulx,y,z
   ENINI  =  500.0     initial cutoff
   ENAUG  =  644.9 eV  augmentation charge cutoff
   NELM   =    150;   NELMIN=  2; NELMDL= -5     # of ELM steps 
   EDIFF  = 0.1E-04   stopping-criterion for ELM
   LREAL  =      T    real-space projection
   NLSPLINE    = F    spline interpolate recip. space projectors
   LCOMPAT=      F    compatible to vasp.4.4
   GGA_COMPAT  = T    GGA compatible to vasp.4.4-vasp.4.6
   LMAXPAW     = -100 max onsite density
   LMAXMIX     =    2 max onsite mixed and CHGCAR
   VOSKOWN=      0    Vosko Wilk Nusair interpolation
   ROPT   =   -0.00050  -0.00050  -0.00050
 Ionic relaxation
   EDIFFG = -.1E-01   stopping-criterion for IOM
   NSW    =      0    number of steps for IOM
   NBLOCK =      1;   KBLOCK =      1    inner block; outer block 
   IBRION =     -1    ionic relax: 0-MD 1-quasi-New 2-CG
   NFREE  =      1    steps in history (QN), initial steepest desc. (CG)
   ISIF   =      2    stress and relaxation
   IWAVPR =     10    prediction:  0-non 1-charg 2-wave 3-comb
   ISYM   =      2    0-nonsym 1-usesym 2-fastsym
   LCORR  =      T    Harris-Foulkes like correction to forces

   POTIM  = 0.5000    time-step for ionic-motion
   TEIN   =    0.0    initial temperature
   TEBEG  =    0.0;   TEEND  =   0.0 temperature during run
   SMASS  =  -3.00    Nose mass-parameter (am)
   estimated Nose-frequenzy (Omega)   =  0.10E-29 period in steps = 0.13E+47 mass=  -0.177E-26a.u.
   SCALEE = 1.0000    scale energy and forces
   NPACO  =    256;   APACO  = 16.0  distance and # of slots for P.C.
   PSTRESS=    0.0 pullay stress

  Mass of Ions in am
   POMASS = 107.87 95.94 12.01
  Ionic Valenz
   ZVAL   =  11.00  6.00  4.00
  Atomic Wigner-Seitz radii
   RWIGS  =  -1.00 -1.00 -1.00
  virtual crystal weights 
   VCA    =   1.00  1.00  1.00
   NELECT =     395.0000    total number of electrons
   NUPDOWN=      -1.0000    fix difference up-down

 DOS related values:
   EMIN   =  10.00;   EMAX   =-10.00  energy-range for DOS
   EFERMI =   0.00
   ISMEAR =    -5;   SIGMA  =   0.10  broadening in eV -4-tet -1-fermi 0-gaus

 Electronic relaxation 2 (details)
   IALGO  =     68    algorithm
   LDIAG  =      T    sub-space diagonalisation (order eigenvalues)
   LSUBROT=      F    optimize rotation matrix (better conditioning)
   TURBO    =      0    0=normal 1=particle mesh
   IRESTART =      0    0=no restart 2=restart with 2 vectors
   NREBOOT  =      0    no. of reboots
   NMIN     =      0    reboot dimension
   EREF     =   0.00    reference energy to select bands
   IMIX   =      4    mixing-type and parameters
     AMIX     =   0.40;   BMIX     =  1.00
     AMIX_MAG =   1.60;   BMIX_MAG =  1.00
     AMIN     =   0.10
     WC   =   100.;   INIMIX=   1;  MIXPRE=   1;  MAXMIX= -45

 Intra band minimization:
   WEIMIN = 0.0000     energy-eigenvalue tresh-hold
   EBREAK =  0.99E-08  absolut break condition
   DEPER  =   0.30     relativ break condition  

   TIME   =   0.40     timestep for ELM

  volume/ion in A,a.u.               =      44.07       297.41
  Fermi-wavevector in a.u.,A,eV,Ry     =   1.020521  1.928505 14.169966  1.041463
  Thomas-Fermi vector in A             =   2.154095
 
 Write flags
   LWAVE        =      F    write WAVECAR
   LDOWNSAMPLE  =      F    k-point downsampling of WAVECAR
   LCHARG       =      F    write CHGCAR
   LVTOT        =      F    write LOCPOT, total local potential
   LVHAR        =      F    write LOCPOT, Hartree potential only
   LELF         =      F    write electronic localiz. function (ELF)
   LORBIT       =     10    0 simple, 1 ext, 2 COOP (PROOUT), +10 PAW based schemes


 Dipole corrections
   LMONO  =      F    monopole corrections only (constant potential shift)
   LDIPOL =      F    correct potential (dipole corrections)
   IDIPOL =      0    1-x, 2-y, 3-z, 4-all directions 
   EPSILON=  1.0000000 bulk dielectric constant

 Exchange correlation treatment:
   GGA     =    --    GGA type
   LEXCH   =     8    internal setting for exchange type
   VOSKOWN=      0    Vosko Wilk Nusair interpolation
   LHFCALC =     F    Hartree Fock is set to
   LHFONE  =     F    Hartree Fock one center treatment
   AEXX    =    0.0000 exact exchange contribution

 Linear response parameters
   LEPSILON=     F    determine dielectric tensor
   LRPA    =     F    only Hartree local field effects (RPA)
   LNABLA  =     F    use nabla operator in PAW spheres
   LVEL    =     F    velocity operator in full k-point grid
   LINTERFAST=   F  fast interpolation
   KINTER  =     0    interpolate to denser k-point grid
   CSHIFT  =0.1000    complex shift for real part using Kramers Kronig
   OMEGAMAX=  -1.0    maximum frequency
   DEG_THRESHOLD= 0.2000000E-02 threshold for treating states as degnerate
   RTIME   =   -0.100 relaxation time in fs
  (WPLASMAI=    0.000 imaginary part of plasma frequency in eV, 0.658/RTIME)
   DFIELD  = 0.0000000 0.0000000 0.0000000 field for delta impulse in time
 
 Orbital magnetization related:
   ORBITALMAG=     F  switch on orbital magnetization
   LCHIMAG   =     F  perturbation theory with respect to B field
   DQ        =  0.001000  dq finite difference perturbation B field
   LLRAUG    =     F  two centre corrections for induced B field



--------------------------------------------------------------------------------------------------------


 Static calculation
 charge density and potential remain constant during run
 non-spin polarized calculation
 RMM-DIIS sequential band-by-band and
  variant of blocked Davidson during initial phase
 perform sub-space diagonalisation
    before iterative eigenvector-optimisation
 no mixing
 using additional bands           54
 real space projection scheme for non local part
 use partial core corrections
 calculate Harris-corrections to forces 
   (improved forces if not selfconsistent)
 use gradient corrections 
 WARNING: stress and forces are not correct
  (second derivative of E(xc) not defined)
 use of overlap-Matrix (Vanderbilt PP)
 Fermi weights with tetrahedron method with Bloechl corrections


--------------------------------------------------------------------------------------------------------


  energy-cutoff  :      500.00
  volume of cell :     1630.63
      direct lattice vectors                 reciprocal lattice vectors
     8.791366577  0.000000000  0.000000000     0.113747958 -0.065672414  0.000000000
     4.395683289  7.613546790  0.000000000     0.000000000  0.131344829  0.000000000
     0.000000000  0.000000000 24.361965240     0.000000000  0.000000000  0.041047592

  length of vectors
     8.791366577  8.791366577 24.361965240     0.131344829  0.131344829  0.041047592


 
 k-points in units of 2pi/SCALE and weight: Automatic mesh                          
   0.00000000  0.00000000  0.00000000       0.016
   0.01421849 -0.00820905  0.00000000       0.094
   0.02843699 -0.01641810  0.00000000       0.094
   0.04265548 -0.02462716  0.00000000       0.094
   0.05687398 -0.03283621  0.00000000       0.047
   0.02843699 -0.00000000  0.00000000       0.094
   0.04265548 -0.00820905  0.00000000       0.188
   0.05687398 -0.01641810  0.00000000       0.188
   0.05687398 -0.00000000  0.00000000       0.094
  -0.04265548  0.05746336  0.00000000       0.094
 
 k-points in reciprocal lattice and weights: Automatic mesh                          
   0.00000000  0.00000000  0.00000000       0.016
   0.12500000  0.00000000  0.00000000       0.094
   0.25000000  0.00000000  0.00000000       0.094
   0.37500000 -0.00000000  0.00000000       0.094
   0.50000000  0.00000000  0.00000000       0.047
   0.25000000  0.12500000  0.00000000       0.094
   0.37500000  0.12500000  0.00000000       0.188
   0.50000000  0.12500000  0.00000000       0.188
   0.50000000  0.25000000  0.00000000       0.094
  -0.37500000  0.25000000  0.00000000       0.094
 
 position of ions in fractional coordinates (direct lattice) 
   0.00000000  0.00000000  0.21682110
   0.33333331  0.00000000  0.21682110
   0.66666663  0.00000000  0.21682110
   0.00000000  0.33333334  0.21682110
   0.33333331  0.33333334  0.21682110
   0.66666669  0.33333334  0.21682110
   0.00000000  0.66666669  0.21682110
   0.33333331  0.66666669  0.21682110
   0.66666663  0.66666669  0.21682110
   0.11111110  0.11111111  0.31503597
   0.44444445  0.11111111  0.31503597
   0.77777779  0.11111111  0.31503597
   0.11111110  0.44444445  0.31503597
   0.44444442  0.44444445  0.31503597
   0.77777779  0.44444445  0.31503597
   0.11111110  0.77777779  0.31503597
   0.44444445  0.77777779  0.31503597
   0.77777779  0.77777779  0.31503597
   0.88882607  0.22234788  0.41300241
   0.22234057  0.22234059  0.41171072
   0.55531879  0.22234059  0.41171072
   0.88841155  0.55579426  0.41302369
   0.22234059  0.55531885  0.41171072
   0.55579426  0.55579426  0.41302369
   0.88882607  0.88882607  0.41300241
   0.22234785  0.88882607  0.41300241
   0.55579420  0.88841155  0.41302369
   0.00000000  0.00000000  0.51049815
   0.33312183  0.00530337  0.51169463
   0.66157474  0.00530337  0.51169463
   0.00530337  0.33312186  0.51169463
   0.66157480  0.33312186  0.51169463
   0.00530337  0.66157480  0.51169463
   0.33312183  0.66157480  0.51169463
   0.66666663  0.66666669  0.51048021
   0.33333331  0.33333334  0.50263903
   0.33333331  0.33333334  0.57455847
 
 position of ions in cartesian coordinates  (Angst):
   0.00000000  0.00000000  5.28218814
   2.93045535  0.00000000  5.28218814
   5.86091070  0.00000000  5.28218814
   1.46522781  2.53784900  5.28218814
   4.39568315  2.53784900  5.28218814
   7.32613904  2.53784900  5.28218814
   2.93045562  5.07569801  5.28218814
   5.86091096  5.07569801  5.28218814
   8.79136632  5.07569801  5.28218814
   1.46522770  0.84594965  7.67489535
   4.39568332  0.84594965  7.67489535
   7.32613893  0.84594965  7.67489535
   2.93045542  3.38379860  7.67489535
   5.86091083  3.38379860  7.67489535
   8.79136671  3.38379860  7.67489535
   4.39568328  5.92164760  7.67489535
   7.32613890  5.92164760  7.67489535
  10.25659451  5.92164760  7.67489535
   8.79136665  1.69285599 10.06155044
   2.93201630  1.69280048 10.03008227
   5.85934988  1.69280048 10.03008227
  10.25344710  4.23156558 10.06206889
   4.39568342  4.22794606 10.03008227
   7.32928658  4.23156558 10.06206889
  11.72099368  6.76711885 10.06155044
   5.86173936  6.76711885 10.06155044
   8.79136631  6.76396288 10.06206889
   0.00000000  0.00000000 12.43673821
   2.95190804  0.04037743 12.46588667
   5.83945801  0.04037743 12.46588667
   1.51092204  2.53623886 12.46588667
   7.28044480  2.53623886 12.46588667
   2.95469715  5.03693072 12.46588667
   5.83666942  5.03693072 12.46588667
   8.79136632  5.07569801 12.43630105
   4.39568315  2.53784900 12.24527469
   4.39568315  2.53784900 13.99737355
 


--------------------------------------------------------------------------------------------------------


 k-point   1 :   0.0000 0.0000 0.0000  plane waves:   41267
 k-point   2 :   0.1250 0.0000 0.0000  plane waves:   41346
 k-point   3 :   0.2500 0.0000 0.0000  plane waves:   41360
 k-point   4 :   0.3750-0.0000 0.0000  plane waves:   41412
 k-point   5 :   0.5000 0.0000 0.0000  plane waves:   41412
 k-point   6 :   0.2500 0.1250 0.0000  plane waves:   41336
 k-point   7 :   0.3750 0.1250 0.0000  plane waves:   41420
 k-point   8 :   0.5000 0.1250 0.0000  plane waves:   41406
 k-point   9 :   0.5000 0.2500 0.0000  plane waves:   41444
 k-point  10 :  -0.3750 0.2500 0.0000  plane waves:   41438

 maximum and minimum number of plane-waves per node :     41444    41267

 maximum number of plane-waves:     41444
 maximum index in each direction: 
   IXMAX=   16   IYMAX=   16   IZMAX=   44
   IXMIN=  -16   IYMIN=  -16   IZMIN=  -44


 serial   3D FFT for wavefunctions
 parallel 3D FFT for charge:
    minimum data exchange during FFTs selected (reduces bandwidth)


 total amount of memory used by VASP MPI-rank0   131588. kBytes
=======================================================================

   base      :      30000. kBytes
   nonlr-proj:      15667. kBytes
   fftplans  :       4808. kBytes
   grid      :      19857. kBytes
   one-center:        575. kBytes
   wavefun   :      60681. kBytes
 
     INWAV:  cpu time    0.0000: real time    0.0000
 initial charge density was supplied:
 number of electron     395.0000043 magnetization 
 keeping initial charge density in first step


--------------------------------------------------------------------------------------------------------


 Maximum index for non-local projection operator         3078
 Maximum index for augmentation-charges          718 (set IRDMAX)


--------------------------------------------------------------------------------------------------------


 First call to EWALD:  gamma=   0.151
 Maximum number of real-space cells 4x 4x 2
 Maximum number of reciprocal cells 2x 2x 5

    FEWALD:  cpu time    0.0013: real time    0.0014


--------------------------------------- Iteration      1(   1)  ---------------------------------------


    POTLOK:  cpu time    0.0509: real time    0.0512
    SETDIJ:  cpu time    0.0048: real time    0.0049
     EDDAV:  cpu time    7.8756: real time    7.8770
 BZINTS: Fermi energy:    8.834632;  395.000000 electrons
         Band energy: 0.967500E+03;  BLOECHL correction:   -0.014359
       DOS:  cpu time    0.0107: real time    0.0107
    --------------------------------------------
      LOOP:  cpu time    7.9419: real time    7.9438

 eigenvalue-minimisations  :  5040
 total energy-change (2. order) : 0.2375496E+04  (-0.1790238E+05)
 number of electron     395.0000043 magnetization 
 augmentation part      395.0000043 magnetization 

 Free energy of the ion-electron system (eV)
  ---------------------------------------------------
  alpha Z        PSCENC =       688.27532664
  Ewald energy   TEWEN  =    129021.18043731
  -Hartree energ DENC   =   -166137.53252244
  -exchange      EXHF   =         0.00000000
  -V(xc)+E(xc)   XCENC  =      -437.93228414
  PAW double counting   =     38936.56580068   -37331.40529130
  entropy T*S    EENTRO =         0.00000000
  eigenvalues    EBANDS =       967.49969971
  atomic energy  EATOM  =     36668.84513678
  Solvation  Ediel_sol  =         0.00000000
  ---------------------------------------------------
  free energy    TOTEN  =      2375.49630325 eV

  energy without entropy =     2375.49630325  energy(sigma->0) =     2375.49630325


--------------------------------------------------------------------------------------------------------




--------------------------------------- Iteration      1(   2)  ---------------------------------------


     EDDAV:  cpu time    8.1980: real time    8.2010
 BZINTS: Fermi energy:    0.848106;  395.000000 electrons
         Band energy:-0.142740E+04;  BLOECHL correction:   -0.026906
       DOS:  cpu time    0.0098: real time    0.0098
    --------------------------------------------
      LOOP:  cpu time    8.2078: real time    8.2108

 eigenvalue-minimisations  :  5320
 total energy-change (2. order) :-0.2394896E+04  (-0.2274226E+04)
 number of electron     395.0000043 magnetization 
 augmentation part      395.0000043 magnetization 

 Free energy of the ion-electron system (eV)
  ---------------------------------------------------
  alpha Z        PSCENC =       688.27532664
  Ewald energy   TEWEN  =    129021.18043731
  -Hartree energ DENC   =   -166137.53252244
  -exchange      EXHF   =         0.00000000
  -V(xc)+E(xc)   XCENC  =      -437.93228414
  PAW double counting   =     38936.56580068   -37331.40529130
  entropy T*S    EENTRO =         0.00000000
  eigenvalues    EBANDS =     -1427.39649389
  atomic energy  EATOM  =     36668.84513678
  Solvation  Ediel_sol  =         0.00000000
  ---------------------------------------------------
  free energy    TOTEN  =       -19.39989036 eV

  energy without entropy =      -19.39989036  energy(sigma->0) =      -19.39989036


--------------------------------------------------------------------------------------------------------




--------------------------------------- Iteration      1(   3)  ---------------------------------------


     EDDAV:  cpu time    8.8775: real time    8.8775
 BZINTS: Fermi energy:    0.275685;  395.000000 electrons
         Band energy:-0.151090E+04;  BLOECHL correction:   -0.033318
       DOS:  cpu time    0.0100: real time    0.0100
    --------------------------------------------
      LOOP:  cpu time    8.8875: real time    8.8876

 eigenvalue-minimisations  :  5852
 total energy-change (2. order) :-0.8350013E+02  (-0.8124482E+02)
 number of electron     395.0000043 magnetization 
 augmentation part      395.0000043 magnetization 

 Free energy of the ion-electron system (eV)
  ---------------------------------------------------
  alpha Z        PSCENC =       688.27532664
  Ewald energy   TEWEN  =    129021.18043731
  -Hartree energ DENC   =   -166137.53252244
  -exchange      EXHF   =         0.00000000
  -V(xc)+E(xc)   XCENC  =      -437.93228414
  PAW double counting   =     38936.56580068   -37331.40529130
  entropy T*S    EENTRO =         0.00000000
  eigenvalues    EBANDS =     -1510.89662447
  atomic energy  EATOM  =     36668.84513678
  Solvation  Ediel_sol  =         0.00000000
  ---------------------------------------------------
  free energy    TOTEN  =      -102.90002094 eV

  energy without entropy =     -102.90002094  energy(sigma->0) =     -102.90002094


--------------------------------------------------------------------------------------------------------




--------------------------------------- Iteration      1(   4)  ---------------------------------------


     EDDAV:  cpu time    8.7502: real time    8.7503
 BZINTS: Fermi energy:    0.264616;  395.000000 electrons
         Band energy:-0.151221E+04;  BLOECHL correction:   -0.033222
       DOS:  cpu time    0.0101: real time    0.0101
    --------------------------------------------
      LOOP:  cpu time    8.7602: real time    8.7603

 eigenvalue-minimisations  :  5768
 total energy-change (2. order) :-0.1314209E+01  (-0.1310766E+01)
 number of electron     395.0000043 magnetization 
 augmentation part      395.0000043 magnetization 

 Free energy of the ion-electron system (eV)
  ---------------------------------------------------
  alpha Z        PSCENC =       688.27532664
  Ewald energy   TEWEN  =    129021.18043731
  -Hartree energ DENC   =   -166137.53252244
  -exchange      EXHF   =         0.00000000
  -V(xc)+E(xc)   XCENC  =      -437.93228414
  PAW double counting   =     38936.56580068   -37331.40529130
  entropy T*S    EENTRO =         0.00000000
  eigenvalues    EBANDS =     -1512.21083310
  atomic energy  EATOM  =     36668.84513678
  Solvation  Ediel_sol  =         0.00000000
  ---------------------------------------------------
  free energy    TOTEN  =      -104.21422957 eV

  energy without entropy =     -104.21422957  energy(sigma->0) =     -104.21422957


--------------------------------------------------------------------------------------------------------




--------------------------------------- Iteration      1(   5)  ---------------------------------------


     EDDAV:  cpu time    9.2230: real time    9.2232
 BZINTS: Fermi energy:    0.264458;  395.000000 electrons
         Band energy:-0.151224E+04;  BLOECHL correction:   -0.033207
       DOS:  cpu time    0.0101: real time    0.0101
    --------------------------------------------
      LOOP:  cpu time    9.2331: real time    9.2332

 eigenvalue-minimisations  :  6132
 total energy-change (2. order) :-0.2850110E-01  (-0.2850074E-01)
 number of electron     395.0000043 magnetization 
 augmentation part      395.0000043 magnetization 

 Free energy of the ion-electron system (eV)
  ---------------------------------------------------
  alpha Z        PSCENC =       688.27532664
  Ewald energy   TEWEN  =    129021.18043731
  -Hartree energ DENC   =   -166137.53252244
  -exchange      EXHF   =         0.00000000
  -V(xc)+E(xc)   XCENC  =      -437.93228414
  PAW double counting   =     38936.56580068   -37331.40529130
  entropy T*S    EENTRO =         0.00000000
  eigenvalues    EBANDS =     -1512.23933420
  atomic energy  EATOM  =     36668.84513678
  Solvation  Ediel_sol  =         0.00000000
  ---------------------------------------------------
  free energy    TOTEN  =      -104.24273066 eV

  energy without entropy =     -104.24273066  energy(sigma->0) =     -104.24273066


--------------------------------------------------------------------------------------------------------




--------------------------------------- Iteration      1(   6)  ---------------------------------------


    EDDIAG:  cpu time    1.5387: real time    1.5389
  RMM-DIIS:  cpu time    4.3541: real time    4.3541
    ORTHCH:  cpu time    0.2800: real time    0.2800
 BZINTS: Fermi energy:    0.264456;  395.000000 electrons
         Band energy:-0.151224E+04;  BLOECHL correction:   -0.033207
       DOS:  cpu time    0.0096: real time    0.0096
    --------------------------------------------
      LOOP:  cpu time    6.1824: real time    6.1826

 eigenvalue-minimisations  :  5048
 total energy-change (2. order) :-0.9180572E-03  (-0.9180713E-03)
 number of electron     395.0000043 magnetization 
 augmentation part      395.0000043 magnetization 

 Free energy of the ion-electron system (eV)
  ---------------------------------------------------
  alpha Z        PSCENC =       688.27532664
  Ewald energy   TEWEN  =    129021.18043731
  -Hartree energ DENC   =   -166137.53252244
  -exchange      EXHF   =         0.00000000
  -V(xc)+E(xc)   XCENC  =      -437.93228414
  PAW double counting   =     38936.56580068   -37331.40529130
  entropy T*S    EENTRO =         0.00000000
  eigenvalues    EBANDS =     -1512.24025225
  atomic energy  EATOM  =     36668.84513678
  Solvation  Ediel_sol  =         0.00000000
  ---------------------------------------------------
  free energy    TOTEN  =      -104.24364872 eV

  energy without entropy =     -104.24364872  energy(sigma->0) =     -104.24364872


--------------------------------------------------------------------------------------------------------




--------------------------------------- Iteration      1(   7)  ---------------------------------------


    EDDIAG:  cpu time    1.5400: real time    1.5403
  RMM-DIIS:  cpu time    6.2551: real time    6.2551
    ORTHCH:  cpu time    0.2792: real time    0.2792
 BZINTS: Fermi energy:    0.264456;  395.000000 electrons
         Band energy:-0.151224E+04;  BLOECHL correction:   -0.033207
       DOS:  cpu time    0.0098: real time    0.0098
    --------------------------------------------
      LOOP:  cpu time    8.0841: real time    8.0843

 eigenvalue-minimisations  :  7265
 total energy-change (2. order) :-0.3342576E-03  (-0.3332541E-03)
 number of electron     395.0000043 magnetization 
 augmentation part      395.0000043 magnetization 

 Free energy of the ion-electron system (eV)
  ---------------------------------------------------
  alpha Z        PSCENC =       688.27532664
  Ewald energy   TEWEN  =    129021.18043731
  -Hartree energ DENC   =   -166137.53252244
  -exchange      EXHF   =         0.00000000
  -V(xc)+E(xc)   XCENC  =      -437.93228414
  PAW double counting   =     38936.56580068   -37331.40529130
  entropy T*S    EENTRO =         0.00000000
  eigenvalues    EBANDS =     -1512.24058651
  atomic energy  EATOM  =     36668.84513678
  Solvation  Ediel_sol  =         0.00000000
  ---------------------------------------------------
  free energy    TOTEN  =      -104.24398298 eV

  energy without entropy =     -104.24398298  energy(sigma->0) =     -104.24398298


--------------------------------------------------------------------------------------------------------




--------------------------------------- Iteration      1(   8)  ---------------------------------------


    EDDIAG:  cpu time    1.5405: real time    1.5407
  RMM-DIIS:  cpu time    4.1948: real time    4.1947
    ORTHCH:  cpu time    0.2791: real time    0.2791
 BZINTS: Fermi energy:    0.264456;  395.000000 electrons
         Band energy:-0.151224E+04;  BLOECHL correction:   -0.033207
       DOS:  cpu time    0.0096: real time    0.0096
    --------------------------------------------
      LOOP:  cpu time    6.0240: real time    6.0241

 eigenvalue-minimisations  :  4389
 total energy-change (2. order) :-0.1490136E-04  (-0.1402405E-04)
 number of electron     395.0000043 magnetization 
 augmentation part      395.0000043 magnetization 

 Free energy of the ion-electron system (eV)
  ---------------------------------------------------
  alpha Z        PSCENC =       688.27532664
  Ewald energy   TEWEN  =    129021.18043731
  -Hartree energ DENC   =   -166137.53252244
  -exchange      EXHF   =         0.00000000
  -V(xc)+E(xc)   XCENC  =      -437.93228414
  PAW double counting   =     38936.56580068   -37331.40529130
  entropy T*S    EENTRO =         0.00000000
  eigenvalues    EBANDS =     -1512.24060141
  atomic energy  EATOM  =     36668.84513678
  Solvation  Ediel_sol  =         0.00000000
  ---------------------------------------------------
  free energy    TOTEN  =      -104.24399788 eV

  energy without entropy =     -104.24399788  energy(sigma->0) =     -104.24399788


--------------------------------------------------------------------------------------------------------




--------------------------------------- Iteration      1(   9)  ---------------------------------------


    EDDIAG:  cpu time    1.5406: real time    1.5407
  RMM-DIIS:  cpu time    3.7444: real time    3.7444
    ORTHCH:  cpu time    0.2794: real time    0.2794
 BZINTS: Fermi energy:    0.264456;  395.000000 electrons
         Band energy:-0.151224E+04;  BLOECHL correction:   -0.033207
       DOS:  cpu time    0.0094: real time    0.0094
    --------------------------------------------
      LOOP:  cpu time    5.5738: real time    5.5739

 eigenvalue-minimisations  :  3413
 total energy-change (2. order) :-0.2830056E-05  (-0.2808906E-05)
 number of electron     395.0000043 magnetization 
 augmentation part      395.0000043 magnetization 

 Free energy of the ion-electron system (eV)
  ---------------------------------------------------
  alpha Z        PSCENC =       688.27532664
  Ewald energy   TEWEN  =    129021.18043731
  -Hartree energ DENC   =   -166137.53252244
  -exchange      EXHF   =         0.00000000
  -V(xc)+E(xc)   XCENC  =      -437.93228414
  PAW double counting   =     38936.56580068   -37331.40529130
  entropy T*S    EENTRO =         0.00000000
  eigenvalues    EBANDS =     -1512.24060424
  atomic energy  EATOM  =     36668.84513678
  Solvation  Ediel_sol  =         0.00000000
  ---------------------------------------------------
  free energy    TOTEN  =      -104.24400071 eV

  energy without entropy =     -104.24400071  energy(sigma->0) =     -104.24400071


--------------------------------------------------------------------------------------------------------




 average (electrostatic) potential at core
  the test charge radii are     1.1249  1.2296  0.6991
  (the norm of the test charge is              1.0000)
       1 -78.6471       2 -78.6177       3 -78.6176       4 -78.6177       5 -78.6165
       6 -78.6174       7 -78.6176       8 -78.6174       9 -78.6410      10 -78.8608
      11 -78.8480      12 -78.8607      13 -78.8480      14 -78.8478      15 -78.8413
      16 -78.8607      17 -78.8413      18 -78.8413      19 -78.8359      20 -79.0100
      21 -79.0101      22 -78.8447      23 -79.0101      24 -78.8447      25 -78.8359
      26 -78.8359      27 -78.8447      28 -78.6547      29 -78.6542      30 -78.6543
      31 -78.6542      32 -78.6542      33 -78.6543      34 -78.6541      35 -78.6223
      36 -42.6418      37 -54.2241
 
 
 
 E-fermi :   0.2645     XC(G=0):  -5.4396     alpha+bet : -5.1247

 Fermi energy:         0.2644555922

 k-point     1 :       0.0000    0.0000    0.0000
  band No.  band energies     occupation 
      1      -8.1863      2.00000
      2      -6.8336      2.00000
      3      -5.9779      2.00000
      4      -5.7126      2.00000
      5      -5.6137      2.00000
      6      -5.6050      2.00000
      7      -5.6050      2.00000
      8      -5.5867      2.00000
      9      -5.5867      2.00000
     10      -5.5816      2.00000
     11      -5.5652      2.00000
     12      -5.5485      2.00000
     13      -5.5440      2.00000
     14      -5.5440      2.00000
     15      -5.5349      2.00000
     16      -5.5348      2.00000
     17      -5.5197      2.00000
     18      -5.3973      2.00000
     19      -5.3973      2.00000
     20      -5.3909      2.00000
     21      -5.3701      2.00000
     22      -5.3620      2.00000
     23      -5.3620      2.00000
     24      -5.2028      2.00000
     25      -5.1883      2.00000
     26      -5.1882      2.00000
     27      -5.1781      2.00000
     28      -5.1692      2.00000
     29      -5.1692      2.00000
     30      -5.1608      2.00000
     31      -5.1550      2.00000
     32      -5.1346      2.00000
     33      -5.1346      2.00000
     34      -5.1224      2.00000
     35      -5.1223      2.00000
     36      -5.0494      2.00000
     37      -5.0354      2.00000
     38      -5.0354      2.00000
     39      -5.0038      2.00000
     40      -4.9651      2.00000
     41      -4.9651      2.00000
     42      -4.8092      2.00000
     43      -4.8092      2.00000
     44      -4.7906      2.00000
     45      -4.7878      2.00000
     46      -4.7878      2.00000
     47      -4.7829      2.00000
     48      -4.7829      2.00000
     49      -4.7751      2.00000
     50      -4.7659      2.00000
     51      -4.7659      2.00000
     52      -4.6411      2.00000
     53      -4.6283      2.00000
     54      -4.6147      2.00000
     55      -4.6014      2.00000
     56      -4.4267      2.00000
     57      -4.4169      2.00000
     58      -4.4168      2.00000
     59      -4.4094      2.00000
     60      -4.4094      2.00000
     61      -4.4064      2.00000
     62      -4.3908      2.00000
     63      -4.3819      2.00000
     64      -4.3819      2.00000
     65      -4.3381      2.00000
     66      -4.3381      2.00000
     67      -4.2517      2.00000
     68      -4.2516      2.00000
     69      -4.2396      2.00000
     70      -4.2396      2.00000
     71      -4.2384      2.00000
     72      -4.2339      2.00000
     73      -4.2236      2.00000
     74      -4.2236      2.00000
     75      -4.2071      2.00000
     76      -4.2071      2.00000
     77      -4.1915      2.00000
     78      -4.1736      2.00000
     79      -4.1707      2.00000
     80      -4.1707      2.00000
     81      -4.1435      2.00000
     82      -4.1435      2.00000
     83      -4.1254      2.00000
     84      -4.0832      2.00000
     85      -4.0832      2.00000
     86      -4.0411      2.00000
     87      -4.0411      2.00000
     88      -4.0203      2.00000
     89      -4.0136      2.00000
     90      -4.0136      2.00000
     91      -3.9974      2.00000
     92      -3.9974      2.00000
     93      -3.9659      2.00000
     94      -3.9659      2.00000
     95      -3.9391      2.00000
     96      -3.9268      2.00000
     97      -3.9268      2.00000
     98      -3.9016      2.00000
     99      -3.9016      2.00000
    100      -3.7096      2.00000
    101      -3.7096      2.00000
    102      -3.7010      2.00000
    103      -3.6862      2.00000
    104      -3.6861      2.00000
    105      -3.6807      2.00000
    106      -3.6807      2.00000
    107      -3.6562      2.00000
    108      -3.6395      2.00000
    109      -3.6144      2.00000
    110      -3.6144      2.00000
    111      -3.5729      2.00000
    112      -3.5635      2.00000
    113      -3.5496      2.00000
    114      -3.5496      2.00000
    115      -3.4950      2.00000
    116      -3.4450      2.00000
    117      -3.4450      2.00000
    118      -3.3972      2.00000
    119      -3.3972      2.00000
    120      -3.3917      2.00000
    121      -3.3917      2.00000
    122      -3.3596      2.00000
    123      -3.3596      2.00000
    124      -3.3355      2.00000
    125      -3.3222      2.00000
    126      -3.3222      2.00000
    127      -3.3102      2.00000
    128      -3.3062      2.00000
    129      -3.3062      2.00000
    130      -3.2947      2.00000
    131      -3.2947      2.00000
    132      -3.2939      2.00000
    133      -3.2875      2.00000
    134      -3.2133      2.00000
    135      -3.2133      2.00000
    136      -3.1202      2.00000
    137      -3.1201      2.00000
    138      -3.1191      2.00000
    139      -3.1075      2.00000
    140      -3.1002      2.00000
    141      -3.1002      2.00000
    142      -3.0900      2.00000
    143      -3.0900      2.00000
    144      -3.0713      2.00000
    145      -3.0696      2.00000
    146      -3.0652      2.00000
    147      -3.0652      2.00000
    148      -3.0404      2.00000
    149      -3.0112      2.00000
    150      -3.0019      2.00000
    151      -2.9930      2.00000
    152      -2.9930      2.00000
    153      -2.9904      2.00000
    154      -2.9903      2.00000
    155      -2.9577      2.00000
    156      -2.9577      2.00000
    157      -2.9512      2.00000
    158      -2.9367      2.00000
    159      -2.9158      2.00000
    160      -2.9158      2.00000
    161      -2.9124      2.00000
    162      -2.9013      2.00000
    163      -2.8860      2.00000
    164      -2.8850      2.00000
    165      -2.8850      2.00000
    166      -2.8701      2.00000
    167      -2.8615      2.00000
    168      -2.8615      2.00000
    169      -2.8510      2.00000
    170      -2.8299      2.00000
    171      -2.8299      2.00000
    172      -2.8017      2.00000
    173      -2.8016      2.00000
    174      -2.7344      2.00000
    175      -2.7344      2.00000
    176      -2.7190      2.00000
    177      -2.7063      2.00000
    178      -2.7063      2.00000
    179      -2.6898      2.00000
    180      -2.6189      2.00000
    181      -2.6170      2.00000
    182      -2.6170      2.00000
    183      -2.6015      2.00000
    184      -2.6014      2.00000
    185      -2.5481      2.00000
    186      -1.9438      2.00000
    187      -1.9438      2.00000
    188      -1.8550      2.00000
    189      -1.8550      2.00000
    190      -1.8240      2.00000
    191      -1.6082      2.00000
    192      -1.4115      2.00000
    193      -1.4115      2.00000
    194      -1.1875      2.00000
    195      -0.4705      2.00000
    196      -0.1795      2.00000
    197      -0.1795      2.00000
    198      -0.0927      2.00000
    199       0.1028      2.00000
    200       0.1028      2.50689
    201       0.1379      1.60672
    202       0.4682      0.00000
    203       0.4682      0.00000
    204       0.8688      0.00000
    205       2.1105      0.00000
    206       2.1297      0.00000
    207       2.1563      0.00000
    208       2.1563      0.00000
    209       2.4589      0.00000
    210       2.4589      0.00000
    211       3.1308      0.00000
    212       3.1309      0.00000
    213       3.4970      0.00000
    214       3.6078      0.00000
    215       3.7528      0.00000
    216       3.7528      0.00000
    217       4.0184      0.00000
    218       4.0184      0.00000
    219       4.3206      0.00000
    220       4.5118      0.00000
    221       4.5327      0.00000
    222       4.5327      0.00000
    223       4.5838      0.00000
    224       4.6245      0.00000
    225       4.6245      0.00000
    226       4.7182      0.00000
    227       4.7182      0.00000
    228       4.7644      0.00000
    229       4.9743      0.00000
    230       5.0135      0.00000
    231       5.1640      0.00000
    232       5.1640      0.00000
    233       5.6847      0.00000
    234       5.9342      0.00000
    235       6.0225      0.00000
    236       6.1566      0.00000
    237       6.1567      0.00000
    238       6.2790      0.00000
    239       6.3579      0.00000
    240       6.3579      0.00000
    241       6.5203      0.00000
    242       6.5203      0.00000
    243       6.5435      0.00000
    244       6.6882      0.00000
    245       6.6883      0.00000
    246       6.6889      0.00000
    247       6.8192      0.00000
    248       6.8572      0.00000
    249       6.8578      0.00000
    250       6.8709      0.00000
    251       6.9199      0.00000
    252       6.9225      0.00000

 k-point     2 :       0.1250    0.0000    0.0000
  band No.  band energies     occupation 
      1      -8.1849      2.00000
      2      -6.7889      2.00000
      3      -5.9389      2.00000
      4      -5.6823      2.00000
      5      -5.6584      2.00000
      6      -5.6166      2.00000
      7      -5.6006      2.00000
      8      -5.5979      2.00000
      9      -5.5804      2.00000
     10      -5.5696      2.00000
     11      -5.5691      2.00000
     12      -5.5454      2.00000
     13      -5.5381      2.00000
     14      -5.5091      2.00000
     15      -5.4832      2.00000
     16      -5.4760      2.00000
     17      -5.4743      2.00000
     18      -5.4569      2.00000
     19      -5.4296      2.00000
     20      -5.4262      2.00000
     21      -5.3191      2.00000
     22      -5.3153      2.00000
     23      -5.2678      2.00000
     24      -5.2561      2.00000
     25      -5.2467      2.00000
     26      -5.2448      2.00000
     27      -5.2021      2.00000
     28      -5.1944      2.00000
     29      -5.1496      2.00000
     30      -5.1477      2.00000
     31      -5.1277      2.00000
     32      -5.1155      2.00000
     33      -5.1080      2.00000
     34      -5.0779      2.00000
     35      -5.0437      2.00000
     36      -5.0435      2.00000
     37      -5.0363      2.00000
     38      -5.0267      2.00000
     39      -4.9457      2.00000
     40      -4.9226      2.00000
     41      -4.9189      2.00000
     42      -4.8693      2.00000
     43      -4.8646      2.00000
     44      -4.8557      2.00000
     45      -4.8291      2.00000
     46      -4.8171      2.00000
     47      -4.8156      2.00000
     48      -4.8092      2.00000
     49      -4.7462      2.00000
     50      -4.7441      2.00000
     51      -4.7057      2.00000
     52      -4.6326      2.00000
     53      -4.6162      2.00000
     54      -4.5978      2.00000
     55      -4.5919      2.00000
     56      -4.4490      2.00000
     57      -4.4418      2.00000
     58      -4.4358      2.00000
     59      -4.4224      2.00000
     60      -4.4076      2.00000
     61      -4.4072      2.00000
     62      -4.3928      2.00000
     63      -4.3889      2.00000
     64      -4.3685      2.00000
     65      -4.3678      2.00000
     66      -4.3216      2.00000
     67      -4.3056      2.00000
     68      -4.2750      2.00000
     69      -4.2700      2.00000
     70      -4.2657      2.00000
     71      -4.2588      2.00000
     72      -4.2271      2.00000
     73      -4.2230      2.00000
     74      -4.2192      2.00000
     75      -4.2145      2.00000
     76      -4.1960      2.00000
     77      -4.1931      2.00000
     78      -4.1744      2.00000
     79      -4.1734      2.00000
     80      -4.1656      2.00000
     81      -4.1355      2.00000
     82      -4.1338      2.00000
     83      -4.1220      2.00000
     84      -4.1200      2.00000
     85      -4.1007      2.00000
     86      -4.0923      2.00000
     87      -4.0916      2.00000
     88      -4.0698      2.00000
     89      -4.0594      2.00000
     90      -4.0441      2.00000
     91      -3.9975      2.00000
     92      -3.9912      2.00000
     93      -3.9624      2.00000
     94      -3.9529      2.00000
     95      -3.9413      2.00000
     96      -3.9233      2.00000
     97      -3.8406      2.00000
     98      -3.8008      2.00000
     99      -3.8008      2.00000
    100      -3.7625      2.00000
    101      -3.7512      2.00000
    102      -3.7328      2.00000
    103      -3.7242      2.00000
    104      -3.7012      2.00000
    105      -3.6989      2.00000
    106      -3.6868      2.00000
    107      -3.6768      2.00000
    108      -3.6576      2.00000
    109      -3.6197      2.00000
    110      -3.6117      2.00000
    111      -3.5864      2.00000
    112      -3.5842      2.00000
    113      -3.5366      2.00000
    114      -3.5331      2.00000
    115      -3.4959      2.00000
    116      -3.4918      2.00000
    117      -3.4810      2.00000
    118      -3.4632      2.00000
    119      -3.4544      2.00000
    120      -3.4407      2.00000
    121      -3.4353      2.00000
    122      -3.3906      2.00000
    123      -3.3827      2.00000
    124      -3.3713      2.00000
    125      -3.3696      2.00000
    126      -3.3690      2.00000
    127      -3.3597      2.00000
    128      -3.3346      2.00000
    129      -3.3253      2.00000
    130      -3.3142      2.00000
    131      -3.2925      2.00000
    132      -3.2800      2.00000
    133      -3.2761      2.00000
    134      -3.2627      2.00000
    135      -3.2386      2.00000
    136      -3.2287      2.00000
    137      -3.2018      2.00000
    138      -3.1964      2.00000
    139      -3.1851      2.00000
    140      -3.1514      2.00000
    141      -3.1413      2.00000
    142      -3.1226      2.00000
    143      -3.0984      2.00000
    144      -3.0877      2.00000
    145      -3.0838      2.00000
    146      -3.0682      2.00000
    147      -3.0599      2.00000
    148      -3.0434      2.00000
    149      -3.0278      2.00000
    150      -3.0259      2.00000
    151      -3.0202      2.00000
    152      -3.0081      2.00000
    153      -2.9966      2.00000
    154      -2.9899      2.00000
    155      -2.9812      2.00000
    156      -2.9792      2.00000
    157      -2.9675      2.00000
    158      -2.9670      2.00000
    159      -2.9511      2.00000
    160      -2.9457      2.00000
    161      -2.9218      2.00000
    162      -2.9207      2.00000
    163      -2.9065      2.00000
    164      -2.8962      2.00000
    165      -2.8678      2.00000
    166      -2.8601      2.00000
    167      -2.8524      2.00000
    168      -2.8353      2.00000
    169      -2.8248      2.00000
    170      -2.8133      2.00000
    171      -2.7994      2.00000
    172      -2.7692      2.00000
    173      -2.7608      2.00000
    174      -2.7547      2.00000
    175      -2.7344      2.00000
    176      -2.7301      2.00000
    177      -2.7230      2.00000
    178      -2.7023      2.00000
[...]
  0.000   0.000   0.000   0.000   0.000   0.000   0.000   0.000   0.000   0.000   0.000   0.000   0.000   0.000   0.000   0.000
  0.000   0.000   0.000   0.000   0.000   0.000   0.000   0.000   0.000   0.000   0.000   0.000   0.000   0.000   0.000   0.000
  0.000   0.000   0.000   0.000   0.000   0.000   0.000   0.000   0.000   0.000   0.000   0.000   0.000   0.000   0.000   0.000
  0.000   0.000   0.000   0.000   0.000   0.000   0.000   0.000   0.000   0.000   0.000   0.000   0.000   0.000   0.000   0.000
  0.000   0.000   0.000   0.000   0.000   0.000   0.000   0.000   0.000   0.000   0.000   0.000   0.000   0.000   0.000   0.000
  0.000   0.000   0.000   0.000   0.000   0.000   0.000   0.000   0.000   0.000   1.000   0.000   0.000   0.000   0.000   0.000
  0.000   0.000   0.000   0.000   0.000   0.000   0.000   0.000   0.000   0.000   0.000   0.000   0.000   0.000   0.000   0.000
  0.000   0.000   0.000   0.000   0.000   0.000   0.000   0.000   0.000   0.000   0.000   0.000   0.000   0.000   0.000   0.000
  0.000   0.000   0.000   0.000   0.000   0.000   0.000   0.000   0.000   0.000   0.000   0.000   0.000   0.000   0.000   0.000
  0.000   0.000   0.000   0.000   0.000   0.000   0.000   0.000   0.000   0.000   0.000   0.000   0.000   0.000   0.000   0.000
  0.000   0.000   0.000   0.000   0.000   0.000   0.000   0.000   0.000   0.000   0.000   0.000   0.000   0.000   0.000   0.000
  0.000   0.000   0.000   0.000   0.000   0.000   0.000   0.000   0.000   0.000   0.000   0.000   0.000   0.000   0.000   0.000
  0.000   0.000   0.000   0.000   0.000   0.000   0.000   0.000   0.000   0.000   0.000   0.000   0.000   0.000   0.000   0.000


------------------------ aborting loop because EDIFF is reached ----------------------------------------





 total charge

# of ion       s       p       d       tot
------------------------------------------
    1        0.413   0.205   9.177   9.795
    2        0.419   0.203   9.176   9.798
    3        0.419   0.203   9.176   9.798
    4        0.419   0.203   9.176   9.798
    5        0.414   0.204   9.178   9.796
    6        0.419   0.203   9.176   9.798
    7        0.419   0.203   9.176   9.798
    8        0.419   0.203   9.176   9.798
    9        0.412   0.204   9.177   9.793
   10        0.405   0.271   9.163   9.839
   11        0.408   0.269   9.166   9.844
   12        0.405   0.271   9.163   9.839
   13        0.408   0.269   9.166   9.844
   14        0.408   0.269   9.166   9.844
   15        0.401   0.270   9.165   9.836
   16        0.405   0.271   9.163   9.839
   17        0.401   0.270   9.165   9.836
   18        0.401   0.270   9.165   9.836
   19        0.401   0.263   9.169   9.834
   20        0.425   0.297   9.150   9.873
   21        0.425   0.297   9.150   9.873
   22        0.393   0.276   9.163   9.832
   23        0.425   0.297   9.150   9.873
   24        0.393   0.276   9.163   9.832
   25        0.401   0.263   9.169   9.834
   26        0.401   0.263   9.169   9.834
   27        0.393   0.276   9.163   9.832
   28        0.415   0.198   9.177   9.790
   29        0.424   0.213   9.167   9.803
   30        0.424   0.213   9.167   9.803
   31        0.424   0.213   9.167   9.803
   32        0.424   0.213   9.167   9.803
   33        0.424   0.213   9.167   9.803
   34        0.424   0.213   9.167   9.803
   35        0.412   0.202   9.176   9.790
   36        0.454   0.418   4.619   5.492
   37        0.997   1.245   0.000   2.242
--------------------------------------------------
tot         15.874  10.110 325.492 351.476
 
    CHARGE:  cpu time    0.3717: real time    0.3718
    FORLOC:  cpu time    0.0111: real time    0.0111
    FORNL :  cpu time    1.6341: real time    1.6343
    STRESS:  cpu time    4.9006: real time    4.9006
    FORCOR:  cpu time    0.0478: real time    0.0479
    FORHAR:  cpu time    0.0182: real time    0.0183
    OFIELD:  cpu time    0.0003: real time    0.0003

  FORCE on cell =-STRESS in cart. coord.  units (eV):
  Direction    XX          YY          ZZ          XY          YZ          ZX
  --------------------------------------------------------------------------------------
  Alpha Z   688.27533   688.27533   688.27533
  Ewald  151570.66532151570.66527************     0.00001    -0.00001     0.00001
  Hartree161387.10554161387.10552************     0.00000    -0.00000     0.00000
  E(xc)   -2070.01136 -2070.01135 -2078.40827    -0.00001     0.00000     0.00000
  Local  ************************324323.72492     0.00029    -0.00003    -0.00009
  n-local  -344.17618  -328.03162  -344.02240     9.38534    -0.44688     0.50605
  augment  3227.93877  3227.93893  3240.18765    -0.00014    -0.00001     0.00001
  Kinetic  4895.89319  4901.23765  4924.78481     4.78846     0.67138    -0.11327
  Fock        0.00000     0.00000     0.00000     0.00000     0.00000     0.00000
  -------------------------------------------------------------------------------------
  Total      -7.18061    -7.18061     0.65891    -0.00000     0.00000     0.00000
  in kB      -7.05531    -7.05531     0.64741    -0.00000     0.00000     0.00000
  external pressure =       -4.49 kB  Pullay stress =        0.00 kB


 VOLUME and BASIS-vectors are now :
 -----------------------------------------------------------------------------
  energy-cutoff  :      500.00
  volume of cell :     1630.63
      direct lattice vectors                 reciprocal lattice vectors
     8.791366577  0.000000000  0.000000000     0.113747958 -0.065672414  0.000000000
     4.395683289  7.613546790  0.000000000     0.000000000  0.131344829  0.000000000
     0.000000000  0.000000000 24.361965240     0.000000000  0.000000000  0.041047592

  length of vectors
     8.791366577  8.791366577 24.361965240     0.131344829  0.131344829  0.041047592


 FORCES acting on ions
    electron-ion (+dipol)            ewald-force                    non-local-force                 convergence-correction
 -----------------------------------------------------------------------------------------------
   0.463E-04 -.280E-04 0.266E+04   -.953E-04 0.593E-04 -.266E+04   0.349E-17 0.668E-17 -.211E+01   -.835E-04 -.155E-03 -.155E+00
   0.659E-02 0.474E+00 0.266E+04   -.678E-01 -.218E+00 -.266E+04   0.149E-01 -.671E-01 -.163E+01   0.442E-01 -.175E+00 -.593E-01
   -.650E-02 0.474E+00 0.266E+04   0.680E-01 -.218E+00 -.266E+04   -.149E-01 -.671E-01 -.163E+01   -.448E-01 -.173E+00 -.587E-01
   0.414E+00 -.231E+00 0.266E+04   -.223E+00 0.505E-01 -.266E+04   -.507E-01 0.464E-01 -.163E+01   -.129E+00 0.126E+00 -.593E-01
   -.716E-05 -.195E-04 0.266E+04   0.980E-04 -.198E-05 -.266E+04   0.186E-17 0.144E-17 -.167E+01   0.618E-02 0.378E-02 0.242E-01
   -.414E+00 -.231E+00 0.266E+04   0.223E+00 0.504E-01 -.266E+04   0.507E-01 0.464E-01 -.163E+01   0.127E+00 0.127E+00 -.586E-01
   0.407E+00 -.243E+00 0.266E+04   -.155E+00 0.168E+00 -.266E+04   -.656E-01 0.207E-01 -.163E+01   -.171E+00 0.480E-01 -.587E-01
   -.407E+00 -.243E+00 0.266E+04   0.155E+00 0.168E+00 -.266E+04   0.656E-01 0.207E-01 -.163E+01   0.173E+00 0.471E-01 -.586E-01
   0.362E-04 -.130E-04 0.266E+04   0.792E-04 -.643E-04 -.266E+04   -.605E-18 0.500E-18 -.195E+01   -.663E-02 -.341E-02 -.177E+00
   0.198E+01 0.114E+01 0.881E+03   -.176E+01 -.101E+01 -.881E+03   -.234E+00 -.135E+00 -.659E+00   0.153E-01 0.883E-02 0.679E-01
   -.281E-04 0.218E+01 0.882E+03   0.406E-04 -.231E+01 -.881E+03   0.324E-12 0.494E-01 -.756E+00   0.618E-02 0.292E-01 0.587E-01
   -.198E+01 0.114E+01 0.881E+03   0.176E+01 -.101E+01 -.881E+03   0.234E+00 -.135E+00 -.659E+00   -.165E-01 0.948E-02 0.670E-01
   0.189E+01 -.109E+01 0.882E+03   -.200E+01 0.116E+01 -.881E+03   0.428E-01 -.247E-01 -.756E+00   0.283E-01 -.923E-02 0.587E-01
   -.189E+01 -.109E+01 0.882E+03   0.200E+01 0.116E+01 -.881E+03   -.428E-01 -.247E-01 -.756E+00   -.180E-01 -.101E-01 0.570E-01
   0.158E-04 -.464E-01 0.880E+03   -.108E-03 -.216E-01 -.880E+03   0.274E-12 0.417E-01 -.610E+00   -.127E-02 0.221E-01 -.645E-02
   -.794E-05 -.228E+01 0.881E+03   0.206E-04 0.203E+01 -.881E+03   0.177E-11 0.270E+00 -.659E+00   -.933E-04 -.191E-01 0.670E-01
   -.402E-01 0.232E-01 0.880E+03   -.188E-01 0.107E-01 -.880E+03   0.361E-01 -.209E-01 -.610E+00   0.185E-01 -.121E-01 -.645E-02
   0.402E-01 0.232E-01 0.880E+03   0.187E-01 0.108E-01 -.880E+03   -.361E-01 -.209E-01 -.610E+00   -.183E-01 -.106E-01 -.564E-02
   0.385E-04 -.365E+01 -.917E+03   -.126E-03 0.360E+01 0.916E+03   0.635E-12 0.967E-01 0.948E+00   0.106E-02 -.481E-01 0.139E+00
   -.134E+02 -.771E+01 -.917E+03   0.136E+02 0.785E+01 0.918E+03   -.575E+00 -.332E+00 -.528E+00   0.326E-01 0.189E-01 0.115E+00
   0.134E+02 -.771E+01 -.917E+03   -.136E+02 0.785E+01 0.918E+03   0.575E+00 -.332E+00 -.528E+00   -.435E-01 0.184E-01 0.115E+00
   -.805E+01 0.465E+01 -.916E+03   0.765E+01 -.442E+01 0.915E+03   0.390E+00 -.225E+00 0.712E+00   0.514E-01 -.293E-01 0.380E-01
   -.518E-04 0.154E+02 -.917E+03   0.390E-04 -.157E+02 0.918E+03   0.436E-11 0.663E+00 -.528E+00   -.549E-02 -.462E-01 0.115E+00
   0.805E+01 0.465E+01 -.916E+03   -.765E+01 -.442E+01 0.915E+03   -.390E+00 -.225E+00 0.712E+00   -.498E-01 -.286E-01 0.381E-01
   0.316E+01 0.182E+01 -.917E+03   -.312E+01 -.180E+01 0.916E+03   -.837E-01 -.484E-01 0.948E+00   0.416E-01 0.239E-01 0.138E+00
   -.316E+01 0.182E+01 -.917E+03   0.312E+01 -.180E+01 0.916E+03   0.837E-01 -.484E-01 0.948E+00   -.415E-01 0.249E-01 0.139E+00
   0.196E-04 -.930E+01 -.916E+03   0.110E-03 0.883E+01 0.915E+03   0.296E-11 0.450E+00 0.712E+00   -.315E-03 0.591E-01 0.381E-01
   0.536E-04 -.363E-04 -.265E+04   -.115E-03 0.772E-04 0.264E+04   -.244E-17 -.168E-17 0.189E+01   0.258E-03 0.137E-04 0.464E-01
   -.279E+01 -.579E+01 -.265E+04   0.357E+01 0.674E+01 0.264E+04   -.765E+00 -.113E+01 0.229E+01   -.532E-01 0.942E-01 -.195E-01
   0.279E+01 -.579E+01 -.265E+04   -.357E+01 0.674E+01 0.264E+04   0.765E+00 -.113E+01 0.229E+01   0.523E-01 0.953E-01 -.193E-01
   -.641E+01 0.475E+00 -.265E+04   0.762E+01 -.276E+00 0.264E+04   -.136E+01 -.973E-01 0.229E+01   0.552E-01 -.930E-01 -.195E-01
   0.641E+01 0.475E+00 -.265E+04   -.762E+01 -.276E+00 0.264E+04   0.136E+01 -.973E-01 0.229E+01   -.554E-01 -.921E-01 -.186E-01
   -.361E+01 0.531E+01 -.265E+04   0.405E+01 -.646E+01 0.264E+04   -.596E+00 0.123E+01 0.229E+01   0.109E+00 -.176E-02 -.193E-01
   0.361E+01 0.531E+01 -.265E+04   -.405E+01 -.646E+01 0.264E+04   0.596E+00 0.123E+01 0.229E+01   -.108E+00 -.187E-02 -.186E-01
   0.249E-04 -.125E-04 -.265E+04   0.104E-03 -.654E-04 0.265E+04   0.453E-17 -.114E-17 0.202E+01   -.633E-02 -.322E-02 0.675E-01
   -.154E-04 -.740E-05 -.130E+04   0.573E-04 0.696E-05 0.130E+04   -.249E-17 -.226E-17 0.108E+01   0.600E-03 0.369E-03 0.722E-02
   0.467E-04 -.267E-04 -.116E+04   0.189E-04 0.271E-06 0.116E+04   0.181E-17 0.711E-18 -.669E+01   0.612E-03 0.376E-03 -.611E-02
 -----------------------------------------------------------------------------------------------
   0.376E-03 -.722E-03 0.543E+01   0.767E-13 -.329E-12 0.159E-11   0.115E-15 -.269E-17 -.611E+01   -.528E-02 0.161E-03 0.572E+00
 
 
 POSITION                                       TOTAL-FORCE (eV/Angst)
 -----------------------------------------------------------------------------------
      0.00000      0.00000      5.28219         0.000000      0.000000      0.036166
      2.93046      0.00000      5.28219        -0.001499      0.014707      0.015386
      5.86091      0.00000      5.28219         0.001499      0.014707      0.015386
      1.46523      2.53785      5.28219         0.011987     -0.008651      0.015386
      4.39568      2.53785      5.28219         0.000000      0.000000     -0.026073
      7.32614      2.53785      5.28219        -0.011987     -0.008651      0.015386
      2.93046      5.07570      5.28219         0.013486     -0.006056      0.015386
      5.86091      5.07570      5.28219        -0.013486     -0.006056      0.015386
      8.79137      5.07570      5.28219         0.000000      0.000000      0.042803
      1.46523      0.84595      7.67490         0.003338      0.001927     -0.019996
      4.39568      0.84595      7.67490        -0.000000     -0.052828     -0.070732
      7.32614      0.84595      7.67490        -0.003338      0.001927     -0.019996
      2.93046      3.38380      7.67490        -0.045751      0.026414     -0.070732
      5.86091      3.38380      7.67490         0.045751      0.026414     -0.070732
      8.79137      3.38380      7.67490        -0.000000     -0.004571      0.046432
      4.39568      5.92165      7.67490        -0.000000     -0.003854     -0.019996
      7.32614      5.92165      7.67490        -0.003959      0.002286      0.046432
     10.25659      5.92165      7.67490         0.003959      0.002286      0.046432
      8.79137      1.69286     10.06155         0.000000      0.006369      0.035353
      2.93202      1.69280     10.03008        -0.299418     -0.172869     -0.251132
      5.85935      1.69280     10.03008         0.299418     -0.172869     -0.251132
     10.25345      4.23157     10.06207         0.040072     -0.023135      0.027648
      4.39568      4.22795     10.03008         0.000000      0.345738     -0.251132
      7.32929      4.23157     10.06207        -0.040072     -0.023135      0.027648
     11.72099      6.76712     10.06155        -0.005516     -0.003185      0.035353
      5.86174      6.76712     10.06155         0.005516     -0.003185      0.035353
      8.79137      6.76396     10.06207         0.000000      0.046271      0.027648
      0.00000      0.00000     12.43674         0.000000      0.000000     -0.024186
      2.95191      0.04038     12.46589        -0.036564     -0.080949     -0.017077
      5.83946      0.04038     12.46589         0.036564     -0.080949     -0.017077
      1.51092      2.53624     12.46589        -0.088386      0.008809     -0.017077
      7.28044      2.53624     12.46589         0.088386      0.008809     -0.017077
      2.95470      5.03693     12.46589        -0.051822      0.072140     -0.017077
      5.83667      5.03693     12.46589         0.051822      0.072140     -0.017077
      8.79137      5.07570     12.43630        -0.000000      0.000000     -0.015466
      4.39568      2.53785     12.24527         0.000000      0.000000      0.716077
      4.39568      2.53785     13.99737         0.000000      0.000000     -0.021898
 -----------------------------------------------------------------------------------
    total drift:                               -0.004907     -0.000562     -0.103936


--------------------------------------------------------------------------------------------------------



  FREE ENERGIE OF THE ION-ELECTRON SYSTEM (eV)
  ---------------------------------------------------
  free  energy   TOTEN  =      -104.24400071 eV

  energy  without entropy=     -104.24400071  energy(sigma->0) =     -104.24400071
 


--------------------------------------------------------------------------------------------------------


    POTLOK:  cpu time    0.0481: real time    0.0481


--------------------------------------------------------------------------------------------------------


 stress matrix after NEB project (eV)
     -7.18061     -0.00000      0.00000
     -0.00000     -7.18061     -0.00000
      0.00000      0.00000      0.65891
  FORCES: max atom, RMS     0.021898    0.003600
  FORCE total and by dimension    0.021898    0.021898
  Stress total and by dimension   10.176269    7.180609
     LOOP+:  cpu time   75.9748: real time   75.9856
 -----------------------------------------------------------------------------
|                                                                             |
|           W    W    AA    RRRRR   N    N  II  N    N   GGGG   !!!           |
|           W    W   A  A   R    R  NN   N  II  NN   N  G    G  !!!           |
|           W    W  A    A  R    R  N N  N  II  N N  N  G       !!!           |
|           W WW W  AAAAAA  RRRRR   N  N N  II  N  N N  G  GGG   !            |
|           WW  WW  A    A  R   R   N   NN  II  N   NN  G    G                |
|           W    W  A    A  R    R  N    N  II  N    N   GGGG   !!!           |
|                                                                             |
|     Tetrahedron method does not include variations of the Fermi             |
|     occupations, so forces and stress will be inaccurate. We suggest        |
|     using a different smearing scheme ISMEAR = 1 or 2 for metals in         |
|     relaxations.                                                            |
|                                                                             |
 -----------------------------------------------------------------------------

    4ORBIT:  cpu time    0.0000: real time    0.0000



 total charge

# of ion       s       p       d       tot
------------------------------------------
    1        0.413   0.205   9.177   9.795
    2        0.419   0.203   9.176   9.798
    3        0.419   0.203   9.176   9.798
    4        0.419   0.203   9.176   9.798
    5        0.414   0.204   9.178   9.796
    6        0.419   0.203   9.176   9.798
    7        0.419   0.203   9.176   9.798
    8        0.419   0.203   9.176   9.798
    9        0.412   0.204   9.177   9.793
   10        0.405   0.271   9.163   9.839
   11        0.408   0.269   9.166   9.844
   12        0.405   0.271   9.163   9.839
   13        0.408   0.269   9.166   9.844
   14        0.408   0.269   9.166   9.844
   15        0.401   0.270   9.165   9.836
   16        0.405   0.271   9.163   9.839
   17        0.401   0.270   9.165   9.836
   18        0.401   0.270   9.165   9.836
   19        0.401   0.263   9.169   9.834
   20        0.425   0.297   9.150   9.873
   21        0.425   0.297   9.150   9.873
   22        0.393   0.276   9.163   9.832
   23        0.425   0.297   9.150   9.873
   24        0.393   0.276   9.163   9.832
   25        0.401   0.263   9.169   9.834
   26        0.401   0.263   9.169   9.834
   27        0.393   0.276   9.163   9.832
   28        0.415   0.198   9.177   9.790
   29        0.424   0.213   9.167   9.803
   30        0.424   0.213   9.167   9.803
   31        0.424   0.213   9.167   9.803
   32        0.424   0.213   9.167   9.803
   33        0.424   0.213   9.167   9.803
   34        0.424   0.213   9.167   9.803
   35        0.412   0.202   9.176   9.790
   36        0.454   0.418   4.619   5.492
   37        0.997   1.245   0.000   2.242
--------------------------------------------------
tot         15.874  10.110 325.492 351.476
 
 BZINTS: Fermi energy:    0.264456;  395.000000 electrons
         Band energy:-0.151224E+04;  BLOECHL correction:   -0.033207

 total amount of memory used by VASP MPI-rank0   131588. kBytes
=======================================================================

   base      :      30000. kBytes
   nonlr-proj:      15667. kBytes
   fftplans  :       4808. kBytes
   grid      :      19857. kBytes
   one-center:        575. kBytes
   wavefun   :      60681. kBytes
 
  
  
 General timing and accounting informations for this job:
 ========================================================
  
                  Total CPU time used (sec):       83.855
                            User time (sec):       80.803
                          System time (sec):        3.052
                         Elapsed time (sec):       84.256
  
                   Maximum memory used (kb):      396420.
                   Average memory used (kb):          N/A
  
                          Minor page faults:        73841
                          Major page faults:            0
                 Voluntary context switches:         4937
