PROCAR new format
# of k-points:   10         # of bands:  252         # of ions:   37

 k-point     1 :    0.00000000 0.00000000 0.00000000     weight = 0.01562500

band     1 # energy   -8.18629453 # occ.  2.00000000
 
ion      s      p      d    tot
    1  0.000  0.000  0.000  0.000
    2  0.000  0.000  0.000  0.000
    3  0.000  0.000  0.000  0.000
    4  0.000  0.000  0.000  0.000
    5  0.000  0.000  0.000  0.000
    6  0.000  0.000  0.000  0.000
    7  0.000  0.000  0.000  0.000
    8  0.000  0.000  0.000  0.000
    9  0.000  0.000  0.000  0.000
   10  0.000  0.000  0.000  0.000
   11  0.000  0.000  0.000  0.000
   12  0.000  0.000  0.000  0.000
   13  0.000  0.000  0.000  0.000
   14  0.000  0.000  0.000  0.000
   15  0.000  0.000  0.000  0.000
   16  0.000  0.000  0.000  0.000
   17  0.000  0.000  0.000  0.000
   18  0.000  0.000  0.000  0.000
   19  0.000  0.000  0.000  0.000
   20  0.002  0.001  0.003  0.006
   21  0.002  0.001  0.003  0.006
   22  0.000  0.000  0.000  0.000
   23  0.002  0.001  0.003  0.006
   24  0.000  0.000  0.000  0.000
   25  0.000  0.000  0.000  0.000
   26  0.000  0.000  0.000  0.000
   27  0.000  0.000  0.000  0.000
   28  0.000  0.000  0.000  0.000
   29  0.001  0.000  0.001  0.002
   30  0.001  0.000  0.001  0.002
   31  0.001  0.000  0.001  0.002
   32  0.001  0.000  0.001  0.002
   33  0.001  0.000  0.001  0.002
   34  0.001  0.000  0.001  0.002
   35  0.000  0.000  0.000  0.000
   36  0.096  0.047  0.172  0.316
   37  0.431  0.014  0.000  0.445
tot    0.545  0.065  0.188  0.798
 
band     2 # energy   -6.83356193 # occ.  2.00000000
 
ion      s      p      d    tot
    1  0.006  0.001  0.000  0.007
    2  0.006  0.001  0.000  0.007
    3  0.006  0.001  0.000  0.007
    4  0.006  0.001  0.000  0.007
    5  0.006  0.001  0.000  0.007
    6  0.006  0.001  0.000  0.007
    7  0.006  0.001  0.000  0.007
    8  0.006  0.001  0.000  0.007
    9  0.006  0.001  0.000  0.007
   10  0.024  0.000  0.000  0.024
   11  0.025  0.000  0.000  0.025
   12  0.024  0.000  0.000  0.024
   13  0.025  0.000  0.000  0.025
   14  0.025  0.000  0.000  0.025
   15  0.024  0.000  0.000  0.024
   16  0.024  0.000  0.000  0.024
   17  0.024  0.000  0.000  0.024
   18  0.024  0.000  0.000  0.024
   19  0.022  0.000  0.000  0.022
   20  0.022  0.000  0.000  0.023
   21  0.022  0.000  0.000  0.023
   22  0.022  0.000  0.000  0.023
   23  0.022  0.000  0.000  0.023
   24  0.022  0.000  0.000  0.023
   25  0.022  0.000  0.000  0.022
   26  0.022  0.000  0.000  0.022
   27  0.022  0.000  0.000  0.023
   28  0.005  0.001  0.000  0.006
   29  0.004  0.001  0.000  0.005
   30  0.004  0.001  0.000  0.005
   31  0.004  0.001  0.000  0.005
   32  0.004  0.001  0.000  0.005
   33  0.004  0.001  0.000  0.005
   34  0.004  0.001  0.000  0.005
   35  0.005  0.001  0.000  0.006
   36  0.001  0.004  0.004  0.009
   37  0.009  0.000  0.000  0.009
tot    0.519  0.017  0.012  0.548
 
band     3 # energy   -5.97792416 # occ.  2.00000000
 
ion      s      p      d    tot
    1  0.008  0.000  0.000  0.008
    2  0.007  0.000  0.000  0.008
    3  0.007  0.000  0.000  0.008
    4  0.007  0.000  0.000  0.008
    5  0.007  0.000  0.000  0.007
    6  0.007  0.000  0.000  0.008
    7  0.007  0.000  0.000  0.008
    8  0.007  0.000  0.000  0.008
    9  0.007  0.000  0.000  0.007
   10  0.011  0.001  0.016  0.028
   11  0.010  0.001  0.017  0.028
   12  0.011  0.001  0.016  0.028
   13  0.010  0.001  0.017  0.028
   14  0.010  0.001  0.017  0.028
   15  0.009  0.001  0.014  0.025
   16  0.011  0.001  0.016  0.028
   17  0.009  0.001  0.014  0.025
   18  0.009  0.001  0.014  0.025
   19  0.013  0.001  0.018  0.032
   20  0.012  0.001  0.026  0.039
   21  0.012  0.001  0.026  0.039
   22  0.014  0.001  0.018  0.032
   23  0.012  0.001  0.026  0.039
   24  0.014  0.001  0.018  0.032
   25  0.013  0.001  0.018  0.032
   26  0.013  0.001  0.018  0.032
   27  0.014  0.001  0.018  0.032
   28  0.006  0.000  0.000  0.007
   29  0.005  0.000  0.000  0.006
   30  0.005  0.000  0.000  0.006
   31  0.005  0.000  0.000  0.006
   32  0.005  0.000  0.000  0.006
   33  0.005  0.000  0.000  0.006
   34  0.005  0.000  0.000  0.006
   35  0.006  0.000  0.000  0.007
   36  0.001  0.002  0.002  0.005
   37  0.003  0.000  0.000  0.004
tot    0.316  0.024  0.332  0.672
 
band     4 # energy   -5.71260563 # occ.  2.00000000
 
ion      s      p      d    tot
    1  0.016  0.000  0.021  0.036
    2  0.013  0.000  0.019  0.032
    3  0.013  0.000  0.019  0.032
    4  0.013  0.000  0.019  0.032
    5  0.011  0.000  0.018  0.030
    6  0.013  0.000  0.019  0.032
    7  0.013  0.000  0.019  0.032
    8  0.013  0.000  0.019  0.032
    9  0.013  0.000  0.018  0.031
   10  0.000  0.000  0.023  0.023
   11  0.000  0.000  0.014  0.015
   12  0.000  0.000  0.023  0.023
   13  0.000  0.000  0.014  0.015
   14  0.000  0.000  0.014  0.015
   15  0.000  0.001  0.012  0.012
   16  0.000  0.000  0.023  0.023
   17  0.000  0.001  0.012  0.012
   18  0.000  0.001  0.012  0.012
   19  0.000  0.000  0.011  0.012
   20  0.000  0.000  0.025  0.025
   21  0.000  0.000  0.025  0.025
   22  0.001  0.000  0.009  0.010
   23  0.000  0.000  0.025  0.025
   24  0.001  0.000  0.009  0.010
   25  0.000  0.000  0.011  0.012
   26  0.000  0.000  0.011  0.012
   27  0.001  0.000  0.009  0.010
   28  0.009  0.000  0.009  0.018
   29  0.009  0.000  0.011  0.020
   30  0.009  0.000  0.011  0.020
   31  0.009  0.000  0.011  0.020
   32  0.009  0.000  0.011  0.020
   33  0.009  0.000  0.011  0.020
   34  0.009  0.000  0.011  0.020
   35  0.012  0.000  0.010  0.022
   36  0.004  0.000  0.011  0.015
   37  0.000  0.000  0.000  0.001
tot    0.204  0.008  0.545  0.757
 
band     5 # energy   -5.61369681 # occ.  2.00000000
 
ion      s      p      d    tot
    1  0.000  0.000  0.005  0.006
    2  0.002  0.000  0.007  0.009
    3  0.002  0.000  0.007  0.009
    4  0.002  0.000  0.007  0.009
    5  0.006  0.000  0.005  0.011
    6  0.002  0.000  0.007  0.009
    7  0.002  0.000  0.007  0.009
    8  0.002  0.000  0.007  0.009
    9  0.003  0.000  0.002  0.005
   10  0.003  0.000  0.010  0.013
   11  0.001  0.001  0.026  0.027
   12  0.003  0.000  0.010  0.013
   13  0.001  0.001  0.026  0.027
   14  0.001  0.001  0.026  0.027
   15  0.002  0.000  0.016  0.018
   16  0.003  0.000  0.010  0.013
   17  0.002  0.000  0.016  0.018
   18  0.002  0.000  0.016  0.018
   19  0.003  0.001  0.030  0.034
   20  0.007  0.000  0.105  0.113
   21  0.007  0.000  0.105  0.113
   22  0.011  0.001  0.016  0.027
   23  0.007  0.000  0.105  0.113
   24  0.011  0.001  0.016  0.027
   25  0.003  0.001  0.030  0.034
   26  0.003  0.001  0.030  0.034
   27  0.011  0.001  0.016  0.027
   28  0.000  0.000  0.000  0.000
   29  0.000  0.000  0.005  0.005
   30  0.000  0.000  0.005  0.005
   31  0.000  0.000  0.005  0.005
   32  0.000  0.000  0.005  0.005
   33  0.000  0.000  0.005  0.005
   34  0.000  0.000  0.005  0.005
   35  0.004  0.001  0.002  0.007
   36  0.000  0.003  0.003  0.006
   37  0.002  0.000  0.000  0.003
tot    0.104  0.014  0.699  0.817
 
band     6 # energy   -5.60500785 # occ.  2.00000000
 
ion      s      p      d    tot
    1  0.000  0.000  0.009  0.009
    2  0.001  0.000  0.003  0.004
    3  0.001  0.000  0.003  0.004
    4  0.000  0.000  0.002  0.003
    5  0.000  0.000  0.004  0.005
    6  0.000  0.000  0.002  0.003
    7  0.001  0.000  0.003  0.003
    8  0.000  0.000  0.002  0.003
    9  0.000  0.000  0.001  0.001
   10  0.002  0.001  0.020  0.022
   11  0.003  0.000  0.026  0.029
   12  0.003  0.001  0.019  0.023
   13  0.001  0.001  0.022  0.023
   14  0.000  0.001  0.021  0.022
   15  0.003  0.001  0.009  0.012
   16  0.011  0.001  0.014  0.025
   17  0.001  0.000  0.015  0.016
   18  0.001  0.000  0.016  0.016
   19  0.021  0.000  0.039  0.060
   20  0.006  0.000  0.131  0.137
   21  0.009  0.000  0.113  0.122
   22  0.000  0.001  0.045  0.046
   23  0.028  0.001  0.006  0.035
   24  0.000  0.001  0.048  0.049
   25  0.004  0.001  0.023  0.028
   26  0.006  0.001  0.025  0.033
   27  0.000  0.000  0.030  0.031
   28  0.000  0.000  0.005  0.005
   29  0.000  0.000  0.005  0.005
   30  0.000  0.000  0.004  0.004
   31  0.001  0.000  0.007  0.009
   32  0.001  0.001  0.007  0.009
   33  0.001  0.000  0.003  0.005
   34  0.001  0.001  0.004  0.005
   35  0.000  0.000  0.001  0.001
   36  0.000  0.001  0.005  0.006
   37  0.000  0.000  0.000  0.000
tot    0.107  0.015  0.692  0.813
 
band     7 # energy   -5.60500710 # occ.  2.00000000
 
ion      s      p      d    tot
    1  0.000  0.000  0.009  0.009
    2  0.000  0.000  0.002  0.003
    3  0.000  0.000  0.002  0.002
    4  0.001  0.000  0.003  0.004
    5  0.000  0.000  0.004  0.005
    6  0.001  0.000  0.003  0.004
    7  0.001  0.000  0.002  0.003
    8  0.001  0.000  0.002  0.004
    9  0.000  0.000  0.001  0.001
   10  0.009  0.001  0.015  0.025
   11  0.000  0.001  0.020  0.021
   12  0.007  0.001  0.016  0.024
   13  0.002  0.000  0.024  0.026
   14  0.002  0.000  0.025  0.027
   15  0.000  0.000  0.017  0.017
   16  0.000  0.001  0.021  0.022
   17  0.002  0.000  0.011  0.014
   18  0.003  0.000  0.010  0.013
   19  0.000  0.001  0.019  0.021
   20  0.023  0.000  0.035  0.059
   21  0.020  0.000  0.054  0.074
   22  0.000  0.001  0.037  0.038
   23  0.000  0.000  0.160  0.161
   24  0.000  0.000  0.035  0.035
   25  0.017  0.001  0.035  0.053
   26  0.014  0.001  0.033  0.048
   27  0.000  0.001  0.052  0.053
   28  0.000  0.000  0.005  0.005
   29  0.001  0.001  0.006  0.007
   30  0.001  0.001  0.006  0.008
   31  0.000  0.000  0.003  0.004
   32  0.000  0.000  0.003  0.004
   33  0.000  0.000  0.007  0.007
   34  0.000  0.000  0.006  0.007
   35  0.000  0.000  0.001  0.001
   36  0.000  0.001  0.005  0.006
   37  0.000  0.000  0.000  0.000
tot    0.107  0.015  0.692  0.813
 
band     8 # energy   -5.58672417 # occ.  2.00000000
 
ion      s      p      d    tot
    1  0.000  0.000  0.003  0.003
    2  0.000  0.000  0.002  0.002
    3  0.001  0.000  0.006  0.007
    4  0.000  0.000  0.002  0.002
    5  0.000  0.000  0.009  0.009
    6  0.001  0.001  0.004  0.006
    7  0.001  0.000  0.006  0.007
    8  0.001  0.000  0.004  0.006
    9  0.000  0.000  0.002  0.002
   10  0.004  0.000  0.020  0.024
   11  0.008  0.001  0.069  0.077
   12  0.001  0.001  0.067  0.069
   13  0.007  0.001  0.072  0.079
   14  0.029  0.001  0.011  0.041
   15  0.003  0.001  0.015  0.019
   16  0.001  0.001  0.065  0.066
   17  0.003  0.001  0.013  0.017
   18  0.011  0.000  0.036  0.047
   19  0.001  0.000  0.034  0.035
   20  0.007  0.000  0.040  0.048
   21  0.002  0.001  0.030  0.033
   22  0.004  0.001  0.027  0.031
   23  0.002  0.001  0.031  0.034
   24  0.016  0.001  0.011  0.028
   25  0.003  0.000  0.013  0.016
   26  0.001  0.000  0.036  0.036
   27  0.004  0.001  0.026  0.031
   28  0.000  0.000  0.002  0.002
   29  0.001  0.000  0.004  0.005
   30  0.000  0.000  0.003  0.003
   31  0.001  0.000  0.004  0.005
   32  0.000  0.000  0.003  0.003
   33  0.000  0.000  0.003  0.003
   34  0.000  0.000  0.003  0.003
   35  0.000  0.000  0.007  0.007
   36  0.000  0.000  0.002  0.002
   37  0.000  0.000  0.000  0.000
tot    0.111  0.015  0.685  0.810
 
band     9 # energy   -5.58671839 # occ.  2.00000000
 
ion      s      p      d    tot
    1  0.000  0.000  0.003  0.003
    2  0.001  0.001  0.006  0.008
    3  0.000  0.000  0.002  0.003
    4  0.001  0.001  0.006  0.008
    5  0.000  0.000  0.009  0.009
    6  0.000  0.000  0.004  0.004
    7  0.000  0.000  0.003  0.003
    8  0.000  0.000  0.004  0.005
    9  0.000  0.000  0.002  0.002
   10  0.000  0.001  0.081  0.082
   11  0.021  0.001  0.033  0.055
   12  0.003  0.001  0.034  0.038
   13  0.022  0.001  0.029  0.052
   14  0.000  0.000  0.090  0.091
   15  0.008  0.001  0.028  0.037
   16  0.003  0.001  0.037  0.040
   17  0.008  0.001  0.029  0.038
   18  0.000  0.002  0.007  0.008
   19  0.002  0.000  0.021  0.023
   20  0.000  0.001  0.027  0.029
   21  0.006  0.001  0.037  0.043
   22  0.012  0.001  0.016  0.029
   23  0.005  0.001  0.037  0.042
   24  0.000  0.000  0.032  0.032
   25  0.000  0.000  0.042  0.043
   26  0.002  0.000  0.020  0.022
   27  0.011  0.001  0.017  0.029
   28  0.000  0.000  0.002  0.002
   29  0.000  0.000  0.002  0.002
   30  0.001  0.000  0.003  0.005
   31  0.000  0.000  0.002  0.002
   32  0.001  0.000  0.003  0.004
   33  0.001  0.000  0.003  0.004
   34  0.001  0.000  0.003  0.004
   35  0.000  0.000  0.007  0.007
   36  0.000  0.000  0.002  0.002
   37  0.000  0.000  0.000  0.000
tot    0.111  0.015  0.685  0.810
 
band    10 # energy   -5.58155871 # occ.  2.00000000
 
ion      s      p      d    tot
    1  0.001  0.000  0.000  0.001
    2  0.000  0.000  0.006  0.006
    3  0.000  0.000  0.006  0.006
    4  0.000  0.000  0.006  0.006
    5  0.004  0.001  0.003  0.008
    6  0.000  0.000  0.006  0.006
    7  0.000  0.000  0.006  0.006
    8  0.000  0.000  0.006  0.006
    9  0.001  0.000  0.002  0.004
   10  0.007  0.001  0.004  0.013
   11  0.013  0.001  0.038  0.052
   12  0.007  0.001  0.004  0.013
   13  0.013  0.001  0.038  0.052
   14  0.013  0.001  0.038  0.051
   15  0.000  0.000  0.043  0.044
   16  0.007  0.001  0.004  0.013
   17  0.000  0.000  0.043  0.044
   18  0.000  0.000  0.043  0.044
   19  0.014  0.001  0.031  0.045
   20  0.006  0.001  0.018  0.025
   21  0.006  0.001  0.018  0.025
   22  0.001  0.000  0.057  0.058
   23  0.006  0.001  0.018  0.025
   24  0.001  0.000  0.057  0.057
   25  0.014  0.001  0.031  0.045
   26  0.014  0.001  0.031  0.045
   27  0.001  0.000  0.057  0.058
   28  0.004  0.001  0.004  0.010
   29  0.000  0.000  0.004  0.004
   30  0.000  0.000  0.004  0.004
   31  0.000  0.000  0.004  0.004
   32  0.000  0.000  0.004  0.004
   33  0.000  0.000  0.004  0.004
   34  0.000  0.000  0.004  0.004
   35  0.001  0.000  0.006  0.007
   36  0.000  0.000  0.000  0.000
   37  0.000  0.000  0.000  0.000
tot    0.133  0.018  0.646  0.797
 
band    11 # energy   -5.56521342 # occ.  2.00000000
 
ion      s      p      d    tot
    1  0.001  0.001  0.018  0.020
    2  0.000  0.000  0.007  0.007
    3  0.000  0.000  0.007  0.007
    4  0.000  0.000  0.007  0.007
    5  0.001  0.000  0.003  0.003
    6  0.000  0.000  0.007  0.007
    7  0.000  0.000  0.007  0.007
    8  0.000  0.000  0.007  0.007
    9  0.007  0.001  0.001  0.010
   10  0.005  0.000  0.084  0.089
   11  0.001  0.000  0.055  0.056
   12  0.005  0.000  0.084  0.089
   13  0.001  0.000  0.055  0.056
   14  0.001  0.000  0.055  0.056
   15  0.012  0.001  0.005  0.018
   16  0.005  0.000  0.084  0.090
   17  0.012  0.001  0.005  0.018
   18  0.012  0.001  0.005  0.018
   19  0.000  0.000  0.015  0.015
   20  0.003  0.000  0.024  0.027
   21  0.003  0.000  0.024  0.027
   22  0.000  0.000  0.018  0.018
   23  0.003  0.000  0.024  0.027
   24  0.000  0.000  0.018  0.018
   25  0.001  0.000  0.015  0.015
   26  0.000  0.000  0.015  0.015
   27  0.000  0.000  0.018  0.018
   28  0.007  0.000  0.001  0.008
   29  0.000  0.000  0.011  0.011
   30  0.000  0.000  0.011  0.011
   31  0.000  0.000  0.011  0.011
   32  0.000  0.000  0.011  0.011
   33  0.000  0.000  0.011  0.011
   34  0.000  0.000  0.011  0.011
   35  0.000  0.000  0.005  0.005
   36  0.002  0.001  0.001  0.004
   37  0.000  0.000  0.000  0.000
tot    0.085  0.010  0.737  0.832
 
band    12 # energy   -5.54850603 # occ.  2.00000000
 
ion      s      p      d    tot
    1  0.001  0.000  0.004  0.005
    2  0.003  0.000  0.012  0.016
    3  0.003  0.000  0.012  0.016
    4  0.003  0.000  0.012  0.016
    5  0.005  0.000  0.004  0.009
    6  0.003  0.000  0.012  0.016
    7  0.003  0.000  0.012  0.016
    8  0.003  0.000  0.012  0.016
    9  0.004  0.000  0.027  0.032
   10  0.002  0.000  0.025  0.028
   11  0.000  0.000  0.002  0.003
   12  0.002  0.000  0.025  0.027
   13  0.000  0.000  0.002  0.003
   14  0.000  0.000  0.002  0.003
   15  0.005  0.000  0.049  0.054
   16  0.002  0.000  0.025  0.027
   17  0.005  0.000  0.049  0.054
   18  0.005  0.000  0.049  0.054
   19  0.000  0.001  0.009  0.010
   20  0.001  0.000  0.028  0.030
   21  0.001  0.000  0.028  0.030
   22  0.001  0.001  0.033  0.035
   23  0.001  0.000  0.028  0.030
   24  0.001  0.001  0.033  0.035
   25  0.000  0.001  0.009  0.010
   26  0.000  0.001  0.009  0.010
   27  0.001  0.001  0.033  0.035
   28  0.006  0.000  0.003  0.009
   29  0.006  0.000  0.016  0.023
   30  0.006  0.000  0.016  0.023
   31  0.006  0.000  0.016  0.023
   32  0.006  0.000  0.016  0.023
   33  0.006  0.000  0.016  0.023
   34  0.006  0.000  0.016  0.023
   35  0.011  0.000  0.028  0.039
   36  0.001  0.000  0.007  0.008
   37  0.000  0.000  0.000  0.000
tot    0.116  0.008  0.687  0.810
 
band    13 # energy   -5.54404346 # occ.  2.00000000
 
ion      s      p      d    tot
    1  0.000  0.001  0.012  0.012
    2  0.002  0.000  0.006  0.008
    3  0.001  0.001  0.010  0.012
    4  0.001  0.000  0.007  0.008
    5  0.000  0.000  0.009  0.009
    6  0.004  0.001  0.006  0.011
    7  0.001  0.001  0.010  0.011
    8  0.004  0.001  0.006  0.011
    9  0.000  0.000  0.009  0.009
   10  0.000  0.001  0.064  0.065
   11  0.000  0.000  0.032  0.033
   12  0.018  0.000  0.027  0.045
   13  0.000  0.000  0.037  0.037
   14  0.000  0.001  0.014  0.014
   15  0.011  0.000  0.038  0.049
   16  0.015  0.000  0.033  0.048
   17  0.013  0.000  0.024  0.037
   18  0.000  0.000  0.101  0.101
   19  0.002  0.000  0.025  0.027
   20  0.000  0.000  0.023  0.023
   21  0.002  0.000  0.020  0.022
   22  0.007  0.000  0.017  0.024
   23  0.001  0.000  0.020  0.022
   24  0.000  0.000  0.032  0.032
   25  0.000  0.000  0.034  0.034
   26  0.002  0.000  0.023  0.025
   27  0.006  0.000  0.020  0.026
   28  0.000  0.000  0.014  0.014
   29  0.002  0.000  0.004  0.007
   30  0.003  0.001  0.006  0.009
   31  0.003  0.000  0.004  0.007
   32  0.000  0.000  0.005  0.006
   33  0.003  0.001  0.005  0.009
   34  0.000  0.000  0.005  0.005
   35  0.000  0.000  0.005  0.005
   36  0.000  0.000  0.002  0.002
   37  0.000  0.000  0.000  0.000
tot    0.100  0.012  0.707  0.819
 
band    14 # energy   -5.54404029 # occ.  2.00000000
 
ion      s      p      d    tot
    1  0.000  0.001  0.012  0.012
    2  0.003  0.001  0.009  0.013
    3  0.003  0.001  0.005  0.008
    4  0.003  0.001  0.008  0.012
    5  0.000  0.000  0.009  0.009
    6  0.000  0.000  0.009  0.009
    7  0.004  0.001  0.005  0.009
    8  0.000  0.000  0.010  0.010
    9  0.000  0.000  0.009  0.009
   10  0.022  0.000  0.019  0.040
   11  0.000  0.000  0.023  0.023
   12  0.004  0.000  0.056  0.060
   13  0.000  0.001  0.018  0.019
   14  0.000  0.000  0.042  0.042
   15  0.005  0.000  0.071  0.076
   16  0.007  0.000  0.049  0.057
   17  0.003  0.000  0.085  0.088
   18  0.016  0.000  0.008  0.023
   19  0.001  0.000  0.030  0.031
   20  0.002  0.000  0.019  0.021
   21  0.000  0.000  0.022  0.023
   22  0.002  0.000  0.029  0.031
   23  0.001  0.000  0.021  0.022
   24  0.009  0.000  0.014  0.023
   25  0.002  0.000  0.020  0.023
   26  0.000  0.000  0.032  0.032
   27  0.003  0.000  0.026  0.029
   28  0.000  0.000  0.014  0.014
   29  0.002  0.000  0.006  0.008
   30  0.001  0.000  0.004  0.005
   31  0.001  0.000  0.006  0.007
   32  0.004  0.001  0.005  0.009
   33  0.000  0.000  0.005  0.005
   34  0.004  0.001  0.005  0.009
   35  0.000  0.000  0.005  0.005
   36  0.000  0.000  0.002  0.002
   37  0.000  0.000  0.000  0.000
tot    0.100  0.012  0.707  0.819
 
band    15 # energy   -5.53486063 # occ.  2.00000000
 
ion      s      p      d    tot
    1  0.000  0.000  0.007  0.007
    2  0.001  0.000  0.007  0.009
    3  0.000  0.000  0.008  0.008
    4  0.001  0.000  0.007  0.009
    5  0.000  0.000  0.005  0.005
    6  0.002  0.000  0.005  0.007
    7  0.000  0.000  0.008  0.008
    8  0.002  0.000  0.005  0.007
    9  0.000  0.000  0.017  0.017
   10  0.000  0.000  0.037  0.037
   11  0.001  0.000  0.051  0.052
   12  0.000  0.000  0.017  0.017
   13  0.001  0.000  0.047  0.048
   14  0.004  0.000  0.008  0.013
   15  0.001  0.000  0.046  0.047
   16  0.000  0.000  0.014  0.014
   17  0.001  0.000  0.045  0.046
   18  0.004  0.000  0.030  0.034
   19  0.001  0.000  0.073  0.074
   20  0.000  0.000  0.049  0.049
   21  0.000  0.000  0.023  0.024
   22  0.002  0.000  0.051  0.053
   23  0.000  0.000  0.021  0.021
   24  0.009  0.000  0.032  0.040
   25  0.007  0.000  0.006  0.014
   26  0.002  0.000  0.066  0.068
   27  0.002  0.000  0.053  0.055
   28  0.000  0.000  0.006  0.006
   29  0.001  0.000  0.007  0.008
   30  0.002  0.000  0.003  0.005
   31  0.001  0.000  0.008  0.009
   32  0.000  0.000  0.009  0.009
   33  0.002  0.000  0.003  0.005
   34  0.000  0.000  0.008  0.009
   35  0.000  0.000  0.013  0.014
   36  0.000  0.000  0.001  0.001
   37  0.000  0.000  0.000  0.000
tot    0.047  0.006  0.796  0.849
 
band    16 # energy   -5.53484515 # occ.  2.00000000
 
ion      s      p      d    tot
    1  0.000  0.000  0.007  0.007
    2  0.001  0.000  0.006  0.007
    3  0.002  0.000  0.005  0.008
    4  0.001  0.000  0.006  0.007
    5  0.000  0.000  0.005  0.005
    6  0.000  0.000  0.008  0.009
    7  0.002  0.000  0.006  0.008
    8  0.000  0.000  0.008  0.009
    9  0.000  0.000  0.017  0.017
   10  0.000  0.000  0.008  0.008
   11  0.003  0.000  0.020  0.023
   12  0.000  0.000  0.029  0.029
   13  0.003  0.000  0.024  0.027
   14  0.000  0.000  0.062  0.062
   15  0.003  0.000  0.034  0.037
   16  0.000  0.000  0.031  0.031
   17  0.003  0.000  0.036  0.039
   18  0.000  0.000  0.051  0.051
   19  0.005  0.000  0.024  0.030
   20  0.000  0.000  0.013  0.013
   21  0.000  0.000  0.039  0.039
   22  0.006  0.000  0.039  0.046
   23  0.000  0.000  0.041  0.042
   24  0.000  0.000  0.059  0.059
   25  0.000  0.000  0.090  0.090
   26  0.005  0.000  0.031  0.036
   27  0.007  0.000  0.037  0.044
   28  0.000  0.000  0.006  0.006
   29  0.001  0.000  0.005  0.007
   30  0.000  0.000  0.010  0.010
   31  0.001  0.000  0.005  0.006
   32  0.002  0.000  0.004  0.006
   33  0.000  0.000  0.010  0.010
   34  0.001  0.000  0.005  0.006
   35  0.000  0.000  0.013  0.014
   36  0.000  0.000  0.001  0.001
   37  0.000  0.000  0.000  0.000
tot    0.047  0.006  0.796  0.849
 
band    17 # energy   -5.51966837 # occ.  2.00000000
 
ion      s      p      d    tot
    1  0.011  0.000  0.005  0.016
    2  0.001  0.000  0.011  0.013
    3  0.001  0.000  0.011  0.013
    4  0.001  0.000  0.011  0.013
    5  0.000  0.001  0.016  0.017
    6  0.001  0.000  0.011  0.013
    7  0.001  0.000  0.011  0.013
    8  0.001  0.000  0.011  0.013
    9  0.000  0.000  0.000  0.000
   10  0.001  0.000  0.017  0.018
   11  0.005  0.000  0.025  0.029
   12  0.001  0.000  0.017  0.018
   13  0.005  0.000  0.025  0.029
   14  0.005  0.000  0.025  0.029
   15  0.001  0.000  0.026  0.027
   16  0.001  0.000  0.017  0.018
   17  0.001  0.000  0.026  0.027
   18  0.001  0.000  0.026  0.027
   19  0.002  0.000  0.051  0.053
   20  0.002  0.000  0.010  0.012
   21  0.002  0.000  0.010  0.012
   22  0.002  0.000  0.022  0.025
   23  0.002  0.000  0.010  0.012
   24  0.002  0.000  0.022  0.025
   25  0.002  0.000  0.051  0.053
   26  0.002  0.000  0.051  0.053
   27  0.002  0.000  0.022  0.025
   28  0.007  0.000  0.039  0.046
   29  0.006  0.000  0.018  0.024
   30  0.006  0.000  0.018  0.024
   31  0.006  0.000  0.018  0.024
   32  0.006  0.000  0.018  0.024
   33  0.006  0.000  0.018  0.024
   34  0.006  0.000  0.018  0.024
   35  0.001  0.000  0.007  0.008
   36  0.008  0.003  0.006  0.017
   37  0.003  0.000  0.000  0.003
tot    0.111  0.010  0.700  0.821
 
band    18 # energy   -5.39731357 # occ.  2.00000000
 
ion      s      p      d    tot
    1  0.000  0.000  0.001  0.001
    2  0.001  0.001  0.007  0.008
    3  0.000  0.000  0.008  0.008
    4  0.001  0.001  0.007  0.009
    5  0.000  0.001  0.016  0.017
    6  0.001  0.000  0.005  0.007
    7  0.000  0.000  0.008  0.009
    8  0.001  0.000  0.005  0.007
    9  0.000  0.000  0.010  0.010
   10  0.000  0.001  0.023  0.024
   11  0.001  0.000  0.075  0.076
   12  0.000  0.000  0.023  0.024
   13  0.001  0.000  0.077  0.077
   14  0.002  0.000  0.045  0.047
   15  0.001  0.000  0.015  0.016
   16  0.000  0.000  0.023  0.024
   17  0.001  0.000  0.014  0.015
   18  0.002  0.001  0.032  0.035
   19  0.000  0.000  0.010  0.011
   20  0.003  0.000  0.059  0.062
   21  0.001  0.000  0.094  0.095
   22  0.000  0.000  0.031  0.031
   23  0.001  0.000  0.092  0.093
   24  0.000  0.001  0.021  0.022
   25  0.002  0.001  0.030  0.033
   26  0.000  0.000  0.009  0.010
   27  0.000  0.000  0.030  0.031
   28  0.000  0.000  0.007  0.007
   29  0.001  0.000  0.005  0.006
   30  0.000  0.000  0.008  0.009
   31  0.001  0.000  0.006  0.006
   32  0.002  0.001  0.008  0.010
   33  0.000  0.000  0.008  0.008
   34  0.002  0.001  0.007  0.010
   35  0.000  0.000  0.001  0.001
   36  0.000  0.002  0.007  0.009
   37  0.000  0.000  0.000  0.000
tot    0.023  0.015  0.828  0.867
 
band    19 # energy   -5.39730215 # occ.  2.00000000
 
ion      s      p      d    tot
    1  0.000  0.000  0.001  0.001
    2  0.000  0.000  0.007  0.007
    3  0.001  0.001  0.005  0.007
    4  0.000  0.000  0.007  0.007
    5  0.000  0.001  0.016  0.017
    6  0.000  0.000  0.008  0.009
    7  0.001  0.001  0.005  0.007
    8  0.000  0.000  0.008  0.009
    9  0.000  0.000  0.010  0.010
   10  0.000  0.000  0.023  0.023
   11  0.002  0.000  0.056  0.058
   12  0.000  0.001  0.023  0.024
   13  0.002  0.000  0.055  0.056
   14  0.000  0.000  0.086  0.087
   15  0.002  0.000  0.026  0.028
   16  0.000  0.001  0.023  0.024
   17  0.002  0.001  0.027  0.029
   18  0.000  0.000  0.009  0.009
   19  0.001  0.001  0.023  0.025
   20  0.000  0.000  0.105  0.105
   21  0.002  0.000  0.070  0.072
   22  0.000  0.001  0.024  0.025
   23  0.002  0.000  0.071  0.074
   24  0.000  0.000  0.033  0.034
   25  0.000  0.000  0.003  0.003
   26  0.001  0.001  0.024  0.026
   27  0.000  0.001  0.025  0.025
   28  0.000  0.000  0.007  0.007
   29  0.001  0.001  0.009  0.010
   30  0.001  0.001  0.006  0.008
   31  0.001  0.001  0.009  0.010
   32  0.000  0.000  0.006  0.007
   33  0.001  0.001  0.006  0.008
   34  0.000  0.000  0.007  0.007
   35  0.000  0.000  0.001  0.001
   36  0.000  0.002  0.007  0.009
   37  0.000  0.000  0.000  0.000
tot    0.023  0.015  0.828  0.867
 
band    20 # energy   -5.39086901 # occ.  2.00000000
 
ion      s      p      d    tot
    1  0.001  0.000  0.000  0.001
    2  0.000  0.000  0.006  0.006
    3  0.000  0.000  0.006  0.006
    4  0.000  0.000  0.006  0.006
    5  0.001  0.001  0.012  0.013
    6  0.000  0.000  0.006  0.006
    7  0.000  0.000  0.006  0.006
    8  0.000  0.000  0.006  0.006
    9  0.003  0.001  0.005  0.009
   10  0.001  0.000  0.016  0.017
   11  0.000  0.001  0.071  0.072
   12  0.001  0.000  0.016  0.017
   13  0.000  0.001  0.071  0.072
   14  0.000  0.001  0.071  0.072
   15  0.000  0.000  0.032  0.033
   16  0.001  0.000  0.016  0.017
   17  0.000  0.000  0.032  0.033
   18  0.000  0.000  0.032  0.033
   19  0.000  0.000  0.028  0.028
   20  0.001  0.000  0.064  0.065
   21  0.001  0.000  0.064  0.065
   22  0.002  0.000  0.022  0.023
   23  0.001  0.000  0.064  0.065
   24  0.002  0.000  0.022  0.023
   25  0.000  0.000  0.028  0.028
   26  0.000  0.000  0.028  0.028
   27  0.002  0.000  0.022  0.023
   28  0.002  0.001  0.006  0.009
   29  0.000  0.000  0.011  0.012
   30  0.000  0.000  0.011  0.012
   31  0.000  0.000  0.011  0.012
   32  0.000  0.000  0.011  0.012
   33  0.000  0.000  0.011  0.012
   34  0.000  0.000  0.011  0.012
   35  0.005  0.001  0.002  0.007
   36  0.000  0.001  0.001  0.002
   37  0.002  0.000  0.000  0.002
tot    0.025  0.015  0.824  0.865
 
band    21 # energy   -5.37011441 # occ.  2.00000000
 
ion      s      p      d    tot
    1  0.001  0.001  0.005  0.007
    2  0.000  0.000  0.011  0.012
    3  0.000  0.000  0.011  0.012
    4  0.000  0.000  0.011  0.012
    5  0.004  0.001  0.000  0.005
    6  0.000  0.000  0.011  0.012
    7  0.000  0.000  0.011  0.012
    8  0.000  0.000  0.011  0.012
    9  0.001  0.000  0.005  0.006
   10  0.001  0.001  0.054  0.056
   11  0.000  0.000  0.017  0.017
   12  0.001  0.001  0.055  0.056
   13  0.000  0.000  0.017  0.017
   14  0.000  0.000  0.017  0.017
   15  0.002  0.000  0.035  0.038
   16  0.001  0.001  0.055  0.056
   17  0.002  0.000  0.035  0.038
   18  0.002  0.000  0.035  0.038
   19  0.001  0.000  0.043  0.045
   20  0.000  0.000  0.018  0.019
   21  0.000  0.000  0.018  0.019
   22  0.001  0.001  0.048  0.050
   23  0.000  0.000  0.018  0.019
   24  0.001  0.001  0.048  0.050
   25  0.001  0.000  0.043  0.045
   26  0.001  0.000  0.043  0.045
   27  0.001  0.001  0.048  0.050
   28  0.001  0.000  0.010  0.011
   29  0.000  0.000  0.011  0.011
   30  0.000  0.000  0.011  0.011
   31  0.000  0.000  0.011  0.011
   32  0.000  0.000  0.011  0.011
   33  0.000  0.000  0.011  0.011
   34  0.000  0.000  0.011  0.011
   35  0.002  0.001  0.005  0.008
   36  0.003  0.001  0.000  0.005