PROCAR new format
# of k-points:   10         # of bands:  252         # of ions:   37

 k-point     1 :    0.00000000 0.00000000 0.00000000     weight = 0.01562500

band     1 # energy  -55.18109881 # occ.  2.00000000
 
ion      s      p      d    tot
    1  0.000  0.000  0.000  0.000
    2  0.000  0.000  0.000  0.000
    3  0.000  0.000  0.000  0.000
    4  0.000  0.000  0.000  0.000
    5  0.000  0.000  0.000  0.000
    6  0.000  0.000  0.000  0.000
    7  0.000  0.000  0.000  0.000
    8  0.000  0.000  0.000  0.000
    9  0.000  0.000  0.000  0.000
   10  0.000  0.000  0.000  0.000
   11  0.000  0.000  0.000  0.000
   12  0.000  0.000  0.000  0.000
   13  0.000  0.000  0.000  0.000
   14  0.000  0.000  0.000  0.000
   15  0.000  0.000  0.000  0.000
   16  0.000  0.000  0.000  0.000
   17  0.000  0.000  0.000  0.000
   18  0.000  0.000  0.000  0.000
   19  0.000  0.000  0.000  0.000
   20  0.000  0.000  0.000  0.000
   21  0.000  0.000  0.000  0.000
   22  0.000  0.000  0.000  0.000
   23  0.000  0.000  0.000  0.000
   24  0.000  0.000  0.000  0.000
   25  0.000  0.000  0.000  0.000
   26  0.000  0.000  0.000  0.000
   27  0.000  0.000  0.000  0.000
   28  0.000  0.000  0.000  0.000
   29  0.000  0.000  0.000  0.000
   30  0.000  0.000  0.000  0.000
   31  0.000  0.000  0.000  0.000
   32  0.000  0.000  0.000  0.000
   33  0.000  0.000  0.000  0.000
   34  0.000  0.000  0.000  0.000
   35  0.000  0.000  0.000  0.000
   36  0.991  0.000  0.000  0.991
   37  0.001  0.001  0.000  0.003
tot    0.993  0.001  0.000  0.994
 
band     2 # energy  -31.75452851 # occ.  2.00000000
 
ion      s      p      d    tot
    1  0.000  0.000  0.000  0.000
    2  0.000  0.000  0.000  0.000
    3  0.000  0.000  0.000  0.000
    4  0.000  0.000  0.000  0.000
    5  0.000  0.000  0.000  0.000
    6  0.000  0.000  0.000  0.000
    7  0.000  0.000  0.000  0.000
    8  0.000  0.000  0.000  0.000
    9  0.000  0.000  0.000  0.000
   10  0.000  0.000  0.000  0.000
   11  0.000  0.000  0.000  0.000
   12  0.000  0.000  0.000  0.000
   13  0.000  0.000  0.000  0.000
   14  0.000  0.000  0.000  0.000
   15  0.000  0.000  0.000  0.000
   16  0.000  0.000  0.000  0.000
   17  0.000  0.000  0.000  0.000
   18  0.000  0.000  0.000  0.000
   19  0.000  0.000  0.000  0.000
   20  0.000  0.000  0.000  0.000
   21  0.000  0.000  0.000  0.000
   22  0.000  0.000  0.000  0.000
   23  0.000  0.000  0.000  0.000
   24  0.000  0.000  0.000  0.000
   25  0.000  0.000  0.000  0.000
   26  0.000  0.000  0.000  0.000
   27  0.000  0.000  0.000  0.000
   28  0.000  0.000  0.000  0.000
   29  0.000  0.000  0.000  0.000
   30  0.000  0.000  0.000  0.000
   31  0.000  0.000  0.000  0.000
   32  0.000  0.000  0.000  0.000
   33  0.000  0.000  0.000  0.000
   34  0.000  0.000  0.000  0.000
   35  0.000  0.000  0.000  0.000
   36  0.000  0.935  0.001  0.936
   37  0.031  0.016  0.000  0.047
tot    0.032  0.951  0.002  0.984
 
band     3 # energy  -31.19697029 # occ.  2.00000000
 
ion      s      p      d    tot
    1  0.000  0.000  0.000  0.000
    2  0.000  0.000  0.000  0.000
    3  0.000  0.000  0.000  0.000
    4  0.000  0.000  0.000  0.000
    5  0.000  0.000  0.000  0.000
    6  0.000  0.000  0.000  0.000
    7  0.000  0.000  0.000  0.000
    8  0.000  0.000  0.000  0.000
    9  0.000  0.000  0.000  0.000
   10  0.000  0.000  0.000  0.000
   11  0.000  0.000  0.000  0.000
   12  0.000  0.000  0.000  0.000
   13  0.000  0.000  0.000  0.000
   14  0.000  0.000  0.000  0.000
   15  0.000  0.000  0.000  0.000
   16  0.000  0.000  0.000  0.000
   17  0.000  0.000  0.000  0.000
   18  0.000  0.000  0.000  0.000
   19  0.000  0.000  0.000  0.000
   20  0.000  0.000  0.000  0.000
   21  0.000  0.000  0.000  0.000
   22  0.000  0.000  0.000  0.000
   23  0.000  0.000  0.000  0.000
   24  0.000  0.000  0.000  0.000
   25  0.000  0.000  0.000  0.000
   26  0.000  0.000  0.000  0.000
   27  0.000  0.000  0.000  0.000
   28  0.000  0.000  0.000  0.000
   29  0.000  0.000  0.000  0.000
   30  0.000  0.000  0.000  0.000
   31  0.000  0.000  0.000  0.000
   32  0.000  0.000  0.000  0.000
   33  0.000  0.000  0.000  0.000
   34  0.000  0.000  0.000  0.000
   35  0.000  0.000  0.000  0.000
   36  0.000  0.972  0.000  0.972
   37  0.000  0.000  0.000  0.000
tot    0.000  0.973  0.001  0.974
 
band     4 # energy  -31.19696845 # occ.  2.00000000
 
ion      s      p      d    tot
    1  0.000  0.000  0.000  0.000
    2  0.000  0.000  0.000  0.000
    3  0.000  0.000  0.000  0.000
    4  0.000  0.000  0.000  0.000
    5  0.000  0.000  0.000  0.000
    6  0.000  0.000  0.000  0.000
    7  0.000  0.000  0.000  0.000
    8  0.000  0.000  0.000  0.000
    9  0.000  0.000  0.000  0.000
   10  0.000  0.000  0.000  0.000
   11  0.000  0.000  0.000  0.000
   12  0.000  0.000  0.000  0.000
   13  0.000  0.000  0.000  0.000
   14  0.000  0.000  0.000  0.000
   15  0.000  0.000  0.000  0.000
   16  0.000  0.000  0.000  0.000
   17  0.000  0.000  0.000  0.000
   18  0.000  0.000  0.000  0.000
   19  0.000  0.000  0.000  0.000
   20  0.000  0.000  0.000  0.000
   21  0.000  0.000  0.000  0.000
   22  0.000  0.000  0.000  0.000
   23  0.000  0.000  0.000  0.000
   24  0.000  0.000  0.000  0.000
   25  0.000  0.000  0.000  0.000
   26  0.000  0.000  0.000  0.000
   27  0.000  0.000  0.000  0.000
   28  0.000  0.000  0.000  0.000
   29  0.000  0.000  0.000  0.000
   30  0.000  0.000  0.000  0.000
   31  0.000  0.000  0.000  0.000
   32  0.000  0.000  0.000  0.000
   33  0.000  0.000  0.000  0.000
   34  0.000  0.000  0.000  0.000
   35  0.000  0.000  0.000  0.000
   36  0.000  0.972  0.000  0.972
   37  0.000  0.000  0.000  0.000
tot    0.000  0.973  0.001  0.974
 
band     5 # energy  -16.75360766 # occ.  2.00000000
 
ion      s      p      d    tot
    1  0.000  0.000  0.000  0.000
    2  0.000  0.000  0.000  0.000
    3  0.000  0.000  0.000  0.000
    4  0.000  0.000  0.000  0.000
    5  0.000  0.000  0.000  0.000
    6  0.000  0.000  0.000  0.000
    7  0.000  0.000  0.000  0.000
    8  0.000  0.000  0.000  0.000
    9  0.000  0.000  0.000  0.000
   10  0.000  0.000  0.000  0.000
   11  0.000  0.000  0.000  0.000
   12  0.000  0.000  0.000  0.000
   13  0.000  0.000  0.000  0.000
   14  0.000  0.000  0.000  0.000
   15  0.000  0.000  0.000  0.000
   16  0.000  0.000  0.000  0.000
   17  0.000  0.000  0.000  0.000
   18  0.000  0.000  0.000  0.000
   19  0.000  0.000  0.000  0.000
   20  0.000  0.000  0.000  0.000
   21  0.000  0.000  0.000  0.000
   22  0.000  0.000  0.000  0.000
   23  0.000  0.000  0.000  0.000
   24  0.000  0.000  0.000  0.000
   25  0.000  0.000  0.000  0.000
   26  0.000  0.000  0.000  0.000
   27  0.000  0.000  0.000  0.000
   28  0.000  0.000  0.000  0.000
   29  0.000  0.000  0.000  0.000
   30  0.000  0.000  0.000  0.000
   31  0.000  0.000  0.000  0.000
   32  0.000  0.000  0.000  0.000
   33  0.000  0.000  0.000  0.000
   34  0.000  0.000  0.000  0.000
   35  0.000  0.000  0.000  0.000
   36  0.015  0.048  0.053  0.116
   37  0.750  0.006  0.000  0.756
tot    0.766  0.054  0.054  0.873
 
band     6 # energy   -8.07645549 # occ.  2.00000000
 
ion      s      p      d    tot
    1  0.006  0.001  0.000  0.007
    2  0.006  0.001  0.000  0.007
    3  0.006  0.001  0.000  0.007
    4  0.006  0.001  0.000  0.007
    5  0.006  0.001  0.000  0.007
    6  0.006  0.001  0.000  0.007
    7  0.006  0.001  0.000  0.007
    8  0.006  0.001  0.000  0.007
    9  0.006  0.001  0.000  0.007
   10  0.026  0.000  0.000  0.026
   11  0.027  0.000  0.000  0.028
   12  0.026  0.000  0.000  0.026
   13  0.027  0.000  0.000  0.028
   14  0.027  0.000  0.000  0.028
   15  0.025  0.000  0.000  0.026
   16  0.026  0.000  0.000  0.026
   17  0.025  0.000  0.000  0.026
   18  0.025  0.000  0.000  0.026
   19  0.023  0.000  0.000  0.024
   20  0.028  0.000  0.000  0.029
   21  0.028  0.000  0.000  0.029
   22  0.024  0.000  0.000  0.025
   23  0.028  0.000  0.000  0.029
   24  0.024  0.000  0.000  0.025
   25  0.023  0.000  0.000  0.024
   26  0.023  0.000  0.000  0.024
   27  0.024  0.000  0.000  0.025
   28  0.005  0.000  0.000  0.005
   29  0.005  0.000  0.000  0.005
   30  0.005  0.000  0.000  0.005
   31  0.005  0.000  0.000  0.005
   32  0.005  0.000  0.000  0.005
   33  0.005  0.000  0.000  0.005
   34  0.005  0.000  0.000  0.005
   35  0.005  0.000  0.000  0.005
   36  0.002  0.001  0.000  0.003
   37  0.000  0.000  0.000  0.001
tot    0.561  0.012  0.004  0.577
 
band     7 # energy   -6.90261298 # occ.  2.00000000
 
ion      s      p      d    tot
    1  0.017  0.000  0.001  0.018
    2  0.016  0.000  0.001  0.018
    3  0.016  0.000  0.001  0.018
    4  0.016  0.000  0.001  0.018
    5  0.016  0.000  0.001  0.018
    6  0.016  0.000  0.001  0.018
    7  0.016  0.000  0.001  0.018
    8  0.016  0.000  0.001  0.018
    9  0.017  0.000  0.001  0.018
   10  0.011  0.001  0.003  0.015
   11  0.010  0.002  0.003  0.014
   12  0.011  0.001  0.003  0.015
   13  0.010  0.002  0.003  0.014
   14  0.010  0.001  0.003  0.014
   15  0.011  0.001  0.002  0.015
   16  0.011  0.001  0.003  0.015
   17  0.011  0.001  0.002  0.015
   18  0.011  0.001  0.002  0.015
   19  0.013  0.001  0.003  0.017
   20  0.015  0.001  0.004  0.020
   21  0.015  0.001  0.004  0.020
   22  0.013  0.001  0.003  0.018
   23  0.015  0.001  0.004  0.020
   24  0.013  0.001  0.003  0.018
   25  0.013  0.001  0.003  0.017
   26  0.013  0.001  0.003  0.017
   27  0.013  0.001  0.003  0.018
   28  0.014  0.000  0.001  0.015
   29  0.014  0.001  0.001  0.016
   30  0.014  0.001  0.001  0.016
   31  0.014  0.001  0.001  0.016
   32  0.014  0.001  0.001  0.016
   33  0.014  0.001  0.001  0.016
   34  0.014  0.001  0.001  0.016
   35  0.014  0.000  0.001  0.015
   36  0.005  0.001  0.001  0.006
   37  0.001  0.000  0.000  0.001
tot    0.488  0.032  0.071  0.591
 
band     8 # energy   -6.02123982 # occ.  2.00000000
 
ion      s      p      d    tot
    1  0.000  0.000  0.003  0.004
    2  0.002  0.000  0.003  0.005
    3  0.002  0.000  0.003  0.005
    4  0.002  0.000  0.003  0.005
    5  0.001  0.000  0.001  0.002
    6  0.002  0.000  0.003  0.005
    7  0.002  0.000  0.003  0.005
    8  0.002  0.000  0.003  0.005
    9  0.012  0.001  0.000  0.013
   10  0.005  0.001  0.010  0.015
   11  0.002  0.001  0.005  0.009
   12  0.005  0.001  0.010  0.015
   13  0.002  0.001  0.005  0.009
   14  0.002  0.001  0.005  0.009
   15  0.008  0.001  0.002  0.011
   16  0.005  0.001  0.010  0.015
   17  0.008  0.001  0.002  0.011
   18  0.009  0.001  0.002  0.011
   19  0.002  0.001  0.021  0.024
   20  0.028  0.002  0.031  0.061
   21  0.028  0.002  0.031  0.060
   22  0.003  0.001  0.009  0.014
   23  0.028  0.002  0.031  0.060
   24  0.003  0.001  0.009  0.014
   25  0.002  0.001  0.021  0.024
   26  0.002  0.001  0.021  0.024
   27  0.003  0.001  0.009  0.014
   28  0.015  0.000  0.006  0.021
   29  0.015  0.000  0.012  0.026
   30  0.015  0.000  0.012  0.026
   31  0.015  0.000  0.012  0.026
   32  0.015  0.000  0.012  0.026
   33  0.015  0.000  0.012  0.026
   34  0.015  0.000  0.012  0.026
   35  0.030  0.000  0.007  0.037
   36  0.000  0.001  0.021  0.022
   37  0.001  0.008  0.000  0.008
tot    0.305  0.032  0.358  0.696
 
band     9 # energy   -5.97767186 # occ.  2.00000000
 
ion      s      p      d    tot
    1  0.000  0.000  0.008  0.008
    2  0.003  0.001  0.002  0.006
    3  0.000  0.000  0.003  0.003
    4  0.003  0.001  0.002  0.006
    5  0.000  0.001  0.005  0.006
    6  0.005  0.001  0.003  0.009
    7  0.000  0.000  0.003  0.003
    8  0.005  0.001  0.003  0.009
    9  0.000  0.000  0.001  0.001
   10  0.038  0.002  0.005  0.045
   11  0.011  0.003  0.019  0.033
   12  0.010  0.001  0.025  0.035
   13  0.011  0.003  0.019  0.033
   14  0.044  0.001  0.012  0.057
   15  0.000  0.002  0.007  0.009
   16  0.009  0.001  0.025  0.035
   17  0.000  0.002  0.007  0.009
   18  0.000  0.000  0.010  0.011
   19  0.003  0.003  0.006  0.012
   20  0.070  0.001  0.012  0.083
   21  0.018  0.002  0.035  0.054
   22  0.003  0.001  0.020  0.024
   23  0.017  0.002  0.035  0.054
   24  0.013  0.002  0.006  0.020
   25  0.013  0.000  0.013  0.027
   26  0.003  0.003  0.006  0.012
   27  0.003  0.001  0.020  0.024
   28  0.000  0.000  0.001  0.002
   29  0.006  0.001  0.005  0.012
   30  0.002  0.001  0.003  0.006
   31  0.006  0.001  0.005  0.012
   32  0.001  0.000  0.003  0.005
   33  0.002  0.001  0.003  0.006
   34  0.001  0.000  0.003  0.004
   35  0.000  0.000  0.004  0.004
   36  0.000  0.001  0.008  0.009
   37  0.000  0.001  0.000  0.001
tot    0.304  0.042  0.344  0.690
 
band    10 # energy   -5.97764315 # occ.  2.00000000
 
ion      s      p      d    tot
    1  0.000  0.000  0.008  0.008
    2  0.003  0.001  0.003  0.007
    3  0.005  0.001  0.003  0.009
    4  0.003  0.001  0.003  0.007
    5  0.000  0.001  0.005  0.006
    6  0.000  0.000  0.002  0.003
    7  0.005  0.001  0.003  0.009
    8  0.000  0.000  0.002  0.003
    9  0.000  0.000  0.001  0.001
   10  0.000  0.000  0.031  0.031
   11  0.033  0.001  0.014  0.049
   12  0.028  0.002  0.012  0.042
   13  0.033  0.002  0.014  0.049
   14  0.000  0.004  0.022  0.026
   15  0.000  0.001  0.009  0.010
   16  0.028  0.002  0.012  0.042
   17  0.000  0.001  0.009  0.010
   18  0.000  0.003  0.006  0.008
   19  0.010  0.001  0.011  0.022
   20  0.000  0.002  0.042  0.044
   21  0.052  0.001  0.020  0.073
   22  0.010  0.001  0.011  0.022
   23  0.053  0.001  0.019  0.073
   24  0.000  0.001  0.025  0.026
   25  0.000  0.004  0.003  0.007
   26  0.010  0.001  0.011  0.022
   27  0.010  0.001  0.010  0.022
   28  0.000  0.000  0.001  0.002
   29  0.000  0.000  0.002  0.003
   30  0.004  0.001  0.004  0.009
   31  0.000  0.000  0.002  0.003
   32  0.005  0.001  0.004  0.010
   33  0.004  0.001  0.004  0.009
   34  0.005  0.001  0.004  0.010
   35  0.000  0.000  0.004  0.004
   36  0.000  0.001  0.008  0.009
   37  0.000  0.001  0.000  0.001
tot    0.304  0.042  0.344  0.690
 
band    11 # energy   -5.93234533 # occ.  2.00000000
 
ion      s      p      d    tot
    1  0.027  0.000  0.018  0.045
    2  0.019  0.000  0.019  0.039
    3  0.019  0.000  0.019  0.039
    4  0.019  0.000  0.019  0.039
    5  0.015  0.000  0.021  0.037
    6  0.019  0.000  0.019  0.039
    7  0.019  0.000  0.019  0.039
    8  0.019  0.000  0.019  0.039
    9  0.017  0.000  0.019  0.036
   10  0.003  0.000  0.029  0.032
   11  0.011  0.001  0.023  0.035
   12  0.003  0.000  0.029  0.032
   13  0.011  0.001  0.023  0.035
   14  0.011  0.001  0.023  0.035
   15  0.011  0.001  0.022  0.034
   16  0.003  0.000  0.029  0.032
   17  0.011  0.001  0.022  0.034
   18  0.011  0.001  0.022  0.034
   19  0.002  0.000  0.004  0.006
   20  0.001  0.000  0.010  0.011
   21  0.001  0.000  0.010  0.011
   22  0.000  0.000  0.005  0.006
   23  0.001  0.000  0.010  0.011
   24  0.000  0.000  0.005  0.006
   25  0.002  0.000  0.004  0.006
   26  0.002  0.000  0.004  0.006
   27  0.000  0.000  0.005  0.006
   28  0.001  0.000  0.000  0.001
   29  0.000  0.000  0.000  0.001
   30  0.000  0.000  0.000  0.000
   31  0.000  0.000  0.000  0.001
   32  0.000  0.000  0.000  0.000
   33  0.000  0.000  0.000  0.000
   34  0.000  0.000  0.000  0.000
   35  0.000  0.000  0.000  0.000
   36  0.000  0.000  0.000  0.001
   37  0.000  0.000  0.000  0.001
tot    0.265  0.010  0.455  0.731
 
band    12 # energy   -5.90504089 # occ.  2.00000000
 
ion      s      p      d    tot
    1  0.006  0.001  0.001  0.007
    2  0.000  0.000  0.003  0.003
    3  0.000  0.000  0.003  0.003
    4  0.000  0.000  0.003  0.003
    5  0.001  0.000  0.000  0.001
    6  0.000  0.000  0.003  0.003
    7  0.000  0.000  0.003  0.003
    8  0.000  0.000  0.003  0.003
    9  0.005  0.001  0.001  0.007
   10  0.007  0.000  0.017  0.024
   11  0.003  0.001  0.010  0.014
   12  0.007  0.000  0.017  0.024
   13  0.003  0.001  0.010  0.014
   14  0.003  0.001  0.010  0.014
   15  0.014  0.002  0.006  0.022
   16  0.007  0.000  0.017  0.024
   17  0.014  0.002  0.006  0.022
   18  0.014  0.002  0.006  0.022
   19  0.002  0.001  0.017  0.020
   20  0.002  0.000  0.036  0.037
   21  0.002  0.000  0.036  0.037
   22  0.027  0.002  0.009  0.038
   23  0.002  0.000  0.036  0.037
   24  0.027  0.002  0.009  0.038
   25  0.002  0.001  0.017  0.020
   26  0.002  0.001  0.017  0.020
   27  0.027  0.002  0.009  0.038
   28  0.010  0.000  0.013  0.024
   29  0.013  0.000  0.012  0.025
   30  0.013  0.000  0.012  0.025
   31  0.013  0.000  0.012  0.025
   32  0.013  0.000  0.012  0.025
   33  0.013  0.000  0.012  0.025
   34  0.013  0.000  0.012  0.025
   35  0.003  0.001  0.014  0.017
   36  0.009  0.000  0.004  0.013
   37  0.000  0.000  0.000  0.000
tot    0.278  0.026  0.406  0.710
 
band    13 # energy   -5.89921787 # occ.  2.00000000
 
ion      s      p      d    tot
    1  0.004  0.001  0.001  0.006
    2  0.001  0.001  0.006  0.008
    3  0.001  0.001  0.006  0.008
    4  0.001  0.001  0.006  0.008
    5  0.021  0.002  0.000  0.023
    6  0.001  0.001  0.006  0.008
    7  0.001  0.001  0.006  0.008
    8  0.001  0.001  0.006  0.008
    9  0.000  0.000  0.003  0.004
   10  0.022  0.003  0.003  0.027
   11  0.022  0.001  0.019  0.042
   12  0.022  0.003  0.003  0.027
   13  0.022  0.001  0.019  0.042
   14  0.022  0.001  0.019  0.042
   15  0.002  0.001  0.025  0.028
   16  0.022  0.003  0.003  0.027
   17  0.002  0.001  0.025  0.028
   18  0.002  0.001  0.025  0.028
   19  0.025  0.002  0.007  0.034
   20  0.008  0.003  0.016  0.027
   21  0.008  0.003  0.016  0.027
   22  0.005  0.000  0.027  0.031
   23  0.008  0.003  0.016  0.027
   24  0.005  0.000  0.027  0.031
   25  0.025  0.002  0.007  0.034
   26  0.025  0.002  0.007  0.034
   27  0.005  0.000  0.027  0.031
   28  0.011  0.001  0.001  0.013
   29  0.000  0.000  0.004  0.005
   30  0.000  0.000  0.004  0.005
   31  0.000  0.000  0.004  0.005
   32  0.000  0.000  0.004  0.005
   33  0.000  0.000  0.004  0.005
   34  0.000  0.000  0.004  0.005
   35  0.003  0.000  0.002  0.006
   36  0.001  0.000  0.000  0.001
   37  0.000  0.000  0.000  0.000
tot    0.295  0.040  0.360  0.695
 
band    14 # energy   -5.87201038 # occ.  2.00000000
 
ion      s      p      d    tot
    1  0.000  0.001  0.003  0.003
    2  0.004  0.001  0.003  0.008
    3  0.000  0.000  0.003  0.004
    4  0.005  0.001  0.003  0.009
    5  0.000  0.000  0.005  0.005
    6  0.008  0.001  0.004  0.013
    7  0.000  0.000  0.004  0.004
    8  0.007  0.001  0.004  0.013
    9  0.000  0.001  0.010  0.012
   10  0.000  0.005  0.003  0.007
   11  0.009  0.001  0.011  0.022
   12  0.015  0.001  0.013  0.029
   13  0.009  0.001  0.012  0.022
   14  0.000  0.001  0.028  0.029
   15  0.048  0.001  0.014  0.064
   16  0.016  0.001  0.014  0.031
   17  0.045  0.001  0.015  0.062
   18  0.000  0.001  0.039  0.040
   19  0.029  0.002  0.010  0.041
   20  0.000  0.003  0.011  0.013
   21  0.000  0.001  0.015  0.016
   22  0.028  0.002  0.013  0.042
   23  0.000  0.001  0.015  0.016
   24  0.000  0.004  0.018  0.022
   25  0.000  0.000  0.036  0.037
   26  0.027  0.002  0.012  0.041
   27  0.030  0.001  0.013  0.044
   28  0.000  0.000  0.006  0.007
   29  0.004  0.001  0.002  0.007
   30  0.003  0.000  0.002  0.006
   31  0.004  0.001  0.002  0.007
   32  0.000  0.000  0.002  0.002
   33  0.002  0.000  0.002  0.005
   34  0.000  0.000  0.002  0.002
   35  0.000  0.001  0.004  0.005
   36  0.000  0.000  0.001  0.001
   37  0.000  0.000  0.000  0.000
tot    0.296  0.041  0.356  0.693
 
band    15 # energy   -5.87200040 # occ.  2.00000000
 
ion      s      p      d    tot
    1  0.000  0.001  0.003  0.003
    2  0.004  0.001  0.004  0.009
    3  0.008  0.001  0.004  0.013
    4  0.003  0.001  0.004  0.008
    5  0.000  0.000  0.005  0.005
    6  0.001  0.000  0.003  0.004
    7  0.008  0.001  0.004  0.013
    8  0.001  0.000  0.003  0.005
    9  0.000  0.001  0.010  0.012
   10  0.020  0.000  0.017  0.037
   11  0.003  0.001  0.023  0.027
   12  0.006  0.003  0.007  0.016
   13  0.003  0.001  0.022  0.027
   14  0.012  0.001  0.006  0.020
   15  0.014  0.001  0.032  0.047
   16  0.005  0.004  0.006  0.014
   17  0.017  0.001  0.030  0.049
   18  0.063  0.002  0.006  0.070
   19  0.008  0.001  0.029  0.038
   20  0.000  0.001  0.016  0.017
   21  0.000  0.002  0.012  0.014
   22  0.011  0.003  0.016  0.030
   23  0.000  0.002  0.012  0.014
   24  0.039  0.001  0.011  0.050
   25  0.038  0.002  0.003  0.043
   26  0.010  0.001  0.027  0.038
   27  0.009  0.003  0.016  0.028
   28  0.000  0.000  0.006  0.007
   29  0.000  0.000  0.002  0.002
   30  0.002  0.000  0.002  0.004
   31  0.000  0.000  0.002  0.003
   32  0.004  0.001  0.003  0.008
   33  0.002  0.000  0.002  0.005
   34  0.005  0.001  0.003  0.008
   35  0.000  0.001  0.004  0.005
   36  0.000  0.000  0.001  0.001
   37  0.000  0.000  0.000  0.000
tot    0.296  0.041  0.356  0.693
 
band    16 # energy   -5.48932156 # occ.  2.00000000
 
ion      s      p      d    tot
    1  0.000  0.001  0.004  0.005
    2  0.001  0.001  0.005  0.006
    3  0.009  0.001  0.004  0.014
    4  0.001  0.001  0.005  0.006
    5  0.000  0.001  0.009  0.011
    6  0.004  0.001  0.003  0.008
    7  0.009  0.001  0.004  0.014
    8  0.004  0.001  0.003  0.008
    9  0.000  0.000  0.007  0.007
   10  0.000  0.001  0.051  0.051
   11  0.018  0.001  0.020  0.039
   12  0.008  0.001  0.018  0.028
   13  0.018  0.001  0.020  0.039
   14  0.000  0.000  0.046  0.046
   15  0.001  0.000  0.018  0.020
   16  0.008  0.001  0.018  0.028
   17  0.001  0.000  0.018  0.020
   18  0.000  0.001  0.011  0.013
   19  0.003  0.000  0.018  0.021
   20  0.000  0.000  0.091  0.091
   21  0.014  0.001  0.028  0.043
   22  0.004  0.001  0.019  0.023
   23  0.014  0.001  0.028  0.043
   24  0.000  0.001  0.031  0.031
   25  0.000  0.001  0.010  0.011
   26  0.003  0.000  0.018  0.021
   27  0.004  0.001  0.019  0.023
   28  0.000  0.000  0.008  0.008
   29  0.004  0.001  0.005  0.010
   30  0.008  0.001  0.006  0.015
   31  0.004  0.001  0.005  0.010
   32  0.001  0.000  0.004  0.005
   33  0.008  0.001  0.006  0.015
   34  0.001  0.000  0.004  0.005
   35  0.000  0.000  0.002  0.002
   36  0.000  0.001  0.007  0.008
   37  0.000  0.001  0.000  0.001
tot    0.148  0.028  0.573  0.749
 
band    17 # energy   -5.48928655 # occ.  2.00000000
 
ion      s      p      d    tot
    1  0.000  0.001  0.004  0.005
    2  0.008  0.001  0.004  0.013
    3  0.000  0.000  0.004  0.005
    4  0.008  0.001  0.004  0.013
    5  0.000  0.001  0.009  0.011
    6  0.005  0.001  0.005  0.011
    7  0.000  0.000  0.004  0.005
    8  0.005  0.001  0.005  0.011
    9  0.000  0.000  0.007  0.007
   10  0.011  0.002  0.007  0.020
   11  0.006  0.000  0.037  0.044
   12  0.003  0.001  0.040  0.043
   13  0.006  0.000  0.037  0.044
   14  0.024  0.001  0.011  0.036
   15  0.000  0.001  0.014  0.015
   16  0.003  0.001  0.040  0.043
   17  0.000  0.001  0.014  0.015
   18  0.002  0.000  0.021  0.023
   19  0.001  0.001  0.013  0.014
   20  0.018  0.001  0.007  0.027
   21  0.005  0.000  0.070  0.075
   22  0.001  0.001  0.027  0.029
   23  0.005  0.000  0.070  0.075
   24  0.005  0.001  0.015  0.021
   25  0.004  0.000  0.020  0.024
   26  0.001  0.001  0.013  0.014
   27  0.001  0.001  0.027  0.029
   28  0.000  0.000  0.008  0.008
   29  0.004  0.001  0.005  0.010
   30  0.000  0.000  0.004  0.005
   31  0.004  0.001  0.005  0.010
   32  0.008  0.001  0.006  0.015
   33  0.000  0.000  0.004  0.005
   34  0.008  0.001  0.006  0.015
   35  0.000  0.000  0.002  0.002
   36  0.000  0.001  0.007  0.008
   37  0.000  0.001  0.000  0.001
tot    0.148  0.028  0.573  0.749
 
band    18 # energy   -5.47270176 # occ.  2.00000000
 
ion      s      p      d    tot
    1  0.013  0.002  0.003  0.017
    2  0.000  0.001  0.007  0.008
    3  0.000  0.001  0.007  0.008
    4  0.000  0.001  0.007  0.008
    5  0.000  0.000  0.002  0.002
    6  0.000  0.001  0.007  0.008
    7  0.000  0.001  0.007  0.008
    8  0.000  0.001  0.007  0.008
    9  0.016  0.001  0.000  0.017
   10  0.011  0.001  0.016  0.028
   11  0.002  0.000  0.047  0.049
   12  0.011  0.001  0.016  0.028
   13  0.002  0.000  0.047  0.049
   14  0.002  0.000  0.047  0.049
   15  0.005  0.001  0.017  0.023
   16  0.011  0.001  0.016  0.028
   17  0.005  0.001  0.017  0.023
   18  0.005  0.001  0.017  0.023
   19  0.002  0.001  0.013  0.016
   20  0.001  0.000  0.057  0.058
   21  0.001  0.000  0.057  0.058
   22  0.010  0.001  0.017  0.029
   23  0.001  0.000  0.057  0.058
   24  0.010  0.001  0.017  0.029
   25  0.002  0.001  0.013  0.016
   26  0.002  0.001  0.013  0.016
   27  0.010  0.001  0.017  0.029
   28  0.013  0.001  0.000  0.014
   29  0.000  0.000  0.006  0.007
   30  0.000  0.000  0.006  0.007
   31  0.000  0.000  0.006  0.007
   32  0.000  0.000  0.006  0.007
   33  0.000  0.000  0.006  0.007
   34  0.000  0.000  0.006  0.007
   35  0.004  0.001  0.003  0.009
   36  0.000  0.000  0.002  0.002
   37  0.000  0.001  0.000  0.001
tot    0.141  0.026  0.593  0.760
 
band    19 # energy   -5.41584243 # occ.  2.00000000
 
ion      s      p      d    tot
    1  0.007  0.000  0.001  0.008
    2  0.000  0.001  0.008  0.008
    3  0.000  0.001  0.008  0.008
    4  0.000  0.001  0.008  0.008
    5  0.016  0.002  0.000  0.018
    6  0.000  0.001  0.008  0.008
    7  0.000  0.001  0.008  0.008
    8  0.000  0.001  0.008  0.008
    9  0.003  0.001  0.002  0.005
   10  0.000  0.000  0.040  0.041
   11  0.007  0.002  0.005  0.014
   12  0.000  0.000  0.040  0.041
   13  0.007  0.002  0.005  0.014
   14  0.007  0.002  0.005  0.014
   15  0.008  0.001  0.027  0.036
   16  0.000  0.000  0.040  0.041
   17  0.008  0.001  0.027  0.036
   18  0.008  0.001  0.027  0.036
   19  0.013  0.001  0.033  0.047
   20  0.007  0.002  0.015  0.024
   21  0.007  0.002  0.015  0.024
   22  0.000  0.000  0.039  0.039
   23  0.007  0.002  0.015  0.024
   24  0.000  0.000  0.039  0.039
   25  0.013  0.001  0.033  0.047
   26  0.013  0.001  0.033  0.047
   27  0.000  0.000  0.039  0.039
   28  0.002  0.001  0.006  0.009
   29  0.000  0.000  0.006  0.007
   30  0.000  0.000  0.006  0.007
   31  0.000  0.000  0.006  0.007
   32  0.000  0.000  0.006  0.007
   33  0.000  0.000  0.006  0.007
   34  0.000  0.000  0.006  0.007
   35  0.001  0.000  0.000  0.001
   36  0.008  0.001  0.001  0.011
   37  0.001  0.004  0.000  0.005
tot    0.147  0.034  0.569  0.751
 
band    20 # energy   -5.39549440 # occ.  2.00000000
 
ion      s      p      d    tot
    1  0.000  0.001  0.013  0.014
    2  0.009  0.001  0.004  0.014
    3  0.001  0.000  0.005  0.006
    4  0.009  0.001  0.004  0.014
    5  0.000  0.000  0.005  0.006
    6  0.004  0.001  0.005  0.010
    7  0.001  0.000  0.005  0.006
    8  0.004  0.001  0.005  0.010
    9  0.000  0.001  0.006  0.007
   10  0.000  0.001  0.031  0.031
   11  0.000  0.001  0.020  0.021
   12  0.009  0.000  0.021  0.030
   13  0.000  0.001  0.020  0.021
   14  0.000  0.001  0.017  0.018
   15  0.010  0.002  0.020  0.032
   16  0.009  0.000  0.021  0.030
   17  0.011  0.002  0.019  0.031
   18  0.000  0.000  0.061  0.061
   19  0.014  0.001  0.020  0.034
   20  0.000  0.002  0.023  0.024
   21  0.000  0.001  0.026  0.027
   22  0.016  0.001  0.020  0.037
   23  0.000  0.001  0.026  0.027
   24  0.000  0.001  0.030  0.031
   25  0.000  0.000  0.066  0.066
   26  0.014  0.001  0.019  0.034
   27  0.016  0.001  0.020  0.037
   28  0.000  0.001  0.005  0.006
   29  0.006  0.001  0.004  0.010
   30  0.000  0.000  0.006  0.006
   31  0.006  0.001  0.004  0.010
   32  0.005  0.001  0.003  0.009
   33  0.000  0.000  0.006  0.006
   34  0.005  0.001  0.003  0.009
   35  0.000  0.001  0.009  0.010
   36  0.000  0.000  0.002  0.002
   37  0.000  0.000  0.000  0.000
tot    0.149  0.029  0.571  0.749
 
band    21 # energy   -5.39548865 # occ.  2.00000000
 
ion      s      p      d    tot
    1  0.000  0.001  0.013  0.014
    2  0.000  0.001  0.005  0.006
    3  0.009  0.001  0.004  0.014
    4  0.000  0.001  0.005  0.006
    5  0.000  0.000  0.005  0.006
    6  0.005  0.001  0.004  0.010
    7  0.008  0.001  0.004  0.014
    8  0.005  0.001  0.004  0.010
    9  0.000  0.001  0.006  0.007
   10  0.012  0.000  0.018  0.030
   11  0.000  0.001  0.018  0.019
   12  0.003  0.001  0.027  0.031
   13  0.000  0.001  0.018  0.019
   14  0.000  0.001  0.021  0.022
   15  0.004  0.001  0.047  0.051
   16  0.003  0.001  0.027  0.031
   17  0.003  0.001  0.047  0.051
   18  0.014  0.002  0.006  0.022
   19  0.005  0.001  0.050  0.056
   20  0.000  0.000  0.027  0.028
   21  0.000  0.001  0.024  0.025
   22  0.005  0.001  0.027  0.033
   23  0.000  0.001  0.024  0.025
   24  0.021  0.001  0.017  0.039
   25  0.018  0.001  0.004  0.023
   26  0.004  0.001  0.051  0.056
   27  0.005  0.001  0.027  0.033
   28  0.000  0.001  0.005  0.006
   29  0.002  0.000  0.005  0.007
   30  0.007  0.001  0.003  0.011
   31  0.002  0.000  0.005  0.007
   32  0.002  0.001  0.005  0.008
   33  0.007  0.001  0.003  0.011
   34  0.002  0.001  0.005  0.008
   35  0.000  0.001  0.009  0.010
   36  0.000  0.000  0.002  0.002