PROCAR new format
# of k-points:   10         # of bands:  252         # of ions:   37

 k-point     1 :    0.00000000 0.00000000 0.00000000     weight = 0.01562500

band     1 # energy  -17.31417098 # occ.  2.00000000
 
ion      s      p      d    tot
    1  0.000  0.000  0.000  0.000
    2  0.000  0.000  0.000  0.000
    3  0.000  0.000  0.000  0.000
    4  0.000  0.000  0.000  0.000
    5  0.000  0.000  0.000  0.000
    6  0.000  0.000  0.000  0.000
    7  0.000  0.000  0.000  0.000
    8  0.000  0.000  0.000  0.000
    9  0.000  0.000  0.000  0.000
   10  0.000  0.000  0.000  0.000
   11  0.000  0.000  0.000  0.000
   12  0.000  0.000  0.000  0.000
   13  0.000  0.000  0.000  0.000
   14  0.000  0.000  0.000  0.000
   15  0.000  0.000  0.000  0.000
   16  0.000  0.000  0.000  0.000
   17  0.000  0.000  0.000  0.000
   18  0.000  0.000  0.000  0.000
   19  0.000  0.000  0.000  0.000
   20  0.000  0.000  0.000  0.000
   21  0.000  0.000  0.000  0.000
   22  0.000  0.000  0.000  0.000
   23  0.000  0.000  0.000  0.000
   24  0.000  0.000  0.000  0.000
   25  0.000  0.000  0.000  0.000
   26  0.000  0.000  0.000  0.000
   27  0.000  0.000  0.000  0.000
   28  0.000  0.000  0.000  0.000
   29  0.000  0.000  0.000  0.000
   30  0.000  0.000  0.000  0.000
   31  0.000  0.000  0.000  0.000
   32  0.000  0.000  0.000  0.000
   33  0.000  0.000  0.000  0.000
   34  0.000  0.000  0.000  0.000
   35  0.000  0.000  0.000  0.000
   36  0.056  0.086  0.113  0.255
   37  0.783  0.009  0.000  0.791
tot    0.839  0.095  0.114  1.047
 
band     2 # energy   -6.35221148 # occ.  2.00000000
 
ion      s      p      d    tot
    1  0.006  0.001  0.000  0.006
    2  0.006  0.001  0.000  0.006
    3  0.006  0.001  0.000  0.006
    4  0.006  0.001  0.000  0.006
    5  0.006  0.001  0.000  0.006
    6  0.006  0.001  0.000  0.006
    7  0.006  0.001  0.000  0.006
    8  0.006  0.001  0.000  0.006
    9  0.006  0.001  0.000  0.006
   10  0.023  0.000  0.000  0.024
   11  0.023  0.000  0.000  0.024
   12  0.023  0.000  0.000  0.024
   13  0.023  0.000  0.000  0.024
   14  0.023  0.000  0.000  0.024
   15  0.022  0.000  0.000  0.023
   16  0.023  0.000  0.000  0.024
   17  0.022  0.000  0.000  0.023
   18  0.022  0.000  0.000  0.023
   19  0.023  0.000  0.001  0.023
   20  0.026  0.000  0.001  0.027
   21  0.026  0.000  0.001  0.027
   22  0.023  0.000  0.000  0.023
   23  0.026  0.000  0.001  0.027
   24  0.023  0.000  0.000  0.023
   25  0.023  0.000  0.001  0.023
   26  0.023  0.000  0.001  0.023
   27  0.023  0.000  0.000  0.023
   28  0.005  0.001  0.000  0.006
   29  0.005  0.001  0.000  0.006
   30  0.005  0.001  0.000  0.006
   31  0.005  0.001  0.000  0.006
   32  0.005  0.001  0.000  0.006
   33  0.005  0.001  0.000  0.006
   34  0.005  0.001  0.000  0.006
   35  0.005  0.001  0.000  0.006
   36  0.008  0.002  0.000  0.009
   37  0.000  0.001  0.000  0.001
tot    0.525  0.014  0.007  0.546
 
band     3 # energy   -5.48686630 # occ.  2.00000000
 
ion      s      p      d    tot
    1  0.007  0.000  0.000  0.008
    2  0.008  0.000  0.000  0.008
    3  0.008  0.000  0.000  0.008
    4  0.008  0.000  0.000  0.008
    5  0.008  0.000  0.000  0.009
    6  0.008  0.000  0.000  0.008
    7  0.008  0.000  0.000  0.008
    8  0.008  0.000  0.000  0.008
    9  0.008  0.000  0.000  0.009
   10  0.011  0.001  0.017  0.029
   11  0.011  0.001  0.015  0.027
   12  0.011  0.001  0.017  0.029
   13  0.011  0.001  0.015  0.027
   14  0.011  0.001  0.015  0.027
   15  0.011  0.001  0.013  0.025
   16  0.011  0.001  0.017  0.029
   17  0.011  0.001  0.013  0.025
   18  0.011  0.001  0.013  0.025
   19  0.011  0.001  0.018  0.029
   20  0.014  0.001  0.025  0.041
   21  0.014  0.001  0.025  0.041
   22  0.010  0.001  0.015  0.026
   23  0.014  0.001  0.025  0.041
   24  0.010  0.001  0.016  0.026
   25  0.011  0.001  0.018  0.029
   26  0.011  0.001  0.018  0.029
   27  0.010  0.001  0.015  0.026
   28  0.006  0.000  0.000  0.006
   29  0.005  0.000  0.000  0.006
   30  0.005  0.000  0.000  0.006
   31  0.005  0.000  0.000  0.006
   32  0.005  0.000  0.000  0.006
   33  0.005  0.000  0.000  0.006
   34  0.005  0.000  0.000  0.006
   35  0.005  0.000  0.000  0.005
   36  0.008  0.001  0.000  0.009
   37  0.001  0.001  0.000  0.002
tot    0.327  0.026  0.315  0.668
 
band     4 # energy   -5.18595923 # occ.  2.00000000
 
ion      s      p      d    tot
    1  0.013  0.000  0.025  0.038
    2  0.014  0.000  0.021  0.035
    3  0.014  0.000  0.021  0.035
    4  0.014  0.000  0.021  0.035
    5  0.014  0.000  0.020  0.035
    6  0.014  0.000  0.021  0.035
    7  0.014  0.000  0.021  0.035
    8  0.014  0.000  0.021  0.035
    9  0.016  0.000  0.019  0.035
   10  0.000  0.000  0.019  0.020
   11  0.000  0.001  0.020  0.020
   12  0.000  0.000  0.019  0.020
   13  0.000  0.001  0.020  0.020
   14  0.000  0.001  0.019  0.020
   15  0.000  0.000  0.016  0.017
   16  0.000  0.000  0.019  0.020
   17  0.000  0.000  0.016  0.017
   18  0.000  0.000  0.016  0.017
   19  0.000  0.000  0.008  0.009
   20  0.000  0.000  0.018  0.018
   21  0.000  0.000  0.018  0.018
   22  0.000  0.000  0.011  0.011
   23  0.000  0.000  0.018  0.018
   24  0.000  0.000  0.011  0.011
   25  0.000  0.000  0.008  0.009
   26  0.000  0.000  0.008  0.009
   27  0.000  0.000  0.011  0.011
   28  0.008  0.000  0.010  0.017
   29  0.008  0.000  0.010  0.018
   30  0.008  0.000  0.010  0.018
   31  0.008  0.000  0.010  0.018
   32  0.008  0.000  0.010  0.018
   33  0.008  0.000  0.010  0.018
   34  0.008  0.000  0.010  0.018
   35  0.008  0.000  0.011  0.019
   36  0.008  0.000  0.003  0.011
   37  0.000  0.000  0.000  0.000
tot    0.204  0.007  0.548  0.759
 
band     5 # energy   -5.14577246 # occ.  2.00000000
 
ion      s      p      d    tot
    1  0.006  0.001  0.001  0.007
    2  0.000  0.000  0.004  0.004
    3  0.000  0.000  0.004  0.004
    4  0.000  0.000  0.004  0.004
    5  0.001  0.000  0.000  0.001
    6  0.000  0.000  0.004  0.004
    7  0.000  0.000  0.004  0.004
    8  0.000  0.000  0.004  0.004
    9  0.000  0.000  0.000  0.001
   10  0.005  0.000  0.023  0.027
   11  0.000  0.000  0.015  0.016
   12  0.005  0.000  0.022  0.027
   13  0.000  0.000  0.015  0.016
   14  0.000  0.000  0.015  0.016
   15  0.004  0.001  0.004  0.008
   16  0.005  0.000  0.022  0.027
   17  0.004  0.001  0.004  0.008
   18  0.004  0.001  0.004  0.008
   19  0.000  0.001  0.037  0.038
   20  0.006  0.000  0.121  0.128
   21  0.006  0.000  0.121  0.128
   22  0.017  0.001  0.007  0.024
   23  0.006  0.000  0.121  0.128
   24  0.017  0.001  0.007  0.024
   25  0.000  0.001  0.037  0.038
   26  0.000  0.001  0.037  0.038
   27  0.017  0.001  0.007  0.024
   28  0.000  0.000  0.001  0.001
   29  0.000  0.000  0.004  0.004
   30  0.000  0.000  0.004  0.004
   31  0.000  0.000  0.004  0.004
   32  0.000  0.000  0.004  0.004
   33  0.000  0.000  0.004  0.004
   34  0.000  0.000  0.004  0.004
   35  0.006  0.001  0.002  0.009
   36  0.009  0.003  0.014  0.025
   37  0.001  0.008  0.000  0.009
tot    0.119  0.023  0.685  0.826
 
band     6 # energy   -5.09483646 # occ.  2.00000000
 
ion      s      p      d    tot
    1  0.000  0.000  0.008  0.008
    2  0.001  0.000  0.002  0.003
    3  0.001  0.000  0.002  0.003
    4  0.001  0.000  0.002  0.003
    5  0.000  0.000  0.004  0.004
    6  0.000  0.000  0.002  0.002
    7  0.001  0.000  0.002  0.003
    8  0.000  0.000  0.002  0.002
    9  0.000  0.000  0.001  0.001
   10  0.000  0.001  0.019  0.020
   11  0.001  0.000  0.024  0.025
   12  0.007  0.001  0.016  0.024
   13  0.001  0.000  0.024  0.025
   14  0.000  0.001  0.021  0.021
   15  0.003  0.000  0.010  0.014
   16  0.007  0.001  0.016  0.024
   17  0.003  0.000  0.010  0.014
   18  0.000  0.000  0.016  0.016
   19  0.017  0.001  0.036  0.054
   20  0.000  0.000  0.173  0.173
   21  0.018  0.000  0.050  0.068
   22  0.000  0.001  0.036  0.037
   23  0.018  0.000  0.046  0.065
   24  0.000  0.001  0.041  0.043
   25  0.000  0.001  0.027  0.029
   26  0.017  0.001  0.035  0.053
   27  0.000  0.001  0.036  0.036
   28  0.000  0.000  0.005  0.005
   29  0.000  0.000  0.007  0.008
   30  0.000  0.000  0.003  0.003
   31  0.000  0.000  0.007  0.008
   32  0.001  0.001  0.006  0.007
   33  0.000  0.000  0.003  0.003
   34  0.001  0.001  0.005  0.007
   35  0.000  0.000  0.000  0.000
   36  0.000  0.001  0.004  0.005
   37  0.000  0.001  0.000  0.001
tot    0.099  0.014  0.706  0.819
 
band     7 # energy   -5.09480687 # occ.  2.00000000
 
ion      s      p      d    tot
    1  0.000  0.000  0.008  0.008
    2  0.000  0.000  0.002  0.003
    3  0.000  0.000  0.002  0.002
    4  0.000  0.000  0.002  0.003
    5  0.000  0.000  0.004  0.004
    6  0.001  0.000  0.002  0.003
    7  0.000  0.000  0.002  0.002
    8  0.001  0.000  0.002  0.003
    9  0.000  0.000  0.001  0.001
   10  0.009  0.001  0.015  0.025
   11  0.000  0.001  0.022  0.023
   12  0.002  0.001  0.018  0.021
   13  0.000  0.001  0.022  0.023
   14  0.001  0.000  0.025  0.027
   15  0.001  0.000  0.014  0.015
   16  0.002  0.001  0.018  0.021
   17  0.001  0.000  0.014  0.015
   18  0.004  0.001  0.008  0.013
   19  0.005  0.001  0.030  0.036
   20  0.024  0.000  0.007  0.031
   21  0.006  0.000  0.130  0.136
   22  0.000  0.001  0.040  0.041
   23  0.006  0.000  0.133  0.139
   24  0.000  0.000  0.034  0.034
   25  0.023  0.000  0.038  0.061
   26  0.006  0.001  0.030  0.037
   27  0.000  0.001  0.040  0.041
   28  0.000  0.000  0.005  0.005
   29  0.001  0.000  0.003  0.004
   30  0.001  0.001  0.008  0.009
   31  0.001  0.000  0.003  0.004
   32  0.000  0.000  0.005  0.005
   33  0.001  0.001  0.008  0.009
   34  0.000  0.000  0.005  0.005
   35  0.000  0.000  0.000  0.000
   36  0.000  0.001  0.004  0.005
   37  0.000  0.001  0.000  0.001
tot    0.099  0.014  0.706  0.819
 
band     8 # energy   -5.06931040 # occ.  2.00000000
 
ion      s      p      d    tot
    1  0.000  0.000  0.002  0.002
    2  0.000  0.000  0.002  0.002
    3  0.001  0.000  0.005  0.007
    4  0.000  0.000  0.002  0.002
    5  0.000  0.000  0.009  0.009
    6  0.001  0.000  0.004  0.006
    7  0.001  0.000  0.005  0.007
    8  0.001  0.000  0.004  0.006
    9  0.000  0.000  0.003  0.003
   10  0.003  0.001  0.018  0.022
   11  0.007  0.001  0.063  0.071
   12  0.001  0.000  0.057  0.058
   13  0.007  0.001  0.063  0.071
   14  0.028  0.001  0.010  0.039
   15  0.003  0.001  0.014  0.018
   16  0.001  0.000  0.057  0.058
   17  0.003  0.001  0.014  0.018
   18  0.011  0.000  0.035  0.046
   19  0.001  0.000  0.038  0.038
   20  0.011  0.000  0.041  0.052
   21  0.003  0.001  0.026  0.030
   22  0.005  0.000  0.040  0.045
   23  0.003  0.001  0.026  0.030
   24  0.020  0.001  0.008  0.029
   25  0.002  0.000  0.014  0.016
   26  0.001  0.000  0.038  0.039
   27  0.005  0.000  0.039  0.045
   28  0.000  0.000  0.001  0.001
   29  0.002  0.000  0.004  0.006
   30  0.000  0.000  0.003  0.003
   31  0.002  0.000  0.004  0.006
   32  0.001  0.000  0.002  0.003
   33  0.000  0.000  0.003  0.003
   34  0.001  0.000  0.002  0.003
   35  0.000  0.000  0.007  0.007
   36  0.000  0.000  0.001  0.001
   37  0.000  0.000  0.000  0.000
tot    0.123  0.017  0.665  0.804
 
band     9 # energy   -5.06930242 # occ.  2.00000000
 
ion      s      p      d    tot
    1  0.000  0.000  0.002  0.002
    2  0.002  0.001  0.006  0.008
    3  0.000  0.000  0.003  0.003
    4  0.002  0.001  0.006  0.008
    5  0.000  0.000  0.009  0.009
    6  0.000  0.000  0.004  0.004
    7  0.000  0.000  0.003  0.003
    8  0.001  0.000  0.004  0.004
    9  0.000  0.000  0.003  0.003
   10  0.000  0.000  0.070  0.070
   11  0.022  0.001  0.027  0.050
   12  0.003  0.000  0.031  0.034
   13  0.022  0.001  0.027  0.050
   14  0.000  0.000  0.081  0.081
   15  0.008  0.001  0.028  0.036
   16  0.003  0.000  0.031  0.034
   17  0.008  0.001  0.028  0.036
   18  0.000  0.002  0.008  0.010
   19  0.002  0.000  0.022  0.024
   20  0.000  0.001  0.021  0.022
   21  0.008  0.001  0.036  0.045
   22  0.015  0.001  0.018  0.034
   23  0.008  0.001  0.036  0.045
   24  0.000  0.000  0.050  0.050
   25  0.000  0.000  0.045  0.046
   26  0.002  0.000  0.022  0.024
   27  0.015  0.001  0.019  0.034
   28  0.000  0.000  0.001  0.001
   29  0.000  0.000  0.002  0.002
   30  0.001  0.000  0.003  0.005
   31  0.000  0.000  0.002  0.002
   32  0.001  0.000  0.004  0.005
   33  0.001  0.000  0.003  0.005
   34  0.001  0.000  0.004  0.005
   35  0.000  0.000  0.007  0.007
   36  0.000  0.000  0.001  0.001
   37  0.000  0.000  0.000  0.000
tot    0.123  0.017  0.665  0.804
 
band    10 # energy   -5.06812353 # occ.  2.00000000
 
ion      s      p      d    tot
    1  0.001  0.001  0.001  0.003
    2  0.000  0.000  0.005  0.005
    3  0.000  0.000  0.005  0.005
    4  0.000  0.000  0.005  0.005
    5  0.002  0.001  0.006  0.009
    6  0.000  0.000  0.005  0.005
    7  0.000  0.000  0.005  0.005
    8  0.000  0.000  0.005  0.005
    9  0.000  0.000  0.002  0.002
   10  0.009  0.001  0.004  0.014
   11  0.012  0.001  0.060  0.073
   12  0.009  0.001  0.004  0.014
   13  0.012  0.001  0.060  0.073
   14  0.013  0.001  0.059  0.072
   15  0.000  0.000  0.046  0.046
   16  0.009  0.001  0.004  0.014
   17  0.000  0.000  0.046  0.046
   18  0.000  0.000  0.045  0.045
   19  0.008  0.001  0.032  0.041
   20  0.005  0.001  0.029  0.035
   21  0.005  0.001  0.029  0.035
   22  0.000  0.000  0.035  0.035
   23  0.005  0.001  0.029  0.035
   24  0.000  0.000  0.034  0.035
   25  0.008  0.001  0.032  0.041
   26  0.008  0.001  0.032  0.041
   27  0.000  0.000  0.035  0.035
   28  0.002  0.000  0.003  0.006
   29  0.000  0.000  0.004  0.004
   30  0.000  0.000  0.004  0.004
   31  0.000  0.000  0.004  0.004
   32  0.000  0.000  0.004  0.004
   33  0.000  0.000  0.004  0.004
   34  0.000  0.000  0.004  0.004
   35  0.001  0.000  0.002  0.003
   36  0.000  0.000  0.000  0.000
   37  0.000  0.000  0.000  0.000
tot    0.112  0.016  0.679  0.807
 
band    11 # energy   -5.05636216 # occ.  2.00000000
 
ion      s      p      d    tot
    1  0.001  0.001  0.008  0.010
    2  0.000  0.000  0.007  0.007
    3  0.000  0.000  0.007  0.007
    4  0.000  0.000  0.007  0.007
    5  0.002  0.000  0.003  0.006
    6  0.000  0.000  0.007  0.007
    7  0.000  0.000  0.007  0.007
    8  0.000  0.000  0.007  0.007
    9  0.006  0.001  0.002  0.009
   10  0.002  0.000  0.050  0.051
   11  0.001  0.000  0.038  0.039
   12  0.002  0.000  0.050  0.052
   13  0.001  0.000  0.038  0.039
   14  0.001  0.000  0.038  0.040
   15  0.007  0.000  0.010  0.017
   16  0.002  0.000  0.050  0.052
   17  0.007  0.000  0.010  0.017
   18  0.007  0.000  0.010  0.017
   19  0.007  0.000  0.011  0.018
   20  0.004  0.000  0.042  0.046
   21  0.004  0.000  0.042  0.046
   22  0.001  0.000  0.045  0.045
   23  0.004  0.000  0.042  0.046
   24  0.001  0.000  0.045  0.045
   25  0.007  0.000  0.011  0.018
   26  0.007  0.000  0.011  0.018
   27  0.001  0.000  0.045  0.045
   28  0.008  0.001  0.001  0.010
   29  0.000  0.000  0.013  0.013
   30  0.000  0.000  0.013  0.013
   31  0.000  0.000  0.013  0.013
   32  0.000  0.000  0.013  0.013
   33  0.000  0.000  0.013  0.013
   34  0.000  0.000  0.013  0.013
   35  0.000  0.000  0.008  0.008
   36  0.008  0.001  0.000  0.009
   37  0.000  0.000  0.000  0.001
tot    0.091  0.011  0.728  0.830
 
band    12 # energy   -5.03151013 # occ.  2.00000000
 
ion      s      p      d    tot
    1  0.000  0.000  0.001  0.002
    2  0.000  0.000  0.008  0.008
    3  0.000  0.000  0.007  0.008
    4  0.000  0.000  0.008  0.008
    5  0.002  0.000  0.000  0.002
    6  0.000  0.000  0.007  0.008
    7  0.000  0.000  0.007  0.008
    8  0.000  0.000  0.007  0.008
    9  0.000  0.000  0.015  0.015
   10  0.000  0.000  0.056  0.056
   11  0.003  0.001  0.001  0.005
   12  0.000  0.000  0.055  0.056
   13  0.003  0.001  0.001  0.005
   14  0.003  0.001  0.001  0.005
   15  0.006  0.000  0.064  0.071
   16  0.000  0.000  0.055  0.056
   17  0.006  0.000  0.064  0.071
   18  0.006  0.000  0.064  0.071
   19  0.002  0.000  0.035  0.037
   20  0.001  0.000  0.023  0.024
   21  0.001  0.000  0.023  0.024
   22  0.000  0.000  0.042  0.042
   23  0.001  0.000  0.023  0.024
   24  0.000  0.000  0.042  0.043
   25  0.002  0.000  0.035  0.037
   26  0.002  0.000  0.035  0.037
   27  0.000  0.000  0.042  0.042
   28  0.000  0.000  0.003  0.003
   29  0.001  0.000  0.008  0.009
   30  0.001  0.000  0.008  0.009
   31  0.001  0.000  0.008  0.009
   32  0.001  0.000  0.008  0.009
   33  0.001  0.000  0.008  0.009
   34  0.001  0.000  0.008  0.009
   35  0.004  0.000  0.006  0.010
   36  0.001  0.000  0.003  0.004
   37  0.000  0.001  0.000  0.001
tot    0.049  0.009  0.789  0.846
 
band    13 # energy   -5.02761235 # occ.  2.00000000
 
ion      s      p      d    tot
    1  0.000  0.001  0.013  0.014
    2  0.002  0.001  0.009  0.012
    3  0.003  0.001  0.005  0.008
    4  0.002  0.001  0.010  0.012
    5  0.000  0.000  0.006  0.006
    6  0.000  0.000  0.009  0.009
    7  0.003  0.001  0.004  0.008
    8  0.000  0.000  0.008  0.009
    9  0.000  0.000  0.008  0.008
   10  0.022  0.000  0.024  0.047
   11  0.000  0.001  0.021  0.021
   12  0.007  0.000  0.054  0.062
   13  0.000  0.001  0.024  0.025
   14  0.000  0.000  0.045  0.046
   15  0.003  0.000  0.098  0.102
   16  0.004  0.000  0.060  0.064
   17  0.005  0.000  0.084  0.089
   18  0.016  0.000  0.005  0.022
   19  0.000  0.000  0.031  0.031
   20  0.001  0.001  0.014  0.016
   21  0.000  0.000  0.021  0.021
   22  0.001  0.000  0.019  0.020
   23  0.000  0.000  0.022  0.022
   24  0.004  0.000  0.019  0.023
   25  0.001  0.001  0.020  0.022
   26  0.000  0.000  0.029  0.029
   27  0.001  0.000  0.019  0.019
   28  0.000  0.000  0.013  0.013
   29  0.002  0.000  0.004  0.006
   30  0.000  0.000  0.004  0.004
   31  0.002  0.000  0.004  0.006
   32  0.003  0.000  0.004  0.008
   33  0.000  0.000  0.004  0.005
   34  0.003  0.000  0.004  0.007
   35  0.000  0.000  0.005  0.005
   36  0.000  0.000  0.001  0.001
   37  0.000  0.000  0.000  0.000
tot    0.088  0.011  0.725  0.825
 
band    14 # energy   -5.02760756 # occ.  2.00000000
 
ion      s      p      d    tot
    1  0.000  0.001  0.013  0.014
    2  0.001  0.000  0.006  0.007
    3  0.000  0.000  0.010  0.011
    4  0.002  0.000  0.005  0.007
    5  0.000  0.000  0.006  0.006
    6  0.003  0.001  0.006  0.010
    7  0.001  0.001  0.011  0.012
    8  0.003  0.001  0.007  0.011
    9  0.000  0.000  0.008  0.009
   10  0.000  0.001  0.068  0.068
   11  0.000  0.000  0.039  0.040
   12  0.015  0.000  0.038  0.054
   13  0.000  0.000  0.036  0.036
   14  0.000  0.001  0.015  0.016
   15  0.013  0.000  0.027  0.040
   16  0.018  0.000  0.033  0.051
   17  0.011  0.000  0.041  0.052
   18  0.000  0.000  0.120  0.120
   19  0.001  0.000  0.023  0.024
   20  0.000  0.000  0.024  0.024
   21  0.001  0.000  0.017  0.018
   22  0.003  0.000  0.019  0.022
   23  0.001  0.000  0.016  0.017
   24  0.000  0.000  0.018  0.018
   25  0.000  0.000  0.033  0.033
   26  0.001  0.000  0.024  0.025
   27  0.003  0.000  0.019  0.023
   28  0.000  0.000  0.013  0.013
   29  0.002  0.000  0.004  0.006
   30  0.003  0.000  0.004  0.008
   31  0.001  0.000  0.004  0.006
   32  0.000  0.000  0.004  0.004
   33  0.003  0.000  0.004  0.008
   34  0.000  0.000  0.004  0.005
   35  0.000  0.000  0.005  0.005
   36  0.000  0.000  0.001  0.001
   37  0.000  0.000  0.000  0.000
tot    0.088  0.011  0.725  0.825
 
band    15 # energy   -5.01592425 # occ.  2.00000000
 
ion      s      p      d    tot
    1  0.000  0.000  0.005  0.006
    2  0.002  0.000  0.006  0.009
    3  0.000  0.000  0.009  0.009
    4  0.002  0.000  0.006  0.009
    5  0.000  0.000  0.008  0.008
    6  0.002  0.000  0.005  0.008
    7  0.000  0.000  0.009  0.009
    8  0.002  0.000  0.005  0.008
    9  0.000  0.000  0.017  0.017
   10  0.001  0.000  0.030  0.031
   11  0.002  0.000  0.054  0.056
   12  0.000  0.000  0.022  0.022
   13  0.002  0.000  0.052  0.054
   14  0.007  0.000  0.007  0.014
   15  0.000  0.000  0.033  0.033
   16  0.000  0.000  0.022  0.022
   17  0.000  0.000  0.033  0.033
   18  0.002  0.000  0.037  0.039
   19  0.002  0.000  0.065  0.067
   20  0.000  0.000  0.053  0.054
   21  0.000  0.000  0.025  0.025
   22  0.003  0.000  0.055  0.058
   23  0.000  0.000  0.024  0.024
   24  0.010  0.000  0.026  0.036
   25  0.007  0.000  0.007  0.014
   26  0.002  0.000  0.063  0.065
   27  0.002  0.000  0.056  0.059
   28  0.000  0.000  0.004  0.004
   29  0.000  0.000  0.008  0.008
   30  0.002  0.000  0.002  0.004
   31  0.000  0.000  0.008  0.008
   32  0.000  0.000  0.008  0.009
   33  0.002  0.000  0.002  0.004
   34  0.001  0.000  0.008  0.009
   35  0.000  0.000  0.011  0.011
   36  0.000  0.000  0.001  0.001
   37  0.000  0.000  0.000  0.000
tot    0.053  0.007  0.787  0.847
 
band    16 # energy   -5.01588441 # occ.  2.00000000
 
ion      s      p      d    tot
    1  0.000  0.000  0.005  0.006
    2  0.001  0.000  0.007  0.008
    3  0.003  0.000  0.005  0.008
    4  0.000  0.000  0.007  0.008
    5  0.000  0.000  0.008  0.008
    6  0.001  0.000  0.008  0.009
    7  0.003  0.000  0.005  0.008
    8  0.001  0.000  0.008  0.009
    9  0.000  0.000  0.017  0.017
   10  0.000  0.000  0.019  0.019
   11  0.005  0.000  0.021  0.027
   12  0.001  0.000  0.027  0.028
   13  0.005  0.000  0.023  0.028
   14  0.000  0.000  0.069  0.069
   15  0.001  0.000  0.036  0.037
   16  0.001  0.000  0.027  0.028
   17  0.001  0.000  0.036  0.037
   18  0.000  0.000  0.031  0.031
   19  0.005  0.000  0.025  0.030
   20  0.000  0.000  0.014  0.015
   21  0.000  0.000  0.043  0.043
   22  0.007  0.000  0.036  0.044
   23  0.000  0.000  0.044  0.044
   24  0.000  0.000  0.066  0.066
   25  0.000  0.000  0.083  0.083
   26  0.005  0.000  0.027  0.032
   27  0.007  0.000  0.035  0.043
   28  0.000  0.000  0.004  0.004
   29  0.001  0.001  0.005  0.006
   30  0.000  0.000  0.010  0.010
   31  0.001  0.000  0.004  0.006
   32  0.001  0.000  0.004  0.005
   33  0.000  0.000  0.010  0.010
   34  0.001  0.000  0.004  0.006
   35  0.000  0.000  0.011  0.011
   36  0.000  0.000  0.001  0.001
   37  0.000  0.000  0.000  0.000
tot    0.053  0.007  0.788  0.847
 
band    17 # energy   -5.01106453 # occ.  2.00000000
 
ion      s      p      d    tot
    1  0.007  0.000  0.015  0.022
    2  0.005  0.000  0.015  0.020
    3  0.005  0.000  0.015  0.020
    4  0.005  0.000  0.015  0.020
    5  0.004  0.000  0.016  0.019
    6  0.005  0.000  0.015  0.020
    7  0.005  0.000  0.015  0.020
    8  0.005  0.000  0.015  0.020
    9  0.004  0.000  0.012  0.016
   10  0.002  0.000  0.012  0.014
   11  0.003  0.000  0.009  0.012
   12  0.002  0.000  0.012  0.014
   13  0.003  0.000  0.009  0.012
   14  0.003  0.000  0.009  0.012
   15  0.001  0.000  0.008  0.009
   16  0.002  0.000  0.012  0.014
   17  0.001  0.000  0.008  0.009
   18  0.001  0.000  0.008  0.009
   19  0.002  0.001  0.015  0.018
   20  0.000  0.001  0.014  0.016
   21  0.000  0.001  0.014  0.016
   22  0.001  0.000  0.018  0.019
   23  0.000  0.001  0.014  0.016
   24  0.001  0.000  0.018  0.019
   25  0.002  0.001  0.015  0.018
   26  0.002  0.001  0.015  0.018
   27  0.001  0.000  0.018  0.019
   28  0.013  0.000  0.032  0.045
   29  0.012  0.000  0.027  0.040
   30  0.012  0.000  0.027  0.040
   31  0.012  0.000  0.027  0.040
   32  0.012  0.000  0.027  0.040
   33  0.012  0.000  0.027  0.040
   34  0.012  0.000  0.027  0.040
   35  0.013  0.000  0.026  0.039
   36  0.011  0.000  0.005  0.016
   37  0.000  0.000  0.000  0.000
tot    0.180  0.008  0.591  0.779
 
band    18 # energy   -4.89874438 # occ.  2.00000000
 
ion      s      p      d    tot
    1  0.000  0.000  0.000  0.000
    2  0.000  0.000  0.004  0.004
    3  0.000  0.000  0.004  0.004
    4  0.000  0.000  0.004  0.004
    5  0.001  0.000  0.016  0.017
    6  0.000  0.000  0.004  0.004
    7  0.000  0.000  0.004  0.004
    8  0.000  0.000  0.004  0.004
    9  0.000  0.000  0.007  0.008
   10  0.000  0.000  0.009  0.009
   11  0.000  0.001  0.081  0.081
   12  0.000  0.000  0.009  0.009
   13  0.000  0.001  0.081  0.081
   14  0.000  0.001  0.080  0.081
   15  0.001  0.001  0.038  0.040
   16  0.000  0.000  0.009  0.009
   17  0.001  0.001  0.038  0.040
   18  0.001  0.001  0.038  0.040
   19  0.000  0.000  0.016  0.017
   20  0.002  0.000  0.068  0.070
   21  0.002  0.000  0.068  0.070
   22  0.003  0.000  0.020  0.024
   23  0.002  0.000  0.068  0.070
   24  0.003  0.000  0.020  0.024
   25  0.000  0.000  0.016  0.017
   26  0.000  0.000  0.016  0.017
   27  0.003  0.000  0.020  0.024
   28  0.005  0.001  0.000  0.006
   29  0.000  0.001  0.012  0.013
   30  0.000  0.001  0.012  0.013
   31  0.000  0.001  0.012  0.013
   32  0.000  0.001  0.012  0.013
   33  0.000  0.001  0.012  0.013
   34  0.000  0.001  0.012  0.013
   35  0.002  0.000  0.001  0.003
   36  0.001  0.001  0.005  0.007
   37  0.000  0.003  0.000  0.003
tot    0.028  0.016  0.824  0.868
 
band    19 # energy   -4.88269448 # occ.  2.00000000
 
ion      s      p      d    tot
    1  0.000  0.000  0.001  0.001
    2  0.000  0.000  0.006  0.007
    3  0.001  0.001  0.005  0.007
    4  0.000  0.000  0.007  0.007
    5  0.000  0.001  0.014  0.015
    6  0.000  0.000  0.008  0.009
    7  0.001  0.001  0.005  0.007
    8  0.000  0.000  0.008  0.009
    9  0.000  0.000  0.009  0.010
   10  0.000  0.000  0.025  0.025
   11  0.001  0.000  0.053  0.055
   12  0.000  0.001  0.023  0.024
   13  0.001  0.000  0.056  0.057
   14  0.000  0.000  0.088  0.088
   15  0.002  0.001  0.027  0.030
   16  0.000  0.001  0.023  0.024
   17  0.002  0.001  0.026  0.028
   18  0.000  0.000  0.009  0.010
   19  0.001  0.001  0.023  0.026
   20  0.000  0.000  0.105  0.105
   21  0.002  0.000  0.072  0.075
   22  0.000  0.001  0.025  0.025
   23  0.003  0.000  0.070  0.073
   24  0.000  0.000  0.033  0.033
   25  0.000  0.000  0.003  0.003
   26  0.001  0.001  0.022  0.024
   27  0.000  0.001  0.024  0.025
   28  0.000  0.000  0.006  0.007
   29  0.001  0.001  0.009  0.010
   30  0.002  0.001  0.006  0.008
   31  0.001  0.001  0.009  0.010
   32  0.000  0.000  0.007  0.007
   33  0.002  0.001  0.006  0.008
   34  0.000  0.000  0.007  0.007
   35  0.000  0.000  0.001  0.001
   36  0.000  0.002  0.006  0.008
   37  0.000  0.001  0.000  0.001
tot    0.024  0.017  0.827  0.867
 
band    20 # energy   -4.88268542 # occ.  2.00000000
 
ion      s      p      d    tot
    1  0.000  0.000  0.001  0.001
    2  0.001  0.001  0.006  0.008
    3  0.000  0.000  0.008  0.008
    4  0.001  0.001  0.006  0.008
    5  0.000  0.001  0.014  0.015
    6  0.001  0.000  0.005  0.006
    7  0.000  0.000  0.008  0.008
    8  0.001  0.000  0.005  0.006
    9  0.000  0.000  0.009  0.010
   10  0.001  0.001  0.022  0.024
   11  0.000  0.000  0.078  0.079
   12  0.000  0.000  0.024  0.025
   13  0.000  0.000  0.076  0.077
   14  0.002  0.000  0.043  0.045
   15  0.001  0.000  0.015  0.015
   16  0.000  0.000  0.024  0.025
   17  0.001  0.000  0.016  0.017
   18  0.002  0.001  0.033  0.036
   19  0.000  0.000  0.009  0.009
   20  0.003  0.000  0.060  0.063
   21  0.001  0.000  0.093  0.094
   22  0.000  0.000  0.030  0.031
   23  0.001  0.000  0.095  0.096
   24  0.000  0.001  0.021  0.022
   25  0.002  0.001  0.029  0.032
   26  0.001  0.000  0.010  0.011
   27  0.000  0.000  0.031  0.031
   28  0.000  0.000  0.006  0.007
   29  0.001  0.000  0.006  0.007
   30  0.000  0.000  0.008  0.009
   31  0.001  0.000  0.006  0.007
   32  0.002  0.001  0.007  0.010
   33  0.000  0.000  0.008  0.009
   34  0.002  0.001  0.008  0.010
   35  0.000  0.000  0.001  0.001
   36  0.000  0.002  0.006  0.008
   37  0.000  0.001  0.000  0.001
tot    0.024  0.017  0.827  0.867
 
band    21 # energy   -4.85951030 # occ.  2.00000000
 
ion      s      p      d    tot
    1  0.000  0.000  0.005  0.005
    2  0.000  0.001  0.012  0.012
    3  0.000  0.001  0.012  0.013
    4  0.000  0.001  0.012  0.012
    5  0.005  0.001  0.000  0.006
    6  0.000  0.001  0.012  0.012
    7  0.000  0.001  0.012  0.013
    8  0.000  0.001  0.012  0.012
    9  0.002  0.000  0.002  0.005
   10  0.002  0.001  0.050  0.053
   11  0.000  0.000  0.024  0.025
   12  0.002  0.001  0.050  0.053
   13  0.000  0.000  0.024  0.025
   14  0.000  0.000  0.024  0.025
   15  0.003  0.000  0.022  0.025
   16  0.002  0.001  0.050  0.053
   17  0.003  0.000  0.022  0.025
   18  0.003  0.000  0.022  0.025
   19  0.001  0.000  0.058  0.059
   20  0.001  0.000  0.016  0.017
   21  0.001  0.000  0.016  0.017
   22  0.000  0.001  0.042  0.043
   23  0.001  0.000  0.016  0.017
   24  0.000  0.001  0.042  0.044
   25  0.001  0.000  0.058  0.059
   26  0.001  0.000  0.058  0.059
   27  0.000  0.001  0.042  0.043
   28  0.000  0.000  0.016  0.017
   29  0.000  0.000  0.011  0.011
   30  0.000  0.000  0.011  0.011
   31  0.000  0.000  0.011  0.011
   32  0.000  0.000  0.011  0.011
   33  0.000  0.000  0.011  0.011
   34  0.000  0.000  0.011  0.011
   35  0.004  0.001  0.003  0.007
   36  0.003  0.001  0.000  0.004