PROCAR new format
# of k-points:   10         # of bands:  252         # of ions:   37

 k-point     1 :    0.00000000 0.00000000 0.00000000     weight = 0.01562500

band     1 # energy   -9.50140431 # occ.  2.00000000
 
ion      s      p      d    tot
    1  0.006  0.001  0.000  0.007
    2  0.006  0.001  0.000  0.007
    3  0.006  0.001  0.000  0.007
    4  0.006  0.001  0.000  0.007
    5  0.006  0.001  0.000  0.007
    6  0.006  0.001  0.000  0.007
    7  0.006  0.001  0.000  0.007
    8  0.006  0.001  0.000  0.007
    9  0.006  0.001  0.000  0.007
   10  0.024  0.000  0.000  0.024
   11  0.024  0.000  0.000  0.024
   12  0.024  0.000  0.000  0.024
   13  0.024  0.000  0.000  0.024
   14  0.024  0.000  0.000  0.024
   15  0.024  0.000  0.000  0.024
   16  0.024  0.000  0.000  0.024
   17  0.024  0.000  0.000  0.024
   18  0.024  0.000  0.000  0.024
   19  0.025  0.000  0.000  0.025
   20  0.024  0.000  0.000  0.024
   21  0.024  0.000  0.000  0.024
   22  0.024  0.000  0.000  0.024
   23  0.024  0.000  0.000  0.024
   24  0.024  0.000  0.000  0.024
   25  0.025  0.000  0.000  0.025
   26  0.025  0.000  0.000  0.025
   27  0.024  0.000  0.000  0.024
   28  0.007  0.001  0.000  0.008
   29  0.007  0.001  0.000  0.008
   30  0.007  0.001  0.000  0.008
   31  0.007  0.001  0.000  0.008
   32  0.007  0.001  0.000  0.008
   33  0.007  0.001  0.000  0.008
   34  0.007  0.001  0.000  0.008
   35  0.007  0.001  0.000  0.008
   36  0.014  0.000  0.002  0.016
   37  0.009  0.000  0.000  0.009
tot    0.569  0.015  0.003  0.587
 
band     2 # energy   -8.57436440 # occ.  2.00000000
 
ion      s      p      d    tot
    1  0.004  0.000  0.000  0.005
    2  0.004  0.000  0.000  0.005
    3  0.004  0.000  0.000  0.005
    4  0.004  0.000  0.000  0.005
    5  0.004  0.000  0.000  0.005
    6  0.004  0.000  0.000  0.005
    7  0.004  0.000  0.000  0.005
    8  0.004  0.000  0.000  0.005
    9  0.004  0.000  0.000  0.005
   10  0.005  0.000  0.000  0.005
   11  0.005  0.000  0.000  0.005
   12  0.005  0.000  0.000  0.005
   13  0.005  0.000  0.000  0.005
   14  0.005  0.000  0.000  0.005
   15  0.005  0.000  0.000  0.006
   16  0.005  0.000  0.000  0.005
   17  0.005  0.000  0.000  0.006
   18  0.005  0.000  0.000  0.006
   19  0.000  0.001  0.000  0.001
   20  0.001  0.001  0.000  0.003
   21  0.001  0.001  0.000  0.003
   22  0.000  0.001  0.000  0.001
   23  0.001  0.001  0.000  0.003
   24  0.000  0.001  0.000  0.001
   25  0.000  0.001  0.000  0.001
   26  0.000  0.001  0.000  0.001
   27  0.000  0.001  0.000  0.001
   28  0.003  0.000  0.000  0.003
   29  0.005  0.000  0.000  0.006
   30  0.005  0.000  0.000  0.006
   31  0.005  0.000  0.000  0.006
   32  0.005  0.000  0.000  0.006
   33  0.005  0.000  0.000  0.006
   34  0.005  0.000  0.000  0.006
   35  0.003  0.000  0.000  0.003
   36  0.096  0.042  0.068  0.206
   37  0.350  0.005  0.000  0.356
tot    0.571  0.061  0.073  0.705
 
band     3 # energy   -8.04375686 # occ.  2.00000000
 
ion      s      p      d    tot
    1  0.015  0.001  0.001  0.016
    2  0.015  0.001  0.001  0.016
    3  0.015  0.001  0.001  0.016
    4  0.015  0.001  0.001  0.016
    5  0.015  0.001  0.001  0.016
    6  0.015  0.001  0.001  0.016
    7  0.015  0.001  0.001  0.016
    8  0.015  0.001  0.001  0.016
    9  0.014  0.000  0.001  0.015
   10  0.005  0.002  0.000  0.008
   11  0.006  0.002  0.000  0.009
   12  0.005  0.002  0.000  0.008
   13  0.006  0.002  0.000  0.009
   14  0.006  0.002  0.000  0.009
   15  0.005  0.002  0.000  0.008
   16  0.005  0.002  0.000  0.008
   17  0.005  0.002  0.000  0.008
   18  0.005  0.002  0.000  0.008
   19  0.014  0.002  0.001  0.016
   20  0.007  0.001  0.001  0.010
   21  0.007  0.001  0.001  0.010
   22  0.013  0.002  0.001  0.015
   23  0.007  0.001  0.001  0.010
   24  0.013  0.002  0.001  0.015
   25  0.014  0.002  0.001  0.016
   26  0.014  0.002  0.001  0.016
   27  0.013  0.002  0.001  0.015
   28  0.017  0.001  0.000  0.019
   29  0.012  0.001  0.000  0.014
   30  0.012  0.001  0.000  0.014
   31  0.012  0.001  0.000  0.014
   32  0.012  0.001  0.000  0.014
   33  0.012  0.001  0.000  0.014
   34  0.012  0.001  0.000  0.014
   35  0.017  0.001  0.000  0.018
   36  0.002  0.023  0.031  0.056
   37  0.108  0.001  0.000  0.109
tot    0.500  0.072  0.050  0.622
 
band     4 # energy   -6.55556397 # occ.  2.00000000
 
ion      s      p      d    tot
    1  0.017  0.000  0.005  0.022
    2  0.013  0.000  0.006  0.019
    3  0.013  0.000  0.006  0.019
    4  0.013  0.000  0.006  0.019
    5  0.003  0.001  0.007  0.011
    6  0.013  0.000  0.006  0.019
    7  0.013  0.000  0.006  0.019
    8  0.013  0.000  0.006  0.019
    9  0.025  0.000  0.003  0.029
   10  0.002  0.003  0.004  0.009
   11  0.017  0.005  0.001  0.024
   12  0.002  0.003  0.004  0.009
   13  0.017  0.005  0.001  0.024
   14  0.017  0.005  0.001  0.024
   15  0.000  0.002  0.005  0.008
   16  0.002  0.003  0.004  0.009
   17  0.000  0.002  0.005  0.008
   18  0.000  0.002  0.005  0.008
   19  0.000  0.002  0.006  0.009
   20  0.021  0.005  0.001  0.028
   21  0.021  0.005  0.001  0.028
   22  0.000  0.004  0.004  0.008
   23  0.021  0.005  0.001  0.028
   24  0.000  0.004  0.004  0.008
   25  0.000  0.002  0.006  0.009
   26  0.000  0.002  0.006  0.009
   27  0.000  0.004  0.004  0.008
   28  0.023  0.000  0.004  0.028
   29  0.014  0.001  0.007  0.021
   30  0.014  0.001  0.007  0.021
   31  0.014  0.001  0.007  0.021
   32  0.014  0.001  0.007  0.021
   33  0.014  0.001  0.007  0.021
   34  0.014  0.001  0.007  0.021
   35  0.028  0.000  0.005  0.033
   36  0.001  0.000  0.011  0.012
   37  0.002  0.000  0.000  0.002
tot    0.380  0.076  0.176  0.632
 
band     5 # energy   -6.50356172 # occ.  2.00000000
 
ion      s      p      d    tot
    1  0.000  0.003  0.005  0.008
    2  0.005  0.002  0.002  0.008
    3  0.007  0.002  0.002  0.011
    4  0.008  0.002  0.002  0.013
    5  0.000  0.000  0.002  0.002
    6  0.001  0.001  0.002  0.004
    7  0.009  0.002  0.002  0.014
    8  0.000  0.001  0.002  0.003
    9  0.000  0.002  0.005  0.006
   10  0.045  0.002  0.006  0.053
   11  0.000  0.006  0.005  0.011
   12  0.005  0.009  0.007  0.021
   13  0.000  0.009  0.005  0.013
   14  0.000  0.002  0.004  0.006
   15  0.019  0.002  0.010  0.032
   16  0.020  0.007  0.006  0.033
   17  0.005  0.001  0.015  0.020
   18  0.044  0.005  0.003  0.052
   19  0.028  0.005  0.009  0.042
   20  0.022  0.004  0.003  0.029
   21  0.002  0.002  0.013  0.018
   22  0.001  0.012  0.002  0.015
   23  0.010  0.003  0.009  0.022
   24  0.009  0.001  0.006  0.016
   25  0.061  0.003  0.005  0.069
   26  0.007  0.005  0.012  0.024
   27  0.004  0.008  0.003  0.015
   28  0.000  0.004  0.006  0.010
   29  0.003  0.001  0.002  0.007
   30  0.010  0.002  0.003  0.015
   31  0.007  0.002  0.003  0.012
   32  0.003  0.001  0.003  0.007
   33  0.012  0.003  0.003  0.017
   34  0.000  0.001  0.002  0.004
   35  0.000  0.002  0.003  0.005
   36  0.000  0.001  0.003  0.004
   37  0.000  0.000  0.000  0.000
tot    0.346  0.115  0.178  0.640
 
band     6 # energy   -6.50349337 # occ.  2.00000000
 
ion      s      p      d    tot
    1  0.000  0.003  0.005  0.008
    2  0.005  0.002  0.002  0.009
    3  0.003  0.001  0.002  0.007
    4  0.002  0.001  0.002  0.005
    5  0.000  0.000  0.002  0.002
    6  0.009  0.002  0.002  0.014
    7  0.000  0.001  0.002  0.003
    8  0.010  0.002  0.002  0.014
    9  0.000  0.002  0.005  0.006
   10  0.002  0.010  0.006  0.018
   11  0.000  0.005  0.005  0.009
   12  0.041  0.002  0.006  0.050
   13  0.000  0.002  0.005  0.007
   14  0.000  0.009  0.005  0.014
   15  0.026  0.003  0.008  0.037
   16  0.026  0.005  0.006  0.038
   17  0.041  0.004  0.004  0.049
   18  0.002  0.000  0.016  0.018
   19  0.036  0.004  0.008  0.049
   20  0.001  0.002  0.014  0.017
   21  0.020  0.004  0.004  0.028
   22  0.009  0.002  0.006  0.016
   23  0.013  0.003  0.008  0.024
   24  0.000  0.013  0.001  0.015
   25  0.002  0.005  0.013  0.020
   26  0.057  0.003  0.006  0.066
   27  0.006  0.006  0.004  0.016
   28  0.000  0.004  0.006  0.010
   29  0.009  0.002  0.003  0.014
   30  0.002  0.001  0.002  0.005
   31  0.004  0.002  0.003  0.009
   32  0.009  0.002  0.003  0.014
   33  0.000  0.001  0.002  0.003
   34  0.011  0.003  0.003  0.017
   35  0.000  0.002  0.003  0.005
   36  0.000  0.001  0.003  0.004
   37  0.000  0.000  0.000  0.000
tot    0.346  0.115  0.178  0.640
 
band     7 # energy   -6.50093669 # occ.  2.00000000
 
ion      s      p      d    tot
    1  0.019  0.003  0.001  0.023
    2  0.000  0.002  0.004  0.006
    3  0.000  0.002  0.004  0.006
    4  0.000  0.002  0.004  0.006
    5  0.002  0.000  0.000  0.002
    6  0.000  0.002  0.004  0.006
    7  0.000  0.002  0.004  0.006
    8  0.000  0.002  0.004  0.006
    9  0.010  0.001  0.000  0.011
   10  0.030  0.006  0.006  0.042
   11  0.005  0.000  0.012  0.017
   12  0.031  0.006  0.006  0.043
   13  0.005  0.000  0.011  0.017
   14  0.005  0.000  0.012  0.017
   15  0.011  0.008  0.004  0.022
   16  0.031  0.006  0.006  0.043
   17  0.011  0.008  0.004  0.022
   18  0.011  0.008  0.004  0.022
   19  0.023  0.010  0.002  0.035
   20  0.000  0.002  0.010  0.013
   21  0.000  0.002  0.010  0.013
   22  0.024  0.002  0.009  0.035
   23  0.000  0.002  0.010  0.013
   24  0.024  0.002  0.009  0.035
   25  0.024  0.009  0.002  0.036
   26  0.023  0.010  0.002  0.035
   27  0.024  0.002  0.009  0.035
   28  0.017  0.003  0.001  0.020
   29  0.000  0.002  0.004  0.006
   30  0.000  0.002  0.005  0.006
   31  0.000  0.002  0.004  0.006
   32  0.000  0.002  0.004  0.006
   33  0.000  0.002  0.005  0.006
   34  0.000  0.002  0.004  0.006
   35  0.015  0.002  0.001  0.018
   36  0.000  0.000  0.000  0.000
   37  0.000  0.000  0.000  0.000
tot    0.346  0.115  0.180  0.640
 
band     8 # energy   -6.48772481 # occ.  2.00000000
 
ion      s      p      d    tot
    1  0.000  0.000  0.003  0.004
    2  0.004  0.002  0.002  0.008
    3  0.007  0.002  0.002  0.011
    4  0.009  0.002  0.003  0.014
    5  0.000  0.003  0.006  0.009
    6  0.001  0.001  0.002  0.004
    7  0.010  0.002  0.002  0.015
    8  0.000  0.001  0.002  0.003
    9  0.000  0.002  0.003  0.005
   10  0.001  0.003  0.012  0.016
   11  0.034  0.004  0.009  0.046
   12  0.015  0.004  0.003  0.022
   13  0.058  0.004  0.005  0.067
   14  0.003  0.004  0.013  0.021
   15  0.008  0.007  0.004  0.019
   16  0.009  0.003  0.007  0.019
   17  0.014  0.001  0.006  0.021
   18  0.001  0.013  0.002  0.016
   19  0.000  0.005  0.005  0.011
   20  0.002  0.011  0.005  0.019
   21  0.037  0.002  0.007  0.046
   22  0.048  0.005  0.004  0.057
   23  0.021  0.006  0.006  0.033
   24  0.003  0.001  0.016  0.020
   25  0.000  0.008  0.006  0.014
   26  0.001  0.002  0.004  0.007
   27  0.028  0.003  0.009  0.040
   28  0.000  0.000  0.003  0.003
   29  0.003  0.001  0.002  0.006
   30  0.008  0.002  0.003  0.013
   31  0.007  0.002  0.002  0.012
   32  0.002  0.001  0.003  0.006
   33  0.010  0.003  0.003  0.015
   34  0.000  0.001  0.002  0.003
   35  0.000  0.002  0.005  0.008
   36  0.000  0.004  0.004  0.008
   37  0.000  0.000  0.000  0.000
tot    0.345  0.117  0.179  0.641
 
band     9 # energy   -6.48762697 # occ.  2.00000000
 
ion      s      p      d    tot
    1  0.000  0.000  0.003  0.004
    2  0.006  0.002  0.002  0.010
    3  0.004  0.001  0.002  0.007
    4  0.002  0.001  0.002  0.005
    5  0.000  0.003  0.006  0.009
    6  0.009  0.002  0.003  0.014
    7  0.000  0.001  0.002  0.003
    8  0.010  0.003  0.003  0.015
    9  0.000  0.002  0.003  0.005
   10  0.016  0.004  0.003  0.022
   11  0.030  0.004  0.010  0.043
   12  0.001  0.003  0.012  0.016
   13  0.005  0.004  0.013  0.022
   14  0.060  0.004  0.005  0.069
   15  0.007  0.007  0.004  0.019
   16  0.008  0.003  0.008  0.019
   17  0.001  0.013  0.002  0.016
   18  0.014  0.001  0.006  0.022
   19  0.000  0.005  0.005  0.011
   20  0.038  0.002  0.007  0.046
   21  0.003  0.011  0.005  0.019
   22  0.004  0.001  0.016  0.021
   23  0.019  0.007  0.006  0.032
   24  0.051  0.005  0.003  0.059
   25  0.001  0.002  0.004  0.007
   26  0.000  0.008  0.006  0.014
   27  0.025  0.003  0.010  0.037
   28  0.000  0.000  0.003  0.003
   29  0.007  0.002  0.003  0.012
   30  0.002  0.001  0.002  0.006
   31  0.003  0.001  0.003  0.007
   32  0.008  0.002  0.003  0.012
   33  0.000  0.001  0.002  0.003
   34  0.010  0.003  0.003  0.015
   35  0.000  0.002  0.005  0.008
   36  0.000  0.004  0.004  0.008
   37  0.000  0.000  0.000  0.000
tot    0.345  0.117  0.179  0.641
 
band    10 # energy   -6.37944967 # occ.  2.00000000
 
ion      s      p      d    tot
    1  0.000  0.000  0.002  0.002
    2  0.003  0.002  0.007  0.012
    3  0.004  0.002  0.007  0.012
    4  0.003  0.002  0.007  0.012
    5  0.043  0.003  0.000  0.046
    6  0.004  0.002  0.007  0.012
    7  0.003  0.002  0.007  0.012
    8  0.004  0.002  0.007  0.012
    9  0.002  0.002  0.005  0.010
   10  0.004  0.004  0.009  0.017
   11  0.016  0.009  0.005  0.029
   12  0.004  0.004  0.009  0.017
   13  0.016  0.009  0.005  0.029
   14  0.016  0.009  0.005  0.029
   15  0.030  0.002  0.010  0.043
   16  0.004  0.004  0.009  0.017
   17  0.030  0.002  0.010  0.043
   18  0.030  0.002  0.010  0.043
   19  0.006  0.002  0.008  0.016
   20  0.014  0.003  0.007  0.024
   21  0.014  0.003  0.007  0.024
   22  0.008  0.006  0.004  0.018
   23  0.014  0.003  0.007  0.024
   24  0.008  0.006  0.004  0.018
   25  0.006  0.002  0.008  0.016
   26  0.006  0.002  0.008  0.016
   27  0.008  0.006  0.004  0.018
   28  0.002  0.000  0.004  0.006
   29  0.004  0.000  0.003  0.008
   30  0.004  0.000  0.003  0.008
   31  0.004  0.000  0.003  0.008
   32  0.004  0.000  0.003  0.008
   33  0.004  0.000  0.003  0.008
   34  0.004  0.000  0.003  0.008
   35  0.000  0.000  0.003  0.003
   36  0.009  0.006  0.002  0.017
   37  0.006  0.000  0.000  0.006
tot    0.344  0.106  0.204  0.653
 
band    11 # energy   -5.74336352 # occ.  2.00000000
 
ion      s      p      d    tot
    1  0.001  0.002  0.009  0.012
    2  0.001  0.002  0.009  0.012
    3  0.016  0.001  0.006  0.024
    4  0.000  0.002  0.010  0.012
    5  0.000  0.001  0.009  0.010
    6  0.000  0.001  0.009  0.010
    7  0.016  0.001  0.006  0.023
    8  0.001  0.001  0.009  0.010
    9  0.018  0.001  0.006  0.025
   10  0.019  0.001  0.017  0.037
   11  0.004  0.001  0.022  0.028
   12  0.005  0.001  0.023  0.028
   13  0.005  0.001  0.021  0.027
   14  0.011  0.001  0.011  0.022
   15  0.004  0.001  0.022  0.027
   16  0.003  0.001  0.023  0.027
   17  0.003  0.001  0.022  0.025
   18  0.003  0.002  0.016  0.021
   19  0.011  0.001  0.016  0.028
   20  0.012  0.001  0.018  0.031
   21  0.007  0.001  0.022  0.030
   22  0.000  0.001  0.022  0.023
   23  0.007  0.001  0.022  0.029
   24  0.005  0.001  0.020  0.026
   25  0.000  0.001  0.022  0.023
   26  0.009  0.001  0.018  0.027
   27  0.000  0.001  0.020  0.022
   28  0.000  0.002  0.007  0.009
   29  0.001  0.002  0.008  0.010
   30  0.016  0.002  0.008  0.025
   31  0.000  0.002  0.008  0.010
   32  0.000  0.001  0.010  0.011
   33  0.016  0.001  0.008  0.026
   34  0.000  0.001  0.010  0.012
   35  0.018  0.001  0.007  0.026
   36  0.000  0.001  0.007  0.008
   37  0.000  0.000  0.000  0.000
tot    0.210  0.041  0.503  0.754
 
band    12 # energy   -5.74329649 # occ.  2.00000000
 
ion      s      p      d    tot
    1  0.000  0.003  0.010  0.014
    2  0.004  0.001  0.005  0.011
    3  0.009  0.003  0.008  0.020
    4  0.011  0.001  0.005  0.017
    5  0.000  0.000  0.011  0.011
    6  0.014  0.002  0.005  0.022
    7  0.009  0.003  0.008  0.020
    8  0.007  0.002  0.006  0.015
    9  0.005  0.004  0.008  0.017
   10  0.002  0.001  0.012  0.014
   11  0.005  0.002  0.010  0.017
   12  0.006  0.003  0.021  0.030
   13  0.004  0.002  0.013  0.018
   14  0.000  0.001  0.019  0.020
   15  0.005  0.002  0.016  0.023
   16  0.011  0.002  0.017  0.030
   17  0.001  0.001  0.020  0.022
   18  0.021  0.004  0.012  0.036
   19  0.001  0.002  0.019  0.022
   20  0.000  0.001  0.015  0.016
   21  0.004  0.002  0.016  0.021
   22  0.002  0.002  0.025  0.029
   23  0.005  0.002  0.014  0.021
   24  0.005  0.002  0.007  0.014
   25  0.023  0.005  0.006  0.034
   26  0.000  0.000  0.020  0.020
   27  0.005  0.002  0.020  0.027
   28  0.000  0.004  0.008  0.012
   29  0.005  0.001  0.008  0.014
   30  0.011  0.003  0.008  0.022
   31  0.013  0.002  0.008  0.022
   32  0.013  0.003  0.006  0.022
   33  0.011  0.003  0.008  0.022
   34  0.006  0.002  0.005  0.013
   35  0.005  0.004  0.010  0.019
   36  0.000  0.000  0.008  0.008
   37  0.000  0.000  0.000  0.000
tot    0.225  0.078  0.416  0.718
 
band    13 # energy   -5.74327674 # occ.  2.00000000
 
ion      s      p      d    tot
    1  0.000  0.004  0.011  0.015
    2  0.020  0.004  0.005  0.029
    3  0.000  0.002  0.005  0.007
    4  0.014  0.003  0.005  0.022
    5  0.000  0.000  0.011  0.011
    6  0.011  0.003  0.005  0.019
    7  0.001  0.002  0.005  0.008
    8  0.018  0.003  0.005  0.027
    9  0.000  0.005  0.008  0.013
   10  0.000  0.004  0.023  0.027
   11  0.001  0.002  0.012  0.015
   12  0.009  0.002  0.008  0.019
   13  0.003  0.001  0.009  0.013
   14  0.000  0.002  0.014  0.017
   15  0.014  0.003  0.013  0.030
   16  0.006  0.002  0.013  0.021
   17  0.020  0.005  0.008  0.033
   18  0.001  0.000  0.022  0.023
   19  0.011  0.004  0.012  0.027
   20  0.000  0.002  0.015  0.017
   21  0.001  0.001  0.011  0.013
   22  0.009  0.002  0.008  0.019
   23  0.001  0.001  0.012  0.014
   24  0.000  0.003  0.027  0.030
   25  0.000  0.000  0.019  0.019
   26  0.015  0.005  0.010  0.030
   27  0.006  0.002  0.014  0.022
   28  0.000  0.005  0.009  0.013
   29  0.021  0.004  0.007  0.031
   30  0.000  0.002  0.006  0.008
   31  0.014  0.003  0.007  0.024
   32  0.013  0.003  0.006  0.023
   33  0.001  0.002  0.006  0.008
   34  0.021  0.004  0.007  0.031
   35  0.000  0.005  0.011  0.016
   36  0.000  0.000  0.008  0.008
   37  0.000  0.000  0.000  0.000
tot    0.231  0.095  0.378  0.703
 
band    14 # energy   -5.73614126 # occ.  2.00000000
 
ion      s      p      d    tot
    1  0.038  0.003  0.000  0.040
    2  0.001  0.003  0.010  0.013
    3  0.001  0.003  0.010  0.013
    4  0.001  0.003  0.010  0.013
    5  0.000  0.000  0.002  0.002
    6  0.001  0.003  0.010  0.013
    7  0.001  0.003  0.010  0.013
    8  0.001  0.003  0.010  0.013
    9  0.019  0.004  0.002  0.025
   10  0.005  0.003  0.012  0.020
   11  0.003  0.000  0.016  0.020
   12  0.005  0.003  0.012  0.020
   13  0.003  0.000  0.016  0.020
   14  0.003  0.000  0.016  0.020
   15  0.009  0.003  0.016  0.028
   16  0.005  0.003  0.012  0.020
   17  0.009  0.003  0.016  0.028
   18  0.009  0.003  0.017  0.028
   19  0.002  0.003  0.021  0.026
   20  0.000  0.000  0.015  0.015
   21  0.000  0.000  0.015  0.015
   22  0.013  0.003  0.010  0.027
   23  0.000  0.000  0.015  0.015
   24  0.013  0.003  0.010  0.027
   25  0.002  0.003  0.021  0.026
   26  0.002  0.003  0.021  0.026
   27  0.013  0.003  0.010  0.027
   28  0.042  0.003  0.000  0.045
   29  0.000  0.003  0.012  0.015
   30  0.001  0.003  0.012  0.015
   31  0.000  0.003  0.012  0.015
   32  0.000  0.003  0.012  0.015
   33  0.001  0.003  0.012  0.015
   34  0.000  0.003  0.012  0.015
   35  0.018  0.003  0.002  0.024
   36  0.000  0.000  0.001  0.001
   37  0.000  0.000  0.000  0.000
tot    0.223  0.083  0.407  0.713
 
band    15 # energy   -5.71862628 # occ.  2.00000000
 
ion      s      p      d    tot
    1  0.000  0.002  0.009  0.011
    2  0.001  0.002  0.005  0.008
    3  0.021  0.004  0.005  0.030
    4  0.008  0.002  0.005  0.016
    5  0.000  0.006  0.009  0.015
    6  0.011  0.003  0.005  0.019
    7  0.019  0.004  0.005  0.028
    8  0.003  0.002  0.005  0.010
    9  0.000  0.001  0.012  0.013
   10  0.001  0.001  0.015  0.017
   11  0.010  0.003  0.015  0.028
   12  0.011  0.004  0.010  0.025
   13  0.017  0.004  0.007  0.028
   14  0.001  0.002  0.026  0.029
   15  0.000  0.002  0.013  0.015
   16  0.007  0.002  0.012  0.021
   17  0.001  0.000  0.009  0.010
   18  0.000  0.003  0.019  0.022
   19  0.001  0.002  0.014  0.017
   20  0.001  0.001  0.028  0.030
   21  0.019  0.004  0.008  0.031
   22  0.010  0.004  0.010  0.023
   23  0.011  0.003  0.016  0.031
   24  0.001  0.001  0.015  0.016
   25  0.000  0.004  0.021  0.025
   26  0.002  0.000  0.009  0.011
   27  0.006  0.002  0.012  0.020
   28  0.000  0.002  0.014  0.016
   29  0.002  0.002  0.006  0.009
   30  0.020  0.004  0.007  0.031
   31  0.009  0.002  0.006  0.018
   32  0.010  0.003  0.006  0.019
   33  0.020  0.004  0.007  0.030
   34  0.002  0.002  0.006  0.010
   35  0.000  0.001  0.011  0.013
   36  0.000  0.009  0.005  0.015
   37  0.000  0.000  0.000  0.000
tot    0.224  0.096  0.391  0.711
 
band    16 # energy   -5.71858924 # occ.  2.00000000
 
ion      s      p      d    tot
    1  0.000  0.002  0.009  0.011
    2  0.020  0.004  0.005  0.029
    3  0.000  0.002  0.005  0.007
    4  0.013  0.003  0.005  0.021
    5  0.000  0.006  0.009  0.015
    6  0.010  0.003  0.005  0.018
    7  0.002  0.002  0.005  0.009
    8  0.018  0.004  0.005  0.027
    9  0.000  0.001  0.012  0.013
   10  0.012  0.004  0.009  0.025
   11  0.009  0.003  0.017  0.028
   12  0.001  0.001  0.015  0.017
   13  0.002  0.002  0.025  0.029
   14  0.018  0.004  0.006  0.028
   15  0.000  0.002  0.014  0.017
   16  0.006  0.002  0.013  0.020
   17  0.000  0.003  0.019  0.022
   18  0.001  0.000  0.008  0.009
   19  0.001  0.002  0.015  0.018
   20  0.020  0.005  0.007  0.032
   21  0.002  0.002  0.027  0.030
   22  0.001  0.001  0.015  0.017
   23  0.010  0.003  0.018  0.031
   24  0.010  0.004  0.010  0.024
   25  0.002  0.000  0.008  0.010
   26  0.000  0.003  0.021  0.024
   27  0.005  0.002  0.013  0.020
   28  0.000  0.002  0.014  0.016
   29  0.019  0.004  0.007  0.030
   30  0.001  0.002  0.006  0.008
   31  0.012  0.003  0.007  0.021
   32  0.011  0.003  0.006  0.020
   33  0.001  0.002  0.006  0.009
   34  0.019  0.004  0.007  0.029
   35  0.000  0.001  0.011  0.013
   36  0.000  0.009  0.005  0.015
   37  0.000  0.000  0.000  0.000
tot    0.224  0.096  0.391  0.711
 
band    17 # energy   -5.52770609 # occ.  2.00000000
 
ion      s      p      d    tot
    1  0.017  0.002  0.000  0.019
    2  0.000  0.003  0.012  0.015
    3  0.000  0.003  0.012  0.015
    4  0.000  0.003  0.012  0.015
    5  0.044  0.003  0.000  0.048
    6  0.000  0.003  0.012  0.015
    7  0.000  0.003  0.012  0.015
    8  0.000  0.003  0.012  0.015
    9  0.003  0.001  0.001  0.005
   10  0.001  0.002  0.030  0.033
   11  0.003  0.004  0.023  0.030
   12  0.001  0.002  0.030  0.033
   13  0.003  0.004  0.023  0.030
   14  0.003  0.004  0.023  0.030
   15  0.003  0.001  0.009  0.013
   16  0.001  0.002  0.030  0.033
   17  0.003  0.001  0.009  0.013
   18  0.003  0.001  0.009  0.013
   19  0.011  0.001  0.027  0.039
   20  0.011  0.003  0.005  0.019
   21  0.011  0.003  0.005  0.019
   22  0.002  0.001  0.017  0.021
   23  0.011  0.003  0.005  0.019
   24  0.002  0.001  0.017  0.021
   25  0.011  0.001  0.027  0.039
   26  0.011  0.001  0.027  0.039
   27  0.002  0.001  0.017  0.021
   28  0.001  0.002  0.008  0.010
   29  0.002  0.001  0.010  0.013
   30  0.002  0.001  0.010  0.013
   31  0.002  0.001  0.010  0.013
   32  0.002  0.001  0.010  0.013
   33  0.002  0.001  0.010  0.013
   34  0.002  0.001  0.010  0.013
   35  0.001  0.001  0.003  0.005
   36  0.020  0.010  0.001  0.031
   37  0.004  0.000  0.000  0.005
tot    0.196  0.080  0.476  0.752
 
band    18 # energy   -5.05678541 # occ.  2.00000000
 
ion      s      p      d    tot
    1  0.002  0.000  0.001  0.003
    2  0.000  0.001  0.017  0.018
    3  0.000  0.001  0.017  0.018
    4  0.000  0.001  0.017  0.018
    5  0.014  0.001  0.000  0.015
    6  0.000  0.001  0.017  0.018
    7  0.000  0.001  0.017  0.018
    8  0.000  0.001  0.017  0.018
    9  0.028  0.001  0.002  0.031
   10  0.000  0.001  0.008  0.010
   11  0.000  0.001  0.020  0.021
   12  0.000  0.001  0.008  0.010
   13  0.000  0.001  0.020  0.021
   14  0.000  0.001  0.020  0.021
   15  0.000  0.003  0.038  0.042
   16  0.000  0.001  0.008  0.010
   17  0.000  0.003  0.038  0.042
   18  0.000  0.003  0.037  0.041
   19  0.000  0.001  0.025  0.026
   20  0.000  0.000  0.009  0.010
   21  0.000  0.000  0.009  0.010
   22  0.001  0.003  0.033  0.037
   23  0.000  0.000  0.009  0.010
   24  0.001  0.003  0.033  0.037
   25  0.000  0.001  0.025  0.027
   26  0.000  0.001  0.025  0.026
   27  0.001  0.003  0.032  0.037
   28  0.022  0.000  0.002  0.024
   29  0.000  0.001  0.025  0.026
   30  0.000  0.001  0.025  0.026
   31  0.000  0.001  0.025  0.026
   32  0.000  0.001  0.025  0.026
   33  0.000  0.001  0.025  0.026
   34  0.000  0.001  0.025  0.026
   35  0.023  0.000  0.004  0.027
   36  0.000  0.000  0.000  0.000
   37  0.000  0.000  0.000  0.000
tot    0.097  0.049  0.658  0.803
 
band    19 # energy   -5.05295788 # occ.  2.00000000
 
ion      s      p      d    tot
    1  0.000  0.001  0.031  0.032
    2  0.014  0.001  0.009  0.025
    3  0.010  0.001  0.009  0.020
    4  0.013  0.001  0.010  0.024
    5  0.000  0.000  0.021  0.021
    6  0.008  0.001  0.010  0.018
    7  0.001  0.001  0.009  0.011
    8  0.000  0.001  0.009  0.010
    9  0.000  0.003  0.001  0.004
   10  0.000  0.000  0.056  0.056
   11  0.000  0.003  0.018  0.022
   12  0.000  0.000  0.037  0.038
   13  0.000  0.002  0.019  0.020
   14  0.000  0.000  0.019  0.020
   15  0.001  0.007  0.016  0.024
   16  0.000  0.001  0.006  0.007
   17  0.000  0.003  0.018  0.021
   18  0.000  0.001  0.019  0.020
   19  0.002  0.006  0.022  0.030
   20  0.000  0.000  0.046  0.046
   21  0.000  0.000  0.033  0.034
   22  0.001  0.001  0.028  0.030
   23  0.000  0.001  0.013  0.013
   24  0.000  0.000  0.040  0.040
   25  0.000  0.001  0.011  0.012
   26  0.001  0.003  0.015  0.019
   27  0.002  0.003  0.008  0.013
   28  0.000  0.002  0.005  0.007
   29  0.004  0.001  0.013  0.018
   30  0.001  0.001  0.011  0.013
   31  0.014  0.001  0.015  0.030
   32  0.016  0.001  0.014  0.031
   33  0.003  0.001  0.010  0.015
   34  0.009  0.001  0.011  0.022
   35  0.000  0.002  0.020  0.022
   36  0.000  0.000  0.015  0.015
   37  0.000  0.000  0.000  0.000
tot    0.102  0.053  0.647  0.801
 
band    20 # energy   -5.05294676 # occ.  2.00000000
 
ion      s      p      d    tot
    1  0.000  0.001  0.031  0.032
    2  0.001  0.001  0.009  0.011
    3  0.005  0.001  0.010  0.016
    4  0.002  0.001  0.009  0.012
    5  0.000  0.000  0.021  0.021
    6  0.008  0.001  0.009  0.018
    7  0.015  0.001  0.010  0.025
    8  0.015  0.001  0.009  0.026
    9  0.000  0.003  0.001  0.004
   10  0.000  0.001  0.010  0.011
   11  0.000  0.000  0.019  0.019
   12  0.000  0.000  0.028  0.029
   13  0.000  0.002  0.019  0.021
   14  0.000  0.003  0.018  0.022
   15  0.000  0.000  0.019  0.020
   16  0.000  0.000  0.060  0.060
   17  0.001  0.004  0.017  0.022
   18  0.001  0.006  0.017  0.024
   19  0.000  0.000  0.010  0.011
   20  0.000  0.001  0.015  0.016
   21  0.000  0.000  0.027  0.028
   22  0.001  0.002  0.023  0.025
   23  0.000  0.000  0.048  0.048
   24  0.001  0.003  0.011  0.015
   25  0.001  0.006  0.021  0.028
   26  0.001  0.004  0.017  0.022
   27  0.000  0.000  0.043  0.043
   28  0.000  0.002  0.005  0.007
   29  0.012  0.001  0.012  0.025
   30  0.015  0.001  0.014  0.030
   31  0.002  0.001  0.011  0.013
   32  0.000  0.001  0.011  0.011
   33  0.012  0.001  0.015  0.028
   34  0.007  0.001  0.014  0.021
   35  0.000  0.002  0.020  0.022
   36  0.000  0.000  0.014  0.014
   37  0.000  0.000  0.000  0.000
tot    0.102  0.053  0.647  0.801
 
band    21 # energy   -5.04345004 # occ.  2.00000000
 
ion      s      p      d    tot
    1  0.000  0.002  0.005  0.007
    2  0.014  0.001  0.009  0.025
    3  0.010  0.001  0.009  0.020
    4  0.013  0.001  0.010  0.024
    5  0.000  0.002  0.014  0.016
    6  0.008  0.001  0.010  0.018
    7  0.001  0.001  0.009  0.011
    8  0.000  0.001  0.009  0.010
    9  0.000  0.000  0.034  0.034
   10  0.001  0.006  0.020  0.027
   11  0.000  0.000  0.044  0.044
   12  0.000  0.004  0.015  0.019
   13  0.001  0.002  0.023  0.026
   14  0.001  0.003  0.011  0.015
   15  0.000  0.000  0.045  0.045
   16  0.000  0.000  0.006  0.007
   17  0.000  0.000  0.025  0.025
   18  0.000  0.000  0.012  0.013
   19  0.000  0.000  0.058  0.058
   20  0.001  0.005  0.018  0.025
   21  0.001  0.003  0.020  0.024
   22  0.000  0.002  0.018  0.020
   23  0.000  0.000  0.022  0.022
   24  0.000  0.003  0.018  0.021
   25  0.000  0.000  0.009  0.010
   26  0.000  0.000  0.028  0.028
   27  0.000  0.000  0.018  0.018
   28  0.000  0.001  0.038  0.039
   29  0.004  0.001  0.012  0.018
   30  0.000  0.001  0.012  0.013
   31  0.013  0.001  0.013  0.027
   32  0.015  0.001  0.013  0.029
   33  0.003  0.001  0.011  0.015
   34  0.009  0.001  0.011  0.021
   35  0.000  0.001  0.023  0.024
   36  0.000  0.004  0.001  0.005