PROCAR new format
# of k-points:   10         # of bands:  252         # of ions:   36

 k-point     1 :    0.00000000 0.00000000 0.00000000     weight = 0.01562500

band     1 # energy   -8.71863532 # occ.  2.00000000
 
ion      s      p      d    tot
    1  0.007  0.001  0.000  0.007
    2  0.007  0.001  0.000  0.007
    3  0.007  0.001  0.000  0.007
    4  0.007  0.001  0.000  0.007
    5  0.007  0.001  0.000  0.007
    6  0.007  0.001  0.000  0.007
    7  0.007  0.001  0.000  0.007
    8  0.007  0.001  0.000  0.007
    9  0.007  0.001  0.000  0.007
   10  0.025  0.000  0.000  0.025
   11  0.025  0.000  0.000  0.025
   12  0.025  0.000  0.000  0.025
   13  0.025  0.000  0.000  0.025
   14  0.025  0.000  0.000  0.025
   15  0.025  0.000  0.000  0.025
   16  0.025  0.000  0.000  0.025
   17  0.025  0.000  0.000  0.025
   18  0.025  0.000  0.000  0.025
   19  0.025  0.000  0.000  0.025
   20  0.025  0.000  0.000  0.025
   21  0.025  0.000  0.000  0.025
   22  0.025  0.000  0.000  0.025
   23  0.025  0.000  0.000  0.025
   24  0.025  0.000  0.000  0.025
   25  0.025  0.000  0.000  0.025
   26  0.025  0.000  0.000  0.025
   27  0.025  0.000  0.000  0.025
   28  0.007  0.001  0.000  0.007
   29  0.007  0.001  0.000  0.007
   30  0.007  0.001  0.000  0.007
   31  0.007  0.001  0.000  0.007
   32  0.007  0.001  0.000  0.007
   33  0.007  0.001  0.000  0.007
   34  0.007  0.001  0.000  0.007
   35  0.007  0.001  0.000  0.007
   36  0.007  0.001  0.000  0.008
tot    0.565  0.017  0.001  0.583
 
band     2 # energy   -7.40131287 # occ.  2.00000000
 
ion      s      p      d    tot
    1  0.018  0.001  0.001  0.020
    2  0.018  0.001  0.001  0.020
    3  0.018  0.001  0.001  0.020
    4  0.018  0.001  0.001  0.020
    5  0.018  0.001  0.001  0.020
    6  0.018  0.001  0.001  0.020
    7  0.018  0.001  0.001  0.020
    8  0.018  0.001  0.001  0.020
    9  0.018  0.001  0.001  0.020
   10  0.010  0.002  0.001  0.013
   11  0.010  0.002  0.001  0.013
   12  0.010  0.002  0.001  0.013
   13  0.010  0.002  0.001  0.013
   14  0.010  0.002  0.001  0.013
   15  0.010  0.002  0.001  0.013
   16  0.010  0.002  0.001  0.013
   17  0.010  0.002  0.001  0.013
   18  0.010  0.002  0.001  0.013
   19  0.011  0.002  0.001  0.014
   20  0.010  0.002  0.001  0.013
   21  0.010  0.002  0.001  0.013
   22  0.011  0.002  0.001  0.014
   23  0.010  0.002  0.001  0.013
   24  0.011  0.002  0.001  0.014
   25  0.011  0.002  0.001  0.014
   26  0.011  0.002  0.001  0.014
   27  0.011  0.002  0.001  0.014
   28  0.018  0.001  0.000  0.020
   29  0.018  0.001  0.000  0.019
   30  0.018  0.001  0.000  0.019
   31  0.018  0.001  0.000  0.019
   32  0.017  0.001  0.000  0.019
   33  0.018  0.001  0.000  0.019
   34  0.017  0.001  0.000  0.019
   35  0.018  0.001  0.000  0.020
   36  0.017  0.001  0.000  0.018
tot    0.508  0.055  0.019  0.581
 
band     3 # energy   -5.74213962 # occ.  2.00000000
 
ion      s      p      d    tot
    1  0.021  0.000  0.006  0.027
    2  0.014  0.000  0.007  0.021
    3  0.014  0.000  0.006  0.021
    4  0.014  0.000  0.007  0.021
    5  0.004  0.001  0.008  0.013
    6  0.014  0.000  0.006  0.021
    7  0.014  0.000  0.006  0.021
    8  0.014  0.000  0.006  0.021
    9  0.023  0.000  0.004  0.028
   10  0.001  0.004  0.004  0.009
   11  0.018  0.005  0.002  0.025
   12  0.001  0.004  0.004  0.009
   13  0.018  0.005  0.002  0.025
   14  0.018  0.005  0.002  0.025
   15  0.000  0.002  0.006  0.008
   16  0.001  0.004  0.004  0.009
   17  0.000  0.002  0.006  0.008
   18  0.000  0.002  0.006  0.008
   19  0.000  0.003  0.005  0.008
   20  0.017  0.005  0.001  0.023
   21  0.017  0.005  0.001  0.023
   22  0.001  0.004  0.003  0.008
   23  0.017  0.005  0.001  0.023
   24  0.001  0.004  0.003  0.008
   25  0.000  0.003  0.005  0.008
   26  0.000  0.003  0.005  0.008
   27  0.001  0.004  0.003  0.008
   28  0.025  0.000  0.004  0.029
   29  0.014  0.000  0.006  0.020
   30  0.014  0.000  0.006  0.020
   31  0.014  0.000  0.006  0.020
   32  0.014  0.000  0.006  0.020
   33  0.014  0.000  0.006  0.020
   34  0.014  0.000  0.006  0.020
   35  0.021  0.000  0.005  0.026
   36  0.002  0.001  0.005  0.009
tot    0.379  0.075  0.169  0.624
 
band     4 # energy   -5.71665136 # occ.  2.00000000
 
ion      s      p      d    tot
    1  0.000  0.000  0.003  0.003
    2  0.007  0.002  0.002  0.012
    3  0.009  0.002  0.002  0.013
    4  0.006  0.002  0.002  0.011
    5  0.000  0.003  0.006  0.009
    6  0.000  0.001  0.002  0.003
    7  0.008  0.002  0.002  0.013
    8  0.000  0.001  0.002  0.003
    9  0.000  0.002  0.003  0.005
   10  0.000  0.003  0.012  0.015
   11  0.049  0.004  0.007  0.060
   12  0.011  0.004  0.005  0.019
   13  0.046  0.004  0.007  0.057
   14  0.000  0.004  0.014  0.018
   15  0.013  0.003  0.006  0.022
   16  0.011  0.004  0.005  0.020
   17  0.012  0.004  0.005  0.022
   18  0.000  0.014  0.002  0.016
   19  0.001  0.003  0.005  0.009
   20  0.000  0.012  0.004  0.017
   21  0.028  0.004  0.006  0.039
   22  0.040  0.004  0.007  0.050
   23  0.031  0.003  0.006  0.040
   24  0.000  0.000  0.017  0.018
   25  0.000  0.008  0.007  0.015
   26  0.001  0.004  0.005  0.009
   27  0.043  0.004  0.006  0.053
   28  0.000  0.000  0.002  0.002
   29  0.005  0.002  0.002  0.009
   30  0.010  0.002  0.003  0.015
   31  0.005  0.002  0.002  0.009
   32  0.001  0.001  0.002  0.004
   33  0.010  0.002  0.003  0.015
   34  0.001  0.001  0.002  0.004
   35  0.000  0.002  0.006  0.008
   36  0.000  0.004  0.003  0.007
tot    0.348  0.117  0.177  0.642
 
band     5 # energy   -5.71658133 # occ.  2.00000000
 
ion      s      p      d    tot
    1  0.000  0.000  0.003  0.003
    2  0.003  0.001  0.002  0.007
    3  0.001  0.001  0.002  0.005
    4  0.004  0.001  0.002  0.007
    5  0.000  0.003  0.006  0.009
    6  0.010  0.002  0.003  0.015
    7  0.002  0.001  0.002  0.005
    8  0.010  0.002  0.003  0.015
    9  0.000  0.002  0.003  0.005
   10  0.014  0.004  0.002  0.020
   11  0.014  0.004  0.012  0.030
   12  0.005  0.003  0.010  0.018
   13  0.018  0.004  0.011  0.033
   14  0.062  0.004  0.005  0.071
   15  0.003  0.011  0.003  0.016
   16  0.004  0.003  0.010  0.018
   17  0.004  0.010  0.003  0.017
   18  0.017  0.000  0.007  0.024
   19  0.000  0.007  0.006  0.013
   20  0.040  0.001  0.007  0.048
   21  0.012  0.009  0.005  0.026
   22  0.017  0.001  0.013  0.032
   23  0.009  0.010  0.005  0.024
   24  0.051  0.005  0.003  0.059
   25  0.001  0.002  0.004  0.007
   26  0.001  0.006  0.006  0.013
   27  0.014  0.001  0.014  0.029
   28  0.000  0.000  0.002  0.002
   29  0.005  0.002  0.003  0.009
   30  0.000  0.001  0.002  0.004
   31  0.006  0.002  0.003  0.010
   32  0.010  0.002  0.002  0.015
   33  0.001  0.001  0.002  0.004
   34  0.009  0.002  0.002  0.014
   35  0.000  0.002  0.006  0.008
   36  0.000  0.004  0.003  0.007
tot    0.348  0.117  0.177  0.642
 
band     6 # energy   -5.71557495 # occ.  2.00000000
 
ion      s      p      d    tot
    1  0.016  0.003  0.001  0.020
    2  0.000  0.002  0.004  0.006
    3  0.000  0.002  0.004  0.005
    4  0.000  0.002  0.004  0.006
    5  0.000  0.000  0.000  0.000
    6  0.000  0.002  0.004  0.006
    7  0.000  0.002  0.004  0.005
    8  0.000  0.002  0.004  0.006
    9  0.014  0.002  0.000  0.017
   10  0.031  0.004  0.008  0.042
   11  0.001  0.001  0.011  0.013
   12  0.027  0.004  0.008  0.038
   13  0.001  0.001  0.011  0.013
   14  0.002  0.001  0.010  0.014
   15  0.018  0.009  0.003  0.030
   16  0.027  0.004  0.008  0.038
   17  0.018  0.009  0.003  0.030
   18  0.017  0.009  0.002  0.028
   19  0.018  0.009  0.002  0.030
   20  0.002  0.001  0.010  0.014
   21  0.001  0.001  0.011  0.013
   22  0.027  0.004  0.008  0.039
   23  0.001  0.001  0.011  0.013
   24  0.031  0.004  0.008  0.043
   25  0.017  0.009  0.002  0.028
   26  0.018  0.009  0.002  0.030
   27  0.027  0.004  0.008  0.039
   28  0.014  0.002  0.000  0.017
   29  0.000  0.002  0.004  0.006
   30  0.000  0.002  0.004  0.006
   31  0.000  0.002  0.004  0.006
   32  0.000  0.002  0.004  0.006
   33  0.000  0.002  0.004  0.006
   34  0.000  0.002  0.004  0.006
   35  0.018  0.003  0.001  0.022
   36  0.000  0.000  0.000  0.000
tot    0.347  0.116  0.177  0.640
 
band     7 # energy   -5.71211888 # occ.  2.00000000
 
ion      s      p      d    tot
    1  0.000  0.003  0.005  0.008
    2  0.007  0.002  0.002  0.011
    3  0.009  0.002  0.002  0.013
    4  0.006  0.002  0.002  0.011
    5  0.000  0.000  0.002  0.003
    6  0.000  0.001  0.002  0.003
    7  0.008  0.002  0.002  0.013
    8  0.000  0.001  0.002  0.003
    9  0.000  0.002  0.005  0.007
   10  0.046  0.002  0.007  0.054
   11  0.000  0.008  0.005  0.013
   12  0.013  0.008  0.006  0.028
   13  0.000  0.008  0.005  0.012
   14  0.000  0.001  0.005  0.006
   15  0.011  0.001  0.014  0.026
   16  0.011  0.009  0.006  0.026
   17  0.013  0.001  0.013  0.028
   18  0.047  0.005  0.002  0.054
   19  0.014  0.005  0.011  0.030
   20  0.023  0.004  0.002  0.030
   21  0.006  0.002  0.011  0.020
   22  0.002  0.010  0.003  0.015
   23  0.006  0.002  0.012  0.019
   24  0.010  0.000  0.006  0.017
   25  0.064  0.003  0.005  0.072
   26  0.016  0.005  0.010  0.032
   27  0.002  0.010  0.003  0.015
   28  0.000  0.003  0.006  0.009
   29  0.005  0.002  0.002  0.009
   30  0.010  0.003  0.003  0.015
   31  0.005  0.002  0.002  0.008
   32  0.001  0.001  0.002  0.004
   33  0.009  0.003  0.003  0.015
   34  0.001  0.001  0.002  0.004
   35  0.000  0.001  0.003  0.004
   36  0.000  0.001  0.003  0.003
tot    0.347  0.116  0.177  0.640
 
band     8 # energy   -5.71203684 # occ.  2.00000000
 
ion      s      p      d    tot
    1  0.000  0.003  0.005  0.008
    2  0.003  0.001  0.002  0.007
    3  0.002  0.001  0.002  0.005
    4  0.004  0.001  0.002  0.007
    5  0.000  0.000  0.002  0.003
    6  0.010  0.002  0.003  0.015
    7  0.002  0.001  0.002  0.005
    8  0.010  0.002  0.003  0.015
    9  0.000  0.002  0.005  0.007
   10  0.000  0.010  0.007  0.017
   11  0.000  0.003  0.005  0.008
   12  0.035  0.004  0.006  0.046
   13  0.000  0.004  0.005  0.008
   14  0.000  0.010  0.005  0.015
   15  0.035  0.004  0.006  0.045
   16  0.037  0.004  0.006  0.047
   17  0.034  0.004  0.006  0.044
   18  0.000  0.000  0.017  0.017
   19  0.048  0.004  0.007  0.058
   20  0.000  0.002  0.014  0.016
   21  0.018  0.004  0.006  0.027
   22  0.006  0.004  0.005  0.015
   23  0.019  0.004  0.005  0.028
   24  0.000  0.013  0.002  0.015
   25  0.000  0.006  0.012  0.018
   26  0.046  0.004  0.007  0.056
   27  0.007  0.003  0.005  0.015
   28  0.000  0.003  0.006  0.009
   29  0.005  0.002  0.002  0.009
   30  0.001  0.001  0.002  0.004
   31  0.005  0.002  0.002  0.009
   32  0.010  0.002  0.002  0.015
   33  0.001  0.001  0.002  0.004
   34  0.009  0.002  0.002  0.014
   35  0.000  0.001  0.003  0.004
   36  0.000  0.001  0.003  0.003
tot    0.347  0.116  0.177  0.640
 
band     9 # energy   -5.68792501 # occ.  2.00000000
 
ion      s      p      d    tot
    1  0.000  0.001  0.002  0.002
    2  0.003  0.002  0.005  0.010
    3  0.003  0.002  0.005  0.010
    4  0.003  0.002  0.005  0.010
    5  0.037  0.003  0.000  0.039
    6  0.003  0.002  0.005  0.010
    7  0.003  0.002  0.005  0.010
    8  0.003  0.002  0.005  0.010
    9  0.000  0.001  0.004  0.006
   10  0.007  0.005  0.006  0.018
   11  0.017  0.007  0.005  0.030
   12  0.007  0.006  0.006  0.018
   13  0.017  0.007  0.005  0.030
   14  0.018  0.007  0.005  0.030
   15  0.020  0.001  0.010  0.031
   16  0.007  0.006  0.006  0.018
   17  0.020  0.001  0.010  0.031
   18  0.020  0.001  0.010  0.031
   19  0.016  0.002  0.009  0.026
   20  0.017  0.006  0.004  0.028
   21  0.017  0.006  0.004  0.028
   22  0.005  0.005  0.006  0.016
   23  0.018  0.006  0.004  0.028
   24  0.005  0.005  0.006  0.016
   25  0.016  0.002  0.009  0.026
   26  0.016  0.002  0.009  0.026
   27  0.005  0.005  0.006  0.016
   28  0.000  0.001  0.004  0.005
   29  0.003  0.001  0.004  0.008
   30  0.003  0.001  0.004  0.008
   31  0.003  0.001  0.004  0.008
   32  0.003  0.001  0.004  0.008
   33  0.003  0.001  0.004  0.008
   34  0.003  0.001  0.004  0.008
   35  0.000  0.000  0.002  0.002
   36  0.031  0.003  0.000  0.033
tot    0.356  0.107  0.182  0.645
 
band    10 # energy   -4.94052309 # occ.  2.00000000
 
ion      s      p      d    tot
    1  0.034  0.003  0.000  0.038
    2  0.000  0.003  0.010  0.013
    3  0.000  0.003  0.010  0.013
    4  0.000  0.003  0.010  0.013
    5  0.000  0.000  0.000  0.001
    6  0.000  0.003  0.010  0.013
    7  0.000  0.003  0.010  0.013
    8  0.000  0.003  0.010  0.013
    9  0.030  0.004  0.001  0.034
   10  0.009  0.004  0.010  0.023
   11  0.001  0.000  0.016  0.017
   12  0.009  0.004  0.010  0.022
   13  0.001  0.000  0.016  0.017
   14  0.001  0.000  0.016  0.017
   15  0.007  0.004  0.018  0.028
   16  0.009  0.004  0.010  0.022
   17  0.007  0.004  0.018  0.028
   18  0.007  0.004  0.018  0.028
   19  0.005  0.004  0.019  0.027
   20  0.000  0.000  0.015  0.015
   21  0.000  0.000  0.015  0.015
   22  0.012  0.003  0.010  0.025
   23  0.000  0.000  0.015  0.015
   24  0.011  0.003  0.010  0.025
   25  0.005  0.004  0.019  0.027
   26  0.005  0.004  0.019  0.027
   27  0.012  0.003  0.010  0.025
   28  0.036  0.003  0.000  0.040
   29  0.000  0.003  0.010  0.013
   30  0.000  0.003  0.010  0.013
   31  0.000  0.003  0.010  0.013
   32  0.000  0.003  0.010  0.013
   33  0.000  0.003  0.010  0.013
   34  0.000  0.003  0.010  0.013
   35  0.027  0.004  0.001  0.032
   36  0.000  0.000  0.000  0.000
tot    0.228  0.093  0.385  0.705
 
band    11 # energy   -4.93087008 # occ.  2.00000000
 
ion      s      p      d    tot
    1  0.006  0.000  0.008  0.014
    2  0.004  0.001  0.008  0.013
    3  0.004  0.001  0.008  0.013
    4  0.004  0.001  0.008  0.013
    5  0.000  0.002  0.008  0.010
    6  0.004  0.001  0.008  0.013
    7  0.004  0.001  0.008  0.013
    8  0.004  0.001  0.008  0.013
    9  0.013  0.000  0.006  0.019
   10  0.006  0.000  0.024  0.030
   11  0.010  0.001  0.021  0.032
   12  0.005  0.000  0.024  0.029
   13  0.010  0.001  0.021  0.032
   14  0.010  0.001  0.021  0.032
   15  0.002  0.000  0.021  0.023
   16  0.005  0.000  0.024  0.029
   17  0.002  0.000  0.021  0.023
   18  0.002  0.000  0.021  0.023
   19  0.004  0.000  0.022  0.025
   20  0.012  0.001  0.022  0.035
   21  0.012  0.001  0.022  0.035
   22  0.003  0.000  0.026  0.029
   23  0.012  0.001  0.022  0.035
   24  0.003  0.000  0.026  0.029
   25  0.004  0.000  0.022  0.025
   26  0.004  0.000  0.022  0.025
   27  0.003  0.000  0.026  0.029
   28  0.006  0.000  0.007  0.014
   29  0.004  0.001  0.009  0.014
   30  0.005  0.001  0.009  0.015
   31  0.004  0.001  0.009  0.014
   32  0.005  0.001  0.009  0.015
   33  0.005  0.001  0.009  0.015
   34  0.005  0.001  0.009  0.015
   35  0.016  0.000  0.007  0.023
   36  0.000  0.002  0.006  0.008
tot    0.199  0.019  0.557  0.774
 
band    12 # energy   -4.92915564 # occ.  2.00000000
 
ion      s      p      d    tot
    1  0.000  0.002  0.010  0.012
    2  0.007  0.002  0.005  0.015
    3  0.020  0.004  0.006  0.029
    4  0.002  0.002  0.005  0.009
    5  0.000  0.006  0.009  0.015
    6  0.004  0.002  0.005  0.011
    7  0.022  0.004  0.005  0.031
    8  0.010  0.003  0.005  0.018
    9  0.000  0.001  0.013  0.014
   10  0.000  0.001  0.016  0.017
   11  0.017  0.004  0.008  0.029
   12  0.007  0.003  0.012  0.022
   13  0.012  0.003  0.015  0.029
   14  0.001  0.002  0.028  0.030
   15  0.001  0.000  0.010  0.011
   16  0.011  0.004  0.010  0.025
   17  0.000  0.002  0.013  0.015
   18  0.000  0.004  0.020  0.024
   19  0.002  0.001  0.009  0.011
   20  0.001  0.001  0.027  0.028
   21  0.012  0.003  0.014  0.030
   22  0.007  0.003  0.012  0.021
   23  0.018  0.004  0.008  0.031
   24  0.000  0.001  0.016  0.017
   25  0.000  0.004  0.021  0.025
   26  0.001  0.002  0.013  0.016
   27  0.010  0.003  0.010  0.023
   28  0.000  0.002  0.012  0.014
   29  0.009  0.002  0.005  0.016
   30  0.020  0.004  0.006  0.030
   31  0.002  0.002  0.005  0.009
   32  0.003  0.002  0.005  0.010
   33  0.021  0.004  0.006  0.031
   34  0.009  0.003  0.006  0.017
   35  0.000  0.001  0.010  0.011
   36  0.000  0.007  0.005  0.012
tot    0.228  0.095  0.384  0.708
 
band    13 # energy   -4.92915178 # occ.  2.00000000
 
ion      s      p      d    tot
    1  0.000  0.002  0.009  0.012
    2  0.016  0.003  0.005  0.024
    3  0.002  0.002  0.005  0.009
    4  0.021  0.004  0.005  0.030
    5  0.000  0.006  0.009  0.015
    6  0.016  0.003  0.006  0.025
    7  0.000  0.002  0.005  0.007
    8  0.010  0.003  0.005  0.018
    9  0.000  0.001  0.013  0.014
   10  0.014  0.005  0.009  0.027
   11  0.002  0.002  0.026  0.030
   12  0.006  0.002  0.014  0.022
   13  0.007  0.003  0.019  0.029
   14  0.018  0.004  0.006  0.027
   15  0.000  0.003  0.018  0.021
   16  0.002  0.001  0.016  0.019
   17  0.000  0.002  0.015  0.017
   18  0.000  0.000  0.009  0.009
   19  0.000  0.004  0.021  0.024
   20  0.021  0.005  0.006  0.032
   21  0.009  0.003  0.018  0.029
   22  0.004  0.002  0.013  0.019
   23  0.003  0.001  0.024  0.028
   24  0.009  0.003  0.010  0.022
   25  0.003  0.000  0.008  0.011
   26  0.001  0.002  0.016  0.020
   27  0.001  0.001  0.015  0.017
   28  0.000  0.002  0.012  0.014
   29  0.014  0.003  0.006  0.023
   30  0.001  0.002  0.005  0.008
   31  0.021  0.004  0.006  0.030
   32  0.017  0.003  0.006  0.026
   33  0.000  0.002  0.005  0.007
   34  0.011  0.003  0.005  0.019
   35  0.000  0.001  0.010  0.011
   36  0.000  0.007  0.004  0.012
tot    0.228  0.095  0.384  0.708
 
band    14 # energy   -4.92796788 # occ.  2.00000000
 
ion      s      p      d    tot
    1  0.000  0.004  0.012  0.015
    2  0.003  0.002  0.005  0.010
    3  0.021  0.004  0.006  0.030
    4  0.002  0.002  0.005  0.010
    5  0.000  0.000  0.012  0.012
    6  0.008  0.002  0.005  0.016
    7  0.021  0.004  0.006  0.031
    8  0.009  0.002  0.005  0.017
    9  0.000  0.005  0.008  0.014
   10  0.007  0.001  0.006  0.015
   11  0.001  0.002  0.013  0.016
   12  0.002  0.003  0.021  0.026
   13  0.001  0.002  0.013  0.016
   14  0.004  0.002  0.011  0.016
   15  0.005  0.002  0.020  0.027
   16  0.002  0.003  0.022  0.027
   17  0.006  0.002  0.020  0.027
   18  0.022  0.006  0.007  0.034
   19  0.005  0.001  0.018  0.024
   20  0.001  0.001  0.010  0.011
   21  0.000  0.002  0.014  0.017
   22  0.004  0.003  0.022  0.028
   23  0.000  0.002  0.015  0.017
   24  0.014  0.002  0.005  0.021
   25  0.020  0.005  0.007  0.033
   26  0.005  0.001  0.018  0.024
   27  0.003  0.003  0.023  0.029
   28  0.000  0.004  0.008  0.012
   29  0.004  0.002  0.005  0.011
   30  0.020  0.004  0.005  0.029
   31  0.003  0.002  0.005  0.010
   32  0.006  0.002  0.005  0.014
   33  0.020  0.004  0.005  0.029
   34  0.007  0.002  0.005  0.015
   35  0.000  0.005  0.010  0.015
   36  0.000  0.000  0.006  0.007
tot    0.226  0.094  0.384  0.704
 
band    15 # energy   -4.92795753 # occ.  2.00000000
 
ion      s      p      d    tot
    1  0.000  0.004  0.011  0.016
    2  0.018  0.003  0.005  0.026
    3  0.000  0.002  0.005  0.007
    4  0.018  0.003  0.005  0.027
    5  0.000  0.000  0.012  0.012
    6  0.015  0.003  0.006  0.024
    7  0.000  0.002  0.005  0.007
    8  0.014  0.003  0.006  0.023
    9  0.000  0.005  0.008  0.013
   10  0.000  0.003  0.028  0.031
   11  0.002  0.002  0.011  0.015
   12  0.007  0.002  0.012  0.020
   13  0.002  0.002  0.011  0.015
   14  0.000  0.002  0.015  0.017
   15  0.016  0.005  0.011  0.031
   16  0.007  0.002  0.011  0.020
   17  0.015  0.004  0.011  0.031
   18  0.000  0.000  0.023  0.024
   19  0.016  0.004  0.011  0.031
   20  0.000  0.003  0.015  0.018
   21  0.001  0.001  0.011  0.014
   22  0.009  0.002  0.011  0.022
   23  0.001  0.001  0.011  0.014
   24  0.000  0.003  0.027  0.031
   25  0.000  0.000  0.022  0.022
   26  0.015  0.004  0.011  0.031
   27  0.009  0.002  0.011  0.022
   28  0.000  0.004  0.008  0.013
   29  0.015  0.003  0.005  0.023
   30  0.000  0.002  0.005  0.006
   31  0.015  0.003  0.005  0.024
   32  0.015  0.003  0.005  0.024
   33  0.000  0.001  0.005  0.006
   34  0.015  0.003  0.005  0.023
   35  0.000  0.005  0.011  0.015
   36  0.000  0.000  0.006  0.006
tot    0.226  0.094  0.384  0.704
 
band    16 # energy   -4.88396581 # occ.  2.00000000
 
ion      s      p      d    tot
    1  0.009  0.002  0.001  0.011
    2  0.000  0.003  0.010  0.013
    3  0.000  0.003  0.010  0.013
    4  0.000  0.003  0.010  0.013
    5  0.046  0.003  0.000  0.050
    6  0.000  0.003  0.010  0.013
    7  0.000  0.003  0.010  0.013
    8  0.000  0.003  0.010  0.013
    9  0.005  0.001  0.002  0.008
   10  0.002  0.001  0.020  0.024
   11  0.004  0.004  0.017  0.025
   12  0.002  0.001  0.020  0.024
   13  0.004  0.004  0.017  0.025
   14  0.005  0.004  0.017  0.025
   15  0.007  0.001  0.012  0.020
   16  0.002  0.001  0.020  0.024
   17  0.007  0.001  0.012  0.020
   18  0.007  0.001  0.012  0.020
   19  0.010  0.001  0.016  0.027
   20  0.007  0.004  0.013  0.024
   21  0.007  0.004  0.013  0.024
   22  0.003  0.001  0.019  0.023
   23  0.007  0.004  0.013  0.024
   24  0.003  0.001  0.019  0.023
   25  0.010  0.001  0.016  0.027
   26  0.010  0.001  0.016  0.027
   27  0.003  0.001  0.019  0.023
   28  0.004  0.002  0.004  0.009
   29  0.001  0.003  0.010  0.013
   30  0.001  0.003  0.010  0.013
   31  0.001  0.003  0.010  0.013
   32  0.001  0.003  0.010  0.013
   33  0.001  0.003  0.010  0.013
   34  0.001  0.003  0.010  0.013
   35  0.005  0.002  0.002  0.008
   36  0.048  0.004  0.000  0.052
tot    0.224  0.083  0.421  0.728
 
band    17 # energy   -4.24211064 # occ.  2.00000000
 
ion      s      p      d    tot
    1  0.002  0.000  0.001  0.003
    2  0.000  0.001  0.018  0.020
    3  0.000  0.001  0.018  0.020
    4  0.000  0.001  0.018  0.020
    5  0.016  0.001  0.000  0.016
    6  0.000  0.001  0.018  0.020
    7  0.000  0.001  0.018  0.020
    8  0.000  0.001  0.018  0.020
    9  0.029  0.001  0.002  0.032
   10  0.001  0.001  0.010  0.011
   11  0.000  0.001  0.020  0.021
   12  0.001  0.001  0.009  0.011
   13  0.000  0.001  0.020  0.021
   14  0.000  0.001  0.020  0.021
   15  0.001  0.004  0.041  0.045
   16  0.001  0.001  0.009  0.011
   17  0.001  0.004  0.041  0.045
   18  0.001  0.004  0.041  0.045
   19  0.000  0.001  0.029  0.030
   20  0.000  0.001  0.005  0.006
   21  0.000  0.001  0.005  0.006
   22  0.001  0.004  0.037  0.041
   23  0.000  0.001  0.005  0.006
   24  0.001  0.004  0.037  0.042
   25  0.000  0.001  0.029  0.030
   26  0.000  0.001  0.029  0.030
   27  0.001  0.004  0.037  0.041
   28  0.022  0.001  0.000  0.023
   29  0.000  0.001  0.017  0.019
   30  0.000  0.001  0.017  0.019
   31  0.000  0.001  0.018  0.019
   32  0.000  0.001  0.018  0.019
   33  0.000  0.001  0.017  0.019
   34  0.000  0.001  0.018  0.019
   35  0.024  0.001  0.002  0.026
   36  0.000  0.000  0.000  0.000
tot    0.098  0.053  0.648  0.799
 
band    18 # energy   -4.24139865 # occ.  2.00000000
 
ion      s      p      d    tot
    1  0.000  0.002  0.001  0.003
    2  0.014  0.001  0.010  0.025
    3  0.009  0.001  0.009  0.019
    4  0.014  0.001  0.010  0.025
    5  0.000  0.002  0.023  0.025
    6  0.001  0.001  0.010  0.011
    7  0.009  0.001  0.009  0.019
    8  0.001  0.001  0.010  0.011
    9  0.000  0.000  0.031  0.031
   10  0.001  0.007  0.021  0.029
   11  0.000  0.001  0.043  0.043
   12  0.000  0.002  0.012  0.014
   13  0.000  0.001  0.043  0.044
   14  0.001  0.002  0.005  0.008
   15  0.000  0.000  0.031  0.031
   16  0.000  0.002  0.012  0.014
   17  0.000  0.000  0.031  0.031
   18  0.000  0.002  0.013  0.014
   19  0.000  0.000  0.047  0.047
   20  0.001  0.007  0.020  0.028
   21  0.000  0.002  0.014  0.016
   22  0.000  0.001  0.026  0.027
   23  0.000  0.002  0.014  0.016
   24  0.000  0.002  0.016  0.018
   25  0.001  0.001  0.003  0.005
   26  0.000  0.000  0.047  0.047
   27  0.000  0.001  0.026  0.027
   28  0.000  0.002  0.027  0.029
   29  0.013  0.001  0.010  0.024
   30  0.000  0.001  0.009  0.010
   31  0.013  0.001  0.010  0.024
   32  0.011  0.001  0.009  0.021
   33  0.000  0.001  0.009  0.010
   34  0.011  0.001  0.009  0.021
   35  0.000  0.000  0.026  0.026
   36  0.000  0.003  0.000  0.003
tot    0.099  0.053  0.648  0.800
 
band    19 # energy   -4.24133776 # occ.  2.00000000
 
ion      s      p      d    tot
    1  0.000  0.002  0.001  0.003
    2  0.002  0.001  0.009  0.012
    3  0.007  0.001  0.010  0.018
    4  0.001  0.001  0.009  0.012
    5  0.000  0.002  0.023  0.025
    6  0.015  0.001  0.010  0.026
    7  0.007  0.001  0.010  0.018
    8  0.015  0.001  0.010  0.026
    9  0.000  0.000  0.031  0.031
   10  0.000  0.000  0.009  0.009
   11  0.001  0.002  0.017  0.020
   12  0.001  0.005  0.018  0.024
   13  0.001  0.002  0.017  0.020
   14  0.000  0.000  0.055  0.055
   15  0.000  0.001  0.019  0.020
   16  0.001  0.005  0.018  0.024
   17  0.000  0.001  0.019  0.020
   18  0.000  0.000  0.037  0.037
   19  0.000  0.001  0.018  0.019
   20  0.000  0.000  0.013  0.013
   21  0.001  0.005  0.018  0.024
   22  0.000  0.002  0.019  0.021
   23  0.001  0.005  0.018  0.024
   24  0.000  0.000  0.029  0.030
   25  0.000  0.000  0.061  0.061
   26  0.000  0.001  0.018  0.019
   27  0.000  0.002  0.019  0.021
   28  0.000  0.002  0.028  0.029
   29  0.003  0.001  0.009  0.012
   30  0.016  0.001  0.010  0.027
   31  0.003  0.001  0.009  0.013
   32  0.005  0.001  0.009  0.015
   33  0.016  0.001  0.010  0.027
   34  0.005  0.001  0.009  0.015
   35  0.000  0.000  0.026  0.026
   36  0.000  0.003  0.000  0.003
tot    0.099  0.053  0.648  0.800
 
band    20 # energy   -4.22087653 # occ.  2.00000000
 
ion      s      p      d    tot
    1  0.000  0.000  0.038  0.039
    2  0.014  0.001  0.011  0.026
    3  0.009  0.001  0.010  0.020
    4  0.014  0.001  0.011  0.026
    5  0.000  0.001  0.015  0.016
    6  0.001  0.001  0.010  0.012
    7  0.009  0.001  0.010  0.020
    8  0.001  0.001  0.010  0.012
    9  0.000  0.003  0.006  0.009
   10  0.000  0.000  0.061  0.061
   11  0.000  0.004  0.020  0.024
   12  0.000  0.000  0.019  0.019
   13  0.000  0.004  0.020  0.024
   14  0.000  0.000  0.015  0.015
   15  0.001  0.004  0.018  0.023
   16  0.000  0.000  0.019  0.019
   17  0.001  0.004  0.018  0.024
   18  0.000  0.000  0.032  0.032
   19  0.000  0.005  0.019  0.024
   20  0.000  0.000  0.057  0.057
   21  0.000  0.000  0.019  0.019
   22  0.001  0.004  0.018  0.023
   23  0.000  0.000  0.018  0.019
   24  0.000  0.000  0.045  0.045
   25  0.000  0.000  0.006  0.006
   26  0.000  0.005  0.019  0.024
   27  0.001  0.004  0.018  0.023
   28  0.000  0.001  0.009  0.010
   29  0.012  0.001  0.008  0.021
   30  0.000  0.001  0.008  0.009
   31  0.012  0.001  0.008  0.022
   32  0.010  0.001  0.008  0.019
   33  0.000  0.001  0.008  0.009
   34  0.010  0.001  0.008  0.019
   35  0.000  0.003  0.010  0.013
   36  0.000  0.000  0.015  0.015
tot    0.098  0.056  0.644  0.798
 
band    21 # energy   -4.22082156 # occ.  2.00000000
 
ion      s      p      d    tot
    1  0.000  0.000  0.038  0.039
    2  0.002  0.001  0.010  0.012
    3  0.007  0.001  0.011  0.019
    4  0.002  0.001  0.010  0.012
    5  0.000  0.001  0.015  0.016
    6  0.015  0.001  0.011  0.027
    7  0.007  0.001  0.011  0.019
    8  0.015  0.001  0.011  0.027
    9  0.000  0.003  0.006  0.009
   10  0.000  0.000  0.005  0.005
   11  0.000  0.001  0.016  0.018
   12  0.000  0.000  0.047  0.047
   13  0.000  0.001  0.016  0.018
   14  0.001  0.005  0.022  0.027
   15  0.000  0.001  0.027  0.029
   16  0.000  0.000  0.047  0.047
   17  0.000  0.001  0.027  0.029
   18  0.002  0.006  0.013  0.021
   19  0.000  0.002  0.010  0.012
   20  0.000  0.000  0.006  0.006
   21  0.000  0.000  0.044  0.044
   22  0.000  0.001  0.036  0.037
   23  0.000  0.000  0.044  0.044
   24  0.001  0.005  0.009  0.016
   25  0.000  0.006  0.024  0.030
   26  0.000  0.002  0.011  0.012
   27  0.000  0.001  0.036  0.038
   28  0.000  0.001  0.009  0.010
   29  0.003  0.001  0.008  0.011
   30  0.015  0.002  0.008  0.024
   31  0.003  0.001  0.008  0.011
   32  0.005  0.001  0.008  0.014
   33  0.015  0.002  0.008  0.024
   34  0.005  0.001  0.008  0.014
   35  0.000  0.003  0.010  0.013
   36  0.000  0.000  0.015  0.015
tot    0.098  0.056  0.644  0.798
 
band    22 # energy   -4.20438420 # occ.  2.00000000
 
ion      s      p      d    tot
    1  0.029  0.001  0.002  0.032
    2  0.000  0.001  0.020  0.021
    3  0.000  0.001  0.020  0.021
    4  0.000  0.001  0.020  0.021
    5  0.014  0.000  0.003  0.017
    6  0.000  0.001  0.019  0.021
    7  0.000  0.001  0.020  0.021
    8  0.000  0.001  0.019  0.021
    9  0.003  0.000  0.000  0.003
   10  0.000  0.002  0.036  0.039
   11  0.001  0.003  0.027  0.031
   12  0.000  0.002  0.036  0.039
   13  0.001  0.003  0.027  0.031
   14  0.001  0.003  0.027  0.031
   15  0.000  0.000  0.009  0.009
   16  0.000  0.002  0.036  0.039