PROCAR new format
# of k-points:   10         # of bands:  252         # of ions:   36

 k-point     1 :    0.00000000 0.00000000 0.00000000     weight = 0.01562500

band     1 # energy   -6.29849659 # occ.  2.00000000
 
ion      s      p      d    tot
    1  0.006  0.001  0.000  0.007
    2  0.006  0.001  0.000  0.007
    3  0.006  0.001  0.000  0.007
    4  0.006  0.001  0.000  0.007
    5  0.006  0.001  0.000  0.007
    6  0.006  0.001  0.000  0.007
    7  0.006  0.001  0.000  0.007
    8  0.006  0.001  0.000  0.007
    9  0.006  0.001  0.000  0.007
   10  0.024  0.000  0.000  0.024
   11  0.024  0.000  0.000  0.025
   12  0.024  0.000  0.000  0.024
   13  0.024  0.000  0.000  0.025
   14  0.024  0.000  0.000  0.025
   15  0.024  0.000  0.000  0.024
   16  0.024  0.000  0.000  0.024
   17  0.024  0.000  0.000  0.024
   18  0.024  0.000  0.000  0.024
   19  0.022  0.000  0.000  0.023
   20  0.024  0.000  0.000  0.024
   21  0.024  0.000  0.000  0.024
   22  0.023  0.000  0.000  0.023
   23  0.024  0.000  0.000  0.024
   24  0.023  0.000  0.000  0.023
   25  0.022  0.000  0.000  0.023
   26  0.022  0.000  0.000  0.023
   27  0.023  0.000  0.000  0.023
   28  0.005  0.001  0.000  0.006
   29  0.005  0.001  0.000  0.006
   30  0.005  0.001  0.000  0.006
   31  0.005  0.001  0.000  0.006
   32  0.005  0.001  0.000  0.006
   33  0.005  0.001  0.000  0.006
   34  0.005  0.001  0.000  0.006
   35  0.005  0.001  0.000  0.006
   36  0.006  0.001  0.000  0.006
tot    0.524  0.013  0.006  0.543
 
band     2 # energy   -5.42353000 # occ.  2.00000000
 
ion      s      p      d    tot
    1  0.008  0.000  0.000  0.009
    2  0.008  0.000  0.000  0.009
    3  0.008  0.000  0.000  0.009
    4  0.008  0.000  0.000  0.009
    5  0.008  0.000  0.000  0.009
    6  0.008  0.000  0.000  0.009
    7  0.008  0.000  0.000  0.009
    8  0.008  0.000  0.000  0.009
    9  0.008  0.000  0.000  0.009
   10  0.011  0.001  0.015  0.027
   11  0.011  0.001  0.015  0.027
   12  0.011  0.001  0.015  0.027
   13  0.011  0.001  0.015  0.027
   14  0.011  0.001  0.015  0.027
   15  0.010  0.001  0.015  0.026
   16  0.011  0.001  0.015  0.027
   17  0.010  0.001  0.015  0.026
   18  0.010  0.001  0.015  0.026
   19  0.012  0.001  0.016  0.030
   20  0.013  0.001  0.017  0.031
   21  0.013  0.001  0.017  0.031
   22  0.013  0.001  0.016  0.030
   23  0.013  0.001  0.017  0.031
   24  0.013  0.001  0.016  0.030
   25  0.012  0.001  0.016  0.030
   26  0.012  0.001  0.016  0.030
   27  0.013  0.001  0.016  0.030
   28  0.007  0.000  0.000  0.007
   29  0.007  0.000  0.000  0.007
   30  0.007  0.000  0.000  0.007
   31  0.007  0.000  0.000  0.007
   32  0.007  0.000  0.000  0.007
   33  0.007  0.000  0.000  0.007
   34  0.007  0.000  0.000  0.007
   35  0.007  0.000  0.000  0.007
   36  0.006  0.000  0.000  0.007
tot    0.340  0.025  0.289  0.654
 
band     3 # energy   -5.13843198 # occ.  2.00000000
 
ion      s      p      d    tot
    1  0.015  0.000  0.028  0.043
    2  0.016  0.000  0.026  0.042
    3  0.016  0.000  0.026  0.042
    4  0.016  0.000  0.026  0.042
    5  0.016  0.000  0.027  0.043
    6  0.016  0.000  0.026  0.042
    7  0.016  0.000  0.026  0.042
    8  0.016  0.000  0.026  0.042
    9  0.017  0.000  0.025  0.042
   10  0.001  0.001  0.020  0.021
   11  0.001  0.001  0.025  0.026
   12  0.001  0.001  0.020  0.021
   13  0.001  0.001  0.025  0.026
   14  0.001  0.001  0.025  0.026
   15  0.000  0.000  0.024  0.025
   16  0.001  0.001  0.020  0.021
   17  0.000  0.000  0.024  0.025
   18  0.000  0.000  0.024  0.025
   19  0.000  0.000  0.007  0.007
   20  0.000  0.000  0.009  0.009
   21  0.000  0.000  0.009  0.009
   22  0.000  0.000  0.010  0.011
   23  0.000  0.000  0.009  0.009
   24  0.000  0.000  0.010  0.011
   25  0.000  0.000  0.007  0.007
   26  0.000  0.000  0.007  0.007
   27  0.000  0.000  0.010  0.011
   28  0.005  0.000  0.006  0.011
   29  0.005  0.000  0.005  0.010
   30  0.005  0.000  0.005  0.010
   31  0.005  0.000  0.005  0.010
   32  0.005  0.000  0.005  0.010
   33  0.005  0.000  0.005  0.010
   34  0.005  0.000  0.005  0.010
   35  0.005  0.000  0.007  0.011
   36  0.004  0.000  0.000  0.005
tot    0.192  0.006  0.566  0.764
 
band     4 # energy   -5.02648325 # occ.  2.00000000
 
ion      s      p      d    tot
    1  0.005  0.001  0.003  0.008
    2  0.000  0.000  0.005  0.006
    3  0.000  0.000  0.005  0.005
    4  0.000  0.000  0.005  0.006
    5  0.000  0.000  0.002  0.002
    6  0.000  0.000  0.005  0.005
    7  0.000  0.000  0.005  0.005
    8  0.000  0.000  0.005  0.005
    9  0.001  0.001  0.007  0.009
   10  0.003  0.000  0.066  0.070
   11  0.002  0.001  0.020  0.024
   12  0.003  0.000  0.066  0.069
   13  0.002  0.001  0.020  0.024
   14  0.002  0.001  0.020  0.024
   15  0.016  0.001  0.020  0.037
   16  0.003  0.000  0.066  0.069
   17  0.015  0.001  0.020  0.037
   18  0.015  0.001  0.020  0.037
   19  0.000  0.000  0.028  0.028
   20  0.008  0.000  0.046  0.054
   21  0.008  0.000  0.046  0.054
   22  0.011  0.001  0.008  0.020
   23  0.008  0.000  0.046  0.054
   24  0.011  0.001  0.008  0.021
   25  0.000  0.000  0.028  0.028
   26  0.000  0.000  0.028  0.028
   27  0.011  0.001  0.008  0.020
   28  0.000  0.000  0.002  0.002
   29  0.000  0.000  0.006  0.006
   30  0.000  0.000  0.006  0.006
   31  0.000  0.000  0.006  0.006
   32  0.000  0.000  0.006  0.006
   33  0.000  0.000  0.006  0.006
   34  0.000  0.000  0.006  0.006
   35  0.001  0.000  0.002  0.003
   36  0.006  0.001  0.000  0.008
tot    0.134  0.017  0.650  0.801
 
band     5 # energy   -5.01976241 # occ.  2.00000000
 
ion      s      p      d    tot
    1  0.001  0.000  0.001  0.003
    2  0.000  0.000  0.005  0.005
    3  0.000  0.000  0.005  0.005
    4  0.000  0.000  0.005  0.005
    5  0.004  0.001  0.005  0.011
    6  0.000  0.000  0.005  0.005
    7  0.000  0.000  0.005  0.005
    8  0.000  0.000  0.005  0.005
    9  0.001  0.000  0.003  0.004
   10  0.010  0.001  0.004  0.015
   11  0.012  0.000  0.052  0.063
   12  0.010  0.001  0.004  0.015
   13  0.012  0.000  0.052  0.063
   14  0.011  0.000  0.051  0.063
   15  0.000  0.000  0.048  0.048
   16  0.010  0.001  0.004  0.015
   17  0.000  0.000  0.048  0.048
   18  0.000  0.000  0.048  0.049
   19  0.012  0.001  0.023  0.036
   20  0.004  0.001  0.016  0.021
   21  0.004  0.001  0.016  0.021
   22  0.002  0.000  0.053  0.055
   23  0.004  0.001  0.016  0.021
   24  0.002  0.000  0.053  0.055
   25  0.012  0.001  0.023  0.035
   26  0.012  0.001  0.023  0.036
   27  0.002  0.000  0.053  0.055
   28  0.003  0.001  0.004  0.008
   29  0.000  0.000  0.004  0.004
   30  0.000  0.000  0.004  0.004
   31  0.000  0.000  0.004  0.004
   32  0.000  0.000  0.004  0.004
   33  0.000  0.000  0.004  0.004
   34  0.000  0.000  0.004  0.004
   35  0.002  0.001  0.005  0.008
   36  0.000  0.000  0.000  0.000
tot    0.130  0.017  0.655  0.801
 
band     6 # energy   -5.01503208 # occ.  2.00000000
 
ion      s      p      d    tot
    1  0.000  0.000  0.001  0.001
    2  0.000  0.000  0.004  0.004
    3  0.002  0.001  0.007  0.009
    4  0.000  0.000  0.004  0.004
    5  0.000  0.000  0.010  0.010
    6  0.001  0.000  0.003  0.005
    7  0.002  0.001  0.007  0.009
    8  0.001  0.000  0.003  0.005
    9  0.000  0.000  0.006  0.006
   10  0.000  0.000  0.027  0.027
   11  0.006  0.000  0.081  0.088
   12  0.000  0.001  0.039  0.039
   13  0.006  0.000  0.081  0.088
   14  0.026  0.001  0.002  0.029
   15  0.005  0.001  0.025  0.032
   16  0.000  0.001  0.039  0.040
   17  0.006  0.001  0.025  0.032
   18  0.022  0.000  0.033  0.055
   19  0.001  0.000  0.033  0.034
   20  0.007  0.000  0.028  0.035
   21  0.002  0.001  0.016  0.019
   22  0.005  0.001  0.039  0.045
   23  0.002  0.001  0.016  0.019
   24  0.021  0.001  0.010  0.033
   25  0.004  0.001  0.011  0.015
   26  0.001  0.000  0.033  0.034
   27  0.005  0.001  0.039  0.045
   28  0.000  0.000  0.002  0.002
   29  0.002  0.000  0.004  0.006
   30  0.000  0.000  0.002  0.002
   31  0.002  0.000  0.004  0.006
   32  0.001  0.000  0.003  0.004
   33  0.000  0.000  0.002  0.002
   34  0.001  0.000  0.003  0.004
   35  0.000  0.000  0.009  0.009
   36  0.000  0.000  0.000  0.000
tot    0.133  0.017  0.649  0.799
 
band     7 # energy   -5.01502568 # occ.  2.00000000
 
ion      s      p      d    tot
    1  0.000  0.000  0.001  0.001
    2  0.002  0.001  0.005  0.008
    3  0.000  0.000  0.003  0.003
    4  0.002  0.001  0.005  0.008
    5  0.000  0.000  0.010  0.010
    6  0.001  0.000  0.006  0.008
    7  0.000  0.000  0.003  0.003
    8  0.001  0.000  0.006  0.008
    9  0.000  0.000  0.006  0.006
   10  0.000  0.001  0.043  0.044
   11  0.019  0.001  0.028  0.049
   12  0.000  0.000  0.031  0.031
   13  0.019  0.001  0.029  0.049
   14  0.000  0.000  0.107  0.107
   15  0.017  0.001  0.031  0.048
   16  0.000  0.000  0.031  0.031
   17  0.016  0.001  0.030  0.048
   18  0.000  0.002  0.022  0.023
   19  0.003  0.000  0.018  0.021
   20  0.000  0.001  0.012  0.014
   21  0.005  0.001  0.024  0.030
   22  0.016  0.001  0.020  0.037
   23  0.005  0.001  0.024  0.030
   24  0.000  0.001  0.048  0.049
   25  0.000  0.000  0.040  0.041
   26  0.003  0.000  0.018  0.021
   27  0.016  0.001  0.020  0.037
   28  0.000  0.000  0.002  0.002
   29  0.000  0.000  0.002  0.002
   30  0.002  0.000  0.004  0.006
   31  0.000  0.000  0.002  0.002
   32  0.001  0.000  0.003  0.004
   33  0.002  0.000  0.004  0.006
   34  0.001  0.000  0.003  0.004
   35  0.000  0.000  0.009  0.009
   36  0.000  0.000  0.000  0.000
tot    0.133  0.017  0.649  0.799
 
band     8 # energy   -5.00567215 # occ.  2.00000000
 
ion      s      p      d    tot
    1  0.000  0.000  0.009  0.009
    2  0.001  0.001  0.005  0.007
    3  0.000  0.000  0.002  0.003
    4  0.001  0.001  0.006  0.007
    5  0.000  0.000  0.001  0.001
    6  0.001  0.000  0.005  0.006
    7  0.000  0.000  0.002  0.003
    8  0.001  0.000  0.005  0.006
    9  0.000  0.000  0.004  0.005
   10  0.027  0.001  0.020  0.048
   11  0.001  0.001  0.021  0.023
   12  0.008  0.001  0.045  0.054
   13  0.001  0.001  0.022  0.025
   14  0.005  0.000  0.041  0.046
   15  0.002  0.000  0.082  0.085
   16  0.006  0.001  0.047  0.054
   17  0.003  0.000  0.078  0.081
   18  0.010  0.001  0.009  0.020
   19  0.003  0.001  0.019  0.023
   20  0.015  0.001  0.007  0.023
   21  0.004  0.000  0.042  0.047
   22  0.000  0.000  0.036  0.037
   23  0.003  0.000  0.044  0.048
   24  0.000  0.000  0.025  0.025
   25  0.012  0.001  0.025  0.037
   26  0.003  0.001  0.019  0.024
   27  0.000  0.001  0.037  0.037
   28  0.000  0.000  0.005  0.005
   29  0.000  0.000  0.002  0.003
   30  0.001  0.000  0.004  0.005
   31  0.000  0.000  0.002  0.003
   32  0.000  0.000  0.002  0.002
   33  0.001  0.000  0.004  0.005
   34  0.000  0.000  0.002  0.002
   35  0.000  0.000  0.001  0.001
   36  0.000  0.000  0.001  0.001
tot    0.112  0.015  0.683  0.810
 
band     9 # energy   -5.00566396 # occ.  2.00000000
 
ion      s      p      d    tot
    1  0.000  0.000  0.009  0.009
    2  0.000  0.000  0.003  0.004
    3  0.001  0.001  0.006  0.008
    4  0.000  0.000  0.003  0.003
    5  0.000  0.000  0.001  0.001
    6  0.001  0.000  0.004  0.005
    7  0.001  0.001  0.006  0.008
    8  0.001  0.000  0.004  0.005
    9  0.000  0.000  0.004  0.005
   10  0.000  0.001  0.055  0.056
   11  0.004  0.001  0.035  0.040
   12  0.020  0.001  0.029  0.050
   13  0.003  0.001  0.034  0.038
   14  0.000  0.002  0.015  0.017
   15  0.008  0.000  0.031  0.039
   16  0.021  0.001  0.028  0.050
   17  0.008  0.000  0.035  0.043
   18  0.000  0.000  0.103  0.103
   19  0.009  0.001  0.023  0.033
   20  0.000  0.000  0.056  0.056
   21  0.011  0.001  0.020  0.032
   22  0.000  0.000  0.029  0.030
   23  0.012  0.001  0.018  0.030
   24  0.000  0.001  0.040  0.041
   25  0.000  0.001  0.017  0.018
   26  0.009  0.001  0.023  0.032
   27  0.000  0.000  0.029  0.029
   28  0.000  0.000  0.005  0.005
   29  0.001  0.000  0.003  0.004
   30  0.000  0.000  0.002  0.002
   31  0.001  0.000  0.003  0.004
   32  0.001  0.000  0.003  0.004
   33  0.000  0.000  0.002  0.002
   34  0.001  0.000  0.003  0.004
   35  0.000  0.000  0.001  0.001
   36  0.000  0.000  0.001  0.001
tot    0.112  0.015  0.683  0.810
 
band    10 # energy   -4.99091218 # occ.  2.00000000
 
ion      s      p      d    tot
    1  0.001  0.001  0.009  0.010
    2  0.000  0.000  0.010  0.010
    3  0.000  0.000  0.010  0.010
    4  0.000  0.000  0.010  0.010
    5  0.000  0.000  0.003  0.003
    6  0.000  0.000  0.010  0.010
    7  0.000  0.000  0.010  0.010
    8  0.000  0.000  0.010  0.010
    9  0.008  0.000  0.002  0.010
   10  0.004  0.000  0.022  0.026
   11  0.000  0.000  0.053  0.053
   12  0.004  0.000  0.022  0.026
   13  0.000  0.000  0.053  0.053
   14  0.000  0.000  0.053  0.053
   15  0.001  0.000  0.024  0.025
   16  0.004  0.000  0.022  0.026
   17  0.001  0.000  0.024  0.025
   18  0.001  0.000  0.024  0.025
   19  0.004  0.000  0.007  0.012
   20  0.002  0.000  0.040  0.042
   21  0.002  0.000  0.040  0.042
   22  0.002  0.000  0.062  0.064
   23  0.002  0.000  0.040  0.042
   24  0.002  0.000  0.062  0.064
   25  0.004  0.000  0.007  0.012
   26  0.004  0.000  0.007  0.012
   27  0.002  0.000  0.062  0.064
   28  0.007  0.001  0.000  0.008
   29  0.001  0.000  0.010  0.011
   30  0.001  0.000  0.010  0.011
   31  0.001  0.000  0.010  0.011
   32  0.001  0.000  0.010  0.011
   33  0.001  0.000  0.010  0.011
   34  0.001  0.000  0.010  0.011
   35  0.001  0.000  0.017  0.018
   36  0.002  0.000  0.000  0.002
tot    0.061  0.007  0.772  0.840
 
band    11 # energy   -4.97293601 # occ.  2.00000000
 
ion      s      p      d    tot
    1  0.007  0.000  0.010  0.017
    2  0.001  0.000  0.011  0.012
    3  0.001  0.000  0.011  0.012
    4  0.001  0.000  0.011  0.012
    5  0.001  0.001  0.004  0.006
    6  0.001  0.000  0.011  0.012
    7  0.001  0.000  0.011  0.012
    8  0.001  0.000  0.011  0.012
    9  0.000  0.000  0.002  0.003
   10  0.000  0.000  0.050  0.050
   11  0.005  0.000  0.010  0.015
   12  0.000  0.000  0.050  0.050
   13  0.005  0.000  0.010  0.015
   14  0.005  0.000  0.010  0.015
   15  0.001  0.000  0.038  0.039
   16  0.000  0.000  0.050  0.050
   17  0.001  0.000  0.038  0.039
   18  0.001  0.000  0.038  0.039
   19  0.001  0.000  0.064  0.065
   20  0.002  0.001  0.020  0.023
   21  0.002  0.001  0.020  0.023
   22  0.004  0.000  0.021  0.024
   23  0.002  0.001  0.020  0.023
   24  0.004  0.000  0.020  0.024
   25  0.001  0.000  0.064  0.065
   26  0.001  0.000  0.064  0.065
   27  0.004  0.000  0.021  0.024
   28  0.004  0.000  0.019  0.023
   29  0.002  0.000  0.009  0.011
   30  0.002  0.000  0.009  0.011
   31  0.002  0.000  0.009  0.011
   32  0.001  0.000  0.009  0.011
   33  0.002  0.000  0.009  0.011
   34  0.001  0.000  0.009  0.011
   35  0.000  0.000  0.003  0.004
   36  0.006  0.001  0.000  0.006
tot    0.067  0.007  0.766  0.839
 
band    12 # energy   -4.96635334 # occ.  2.00000000
 
ion      s      p      d    tot
    1  0.000  0.000  0.020  0.020
    2  0.003  0.000  0.006  0.009
    3  0.001  0.000  0.008  0.010
    4  0.003  0.000  0.006  0.009
    5  0.000  0.000  0.006  0.007
    6  0.000  0.000  0.007  0.007
    7  0.001  0.000  0.008  0.010
    8  0.000  0.000  0.007  0.007
    9  0.000  0.000  0.007  0.007
   10  0.000  0.000  0.041  0.041
   11  0.001  0.000  0.029  0.029
   12  0.001  0.000  0.034  0.035
   13  0.001  0.000  0.029  0.029
   14  0.000  0.000  0.011  0.011
   15  0.002  0.000  0.018  0.021
   16  0.001  0.000  0.034  0.035
   17  0.002  0.000  0.018  0.021
   18  0.000  0.000  0.050  0.050
   19  0.010  0.000  0.037  0.047
   20  0.000  0.000  0.100  0.100
   21  0.006  0.000  0.031  0.038
   22  0.000  0.000  0.035  0.036
   23  0.006  0.000  0.031  0.037
   24  0.000  0.000  0.009  0.010
   25  0.000  0.000  0.070  0.070
   26  0.010  0.000  0.037  0.048
   27  0.000  0.000  0.035  0.036
   28  0.000  0.000  0.012  0.012
   29  0.000  0.000  0.009  0.009
   30  0.001  0.000  0.005  0.006
   31  0.000  0.000  0.009  0.009
   32  0.002  0.001  0.005  0.008
   33  0.001  0.000  0.005  0.006
   34  0.002  0.001  0.005  0.008
   35  0.000  0.000  0.005  0.005
   36  0.000  0.000  0.000  0.001
tot    0.056  0.008  0.781  0.844
 
band    13 # energy   -4.96631724 # occ.  2.00000000
 
ion      s      p      d    tot
    1  0.000  0.000  0.020  0.020
    2  0.000  0.000  0.008  0.008
    3  0.002  0.000  0.006  0.008
    4  0.000  0.000  0.008  0.008
    5  0.000  0.000  0.006  0.006
    6  0.003  0.000  0.007  0.010
    7  0.002  0.000  0.006  0.008
    8  0.003  0.000  0.007  0.010
    9  0.000  0.000  0.007  0.007
   10  0.001  0.000  0.032  0.033
   11  0.000  0.000  0.017  0.017
   12  0.000  0.000  0.038  0.039
   13  0.000  0.000  0.017  0.017
   14  0.001  0.000  0.035  0.035
   15  0.001  0.000  0.040  0.040
   16  0.000  0.000  0.038  0.039
   17  0.001  0.000  0.039  0.040
   18  0.003  0.000  0.008  0.011
   19  0.003  0.000  0.060  0.063
   20  0.008  0.000  0.008  0.017
   21  0.002  0.000  0.077  0.079
   22  0.000  0.000  0.018  0.018
   23  0.002  0.000  0.077  0.079
   24  0.001  0.000  0.044  0.045
   25  0.013  0.000  0.026  0.040
   26  0.003  0.000  0.059  0.063
   27  0.000  0.000  0.018  0.018
   28  0.000  0.000  0.012  0.012
   29  0.002  0.000  0.004  0.006
   30  0.001  0.001  0.008  0.009
   31  0.002  0.000  0.004  0.006
   32  0.000  0.000  0.008  0.008
   33  0.001  0.001  0.008  0.009
   34  0.000  0.000  0.008  0.008
   35  0.000  0.000  0.005  0.005
   36  0.000  0.000  0.000  0.001
tot    0.056  0.008  0.781  0.844
 
band    14 # energy   -4.95963917 # occ.  2.00000000
 
ion      s      p      d    tot
    1  0.000  0.000  0.004  0.005
    2  0.004  0.001  0.006  0.011
    3  0.001  0.000  0.010  0.011
    4  0.004  0.001  0.006  0.011
    5  0.000  0.000  0.017  0.017
    6  0.001  0.000  0.009  0.010
    7  0.001  0.000  0.010  0.011
    8  0.001  0.000  0.009  0.010
    9  0.000  0.000  0.017  0.017
   10  0.007  0.000  0.011  0.018
   11  0.001  0.000  0.049  0.051
   12  0.002  0.000  0.045  0.047
   13  0.001  0.000  0.049  0.051
   14  0.006  0.000  0.022  0.028
   15  0.000  0.000  0.024  0.024
   16  0.002  0.000  0.046  0.047
   17  0.000  0.000  0.025  0.025
   18  0.000  0.000  0.047  0.047
   19  0.001  0.000  0.041  0.042
   20  0.002  0.000  0.041  0.044
   21  0.001  0.000  0.022  0.023
   22  0.003  0.000  0.066  0.069
   23  0.001  0.000  0.022  0.022
   24  0.012  0.000  0.009  0.021
   25  0.003  0.000  0.019  0.022
   26  0.001  0.000  0.041  0.042
   27  0.003  0.000  0.067  0.070
   28  0.000  0.000  0.003  0.003
   29  0.000  0.000  0.007  0.007
   30  0.001  0.000  0.002  0.003
   31  0.000  0.000  0.007  0.007
   32  0.002  0.001  0.005  0.007
   33  0.001  0.000  0.002  0.003
   34  0.002  0.001  0.005  0.007
   35  0.000  0.000  0.007  0.007
   36  0.000  0.000  0.001  0.001
tot    0.063  0.008  0.772  0.843
 
band    15 # energy   -4.95961779 # occ.  2.00000000
 
ion      s      p      d    tot
    1  0.000  0.000  0.004  0.005
    2  0.000  0.000  0.011  0.011
    3  0.003  0.001  0.007  0.010
    4  0.000  0.000  0.011  0.011
    5  0.000  0.000  0.017  0.017
    6  0.003  0.000  0.008  0.011
    7  0.003  0.001  0.007  0.010
    8  0.003  0.000  0.008  0.011
    9  0.000  0.000  0.017  0.017
   10  0.000  0.000  0.056  0.056
   11  0.004  0.000  0.031  0.035
   12  0.005  0.000  0.023  0.028
   13  0.004  0.000  0.031  0.036
   14  0.000  0.000  0.058  0.058
   15  0.000  0.000  0.040  0.040
   16  0.005  0.000  0.022  0.028
   17  0.000  0.000  0.039  0.039
   18  0.000  0.000  0.017  0.017
   19  0.003  0.000  0.026  0.029
   20  0.000  0.000  0.015  0.015
   21  0.002  0.000  0.035  0.037
   22  0.009  0.000  0.029  0.038
   23  0.002  0.000  0.035  0.037
   24  0.000  0.000  0.086  0.086
   25  0.000  0.000  0.049  0.050
   26  0.003  0.000  0.026  0.029
   27  0.009  0.000  0.028  0.037
   28  0.000  0.000  0.003  0.003
   29  0.002  0.000  0.002  0.004
   30  0.001  0.000  0.007  0.008
   31  0.002  0.000  0.002  0.004
   32  0.000  0.000  0.004  0.004
   33  0.001  0.000  0.007  0.008
   34  0.000  0.000  0.004  0.004
   35  0.000  0.000  0.007  0.007
   36  0.000  0.000  0.001  0.001
tot    0.063  0.008  0.772  0.843
 
band    16 # energy   -4.92226088 # occ.  2.00000000
 
ion      s      p      d    tot
    1  0.001  0.000  0.002  0.003
    2  0.002  0.000  0.010  0.012
    3  0.002  0.000  0.010  0.012
    4  0.002  0.000  0.010  0.012
    5  0.006  0.000  0.007  0.013
    6  0.002  0.000  0.010  0.012
    7  0.002  0.000  0.010  0.012
    8  0.002  0.000  0.010  0.012
    9  0.001  0.000  0.015  0.016
   10  0.001  0.000  0.006  0.007
   11  0.001  0.000  0.015  0.016
   12  0.001  0.000  0.006  0.007
   13  0.001  0.000  0.015  0.016
   14  0.001  0.000  0.015  0.016
   15  0.002  0.000  0.015  0.016
   16  0.001  0.000  0.006  0.007
   17  0.002  0.000  0.015  0.016
   18  0.002  0.000  0.015  0.016
   19  0.002  0.000  0.016  0.018
   20  0.003  0.001  0.031  0.035
   21  0.003  0.001  0.031  0.035
   22  0.000  0.001  0.022  0.024
   23  0.003  0.001  0.031  0.035
   24  0.000  0.001  0.022  0.024
   25  0.002  0.000  0.016  0.018
   26  0.002  0.000  0.016  0.018
   27  0.000  0.001  0.022  0.024
   28  0.008  0.000  0.022  0.030
   29  0.012  0.000  0.029  0.041
   30  0.012  0.000  0.029  0.041
   31  0.012  0.000  0.029  0.041
   32  0.012  0.000  0.029  0.041
   33  0.012  0.000  0.029  0.041
   34  0.012  0.000  0.029  0.041
   35  0.024  0.000  0.024  0.049
   36  0.007  0.000  0.002  0.010
tot    0.157  0.009  0.616  0.783
 
band    17 # energy   -4.80763884 # occ.  2.00000000
 
ion      s      p      d    tot
    1  0.002  0.001  0.006  0.009
    2  0.000  0.000  0.010  0.011
    3  0.000  0.000  0.010  0.011
    4  0.000  0.000  0.010  0.011
    5  0.003  0.001  0.001  0.005
    6  0.000  0.000  0.010  0.011
    7  0.000  0.000  0.010  0.011
    8  0.000  0.000  0.010  0.011
    9  0.000  0.000  0.009  0.009
   10  0.000  0.001  0.046  0.047
   11  0.000  0.000  0.020  0.020
   12  0.000  0.001  0.045  0.046
   13  0.000  0.000  0.020  0.020
   14  0.000  0.000  0.020  0.020
   15  0.002  0.000  0.051  0.053
   16  0.000  0.001  0.045  0.046
   17  0.002  0.000  0.051  0.053
   18  0.002  0.000  0.051  0.053
   19  0.001  0.000  0.031  0.033
   20  0.000  0.000  0.019  0.020
   21  0.000  0.000  0.019  0.019
   22  0.001  0.001  0.056  0.058
   23  0.000  0.000  0.019  0.019
   24  0.001  0.001  0.056  0.058
   25  0.001  0.000  0.031  0.033
   26  0.001  0.000  0.031  0.033
   27  0.001  0.001  0.056  0.058
   28  0.003  0.000  0.007  0.010
   29  0.000  0.000  0.009  0.010
   30  0.000  0.000  0.009  0.010
   31  0.000  0.000  0.009  0.010
   32  0.000  0.000  0.009  0.010
   33  0.000  0.000  0.009  0.010
   34  0.000  0.000  0.009  0.010
   35  0.003  0.001  0.004  0.008
   36  0.003  0.001  0.000  0.004
tot    0.030  0.015  0.814  0.860
 
band    18 # energy   -4.80253610 # occ.  2.00000000
 
ion      s      p      d    tot
    1  0.001  0.000  0.003  0.004
    2  0.000  0.000  0.011  0.011
    3  0.000  0.000  0.011  0.011
    4  0.000  0.000  0.011  0.011
    5  0.000  0.001  0.017  0.018
    6  0.000  0.000  0.011  0.011
    7  0.000  0.000  0.011  0.011
    8  0.000  0.000  0.011  0.011
    9  0.004  0.001  0.001  0.005
   10  0.002  0.000  0.032  0.034
   11  0.000  0.001  0.060  0.061
   12  0.002  0.000  0.031  0.033
   13  0.000  0.001  0.060  0.061
   14  0.000  0.001  0.059  0.060
   15  0.000  0.000  0.024  0.024
   16  0.002  0.000  0.031  0.033
   17  0.000  0.000  0.024  0.024
   18  0.000  0.000  0.023  0.024
   19  0.001  0.001  0.048  0.049
   20  0.001  0.000  0.060  0.061
   21  0.001  0.000  0.059  0.060
   22  0.000  0.000  0.009  0.009
   23  0.001  0.000  0.059  0.060
   24  0.000  0.000  0.009  0.009
   25  0.001  0.001  0.047  0.048
   26  0.001  0.001  0.048  0.049
   27  0.000  0.000  0.009  0.009
   28  0.006  0.001  0.002  0.008
   29  0.001  0.000  0.008  0.009
   30  0.001  0.000  0.008  0.009
   31  0.001  0.000  0.008  0.009
   32  0.001  0.000  0.008  0.009
   33  0.001  0.000  0.008  0.009
   34  0.001  0.000  0.008  0.009
   35  0.000  0.000  0.001  0.001
   36  0.000  0.000  0.002  0.002
tot    0.026  0.014  0.827  0.867
 
band    19 # energy   -4.79699785 # occ.  2.00000000
 
ion      s      p      d    tot
    1  0.000  0.000  0.004  0.004
    2  0.000  0.000  0.010  0.011
    3  0.001  0.000  0.005  0.007
    4  0.000  0.000  0.010  0.011
    5  0.000  0.001  0.019  0.019
    6  0.001  0.001  0.009  0.011
    7  0.001  0.000  0.005  0.007
    8  0.001  0.001  0.008  0.011
    9  0.000  0.000  0.006  0.007
   10  0.000  0.000  0.069  0.069
   11  0.002  0.000  0.055  0.057
   12  0.000  0.001  0.035  0.035
   13  0.002  0.000  0.056  0.057
   14  0.000  0.000  0.078  0.079
   15  0.001  0.001  0.029  0.031
   16  0.000  0.001  0.034  0.035
   17  0.001  0.001  0.029  0.031
   18  0.000  0.000  0.000  0.000
   19  0.003  0.000  0.039  0.042
   20  0.000  0.000  0.077  0.077
   21  0.001  0.000  0.041  0.042
   22  0.000  0.001  0.019  0.020
   23  0.001  0.000  0.040  0.041
   24  0.000  0.000  0.012  0.012
   25  0.000  0.000  0.028  0.028
   26  0.003  0.000  0.038  0.042
   27  0.000  0.001  0.019  0.021
   28  0.000  0.001  0.015  0.016
   29  0.001  0.000  0.007  0.007
   30  0.002  0.001  0.005  0.007
   31  0.001  0.000  0.007  0.007
   32  0.000  0.000  0.005  0.006
   33  0.002  0.001  0.005  0.007
   34  0.000  0.000  0.005  0.006
   35  0.000  0.000  0.001  0.001
   36  0.000  0.001  0.001  0.001
tot    0.025  0.015  0.824  0.864
 
band    20 # energy   -4.79694683 # occ.  2.00000000
 
ion      s      p      d    tot
    1  0.000  0.000  0.004  0.004
    2  0.002  0.001  0.006  0.008
    3  0.001  0.001  0.011  0.012
    4  0.002  0.001  0.006  0.008
    5  0.000  0.001  0.019  0.019
    6  0.000  0.000  0.007  0.008
    7  0.000  0.001  0.011  0.012
    8  0.000  0.000  0.007  0.008
    9  0.000  0.000  0.007  0.007
   10  0.000  0.001  0.022  0.023
   11  0.001  0.000  0.072  0.072
   12  0.000  0.000  0.056  0.057
   13  0.001  0.000  0.071  0.072
   14  0.002  0.000  0.047  0.050
   15  0.000  0.000  0.010  0.010
   16  0.000  0.000  0.057  0.057
   17  0.000  0.000  0.010  0.011
   18  0.001  0.001  0.039  0.042
   19  0.001  0.000  0.031  0.032
   20  0.002  0.000  0.028  0.030
   21  0.000  0.000  0.065  0.066
   22  0.000  0.000  0.015  0.015
   23  0.000  0.000  0.065  0.066
   24  0.000  0.001  0.022  0.023
   25  0.004  0.001  0.042  0.047
   26  0.001  0.000  0.031  0.032
   27  0.000  0.000  0.015  0.015
   28  0.000  0.001  0.015  0.015
   29  0.001  0.000  0.004  0.006
   30  0.000  0.000  0.006  0.006
   31  0.001  0.000  0.004  0.006
   32  0.001  0.001  0.006  0.008
   33  0.000  0.000  0.006  0.006
   34  0.001  0.001  0.006  0.008
   35  0.000  0.000  0.001  0.001
   36  0.000  0.001  0.001  0.002
tot    0.025  0.015  0.824  0.864
 
band    21 # energy   -4.79597360 # occ.  2.00000000
 
ion      s      p      d    tot
    1  0.000  0.001  0.015  0.016
    2  0.000  0.000  0.010  0.010
    3  0.001  0.000  0.005  0.007
    4  0.000  0.000  0.010  0.010
    5  0.000  0.000  0.000  0.000
    6  0.001  0.001  0.009  0.011
    7  0.001  0.000  0.005  0.007
    8  0.001  0.001  0.009  0.011
    9  0.000  0.001  0.015  0.016
   10  0.002  0.001  0.047  0.051
   11  0.000  0.000  0.021  0.021
   12  0.001  0.000  0.029  0.030
   13  0.000  0.000  0.021  0.021
   14  0.000  0.001  0.026  0.027
   15  0.000  0.000  0.081  0.082
   16  0.001  0.000  0.029  0.030
   17  0.000  0.000  0.080  0.080
   18  0.002  0.000  0.034  0.036
   19  0.000  0.000  0.042  0.042
   20  0.002  0.001  0.028  0.032
   21  0.001  0.000  0.008  0.009
   22  0.001  0.000  0.065  0.066
   23  0.001  0.000  0.008  0.008
   24  0.003  0.000  0.046  0.050
   25  0.000  0.001  0.019  0.020
   26  0.000  0.000  0.041  0.042
   27  0.001  0.000  0.065  0.066
   28  0.000  0.000  0.002  0.002
   29  0.000  0.000  0.008  0.008
   30  0.001  0.001  0.005  0.006
   31  0.000  0.000  0.008  0.008
   32  0.000  0.000  0.006  0.007
   33  0.001  0.001  0.004  0.006
   34  0.000  0.000  0.006  0.006
   35  0.000  0.001  0.018  0.019
   36  0.000  0.000  0.001  0.001
tot    0.023  0.015  0.826  0.864
 
band    22 # energy   -4.79592557 # occ.  2.00000000
 
ion      s      p      d    tot
    1  0.000  0.001  0.015  0.015
    2  0.002  0.001  0.006  0.009
    3  0.000  0.001  0.011  0.012
    4  0.002  0.001  0.006  0.008
    5  0.000  0.000  0.000  0.000
    6  0.000  0.000  0.007  0.008
    7  0.000  0.001  0.011  0.012
    8  0.000  0.000  0.007  0.008
    9  0.000  0.001  0.015  0.016
   10  0.000  0.000  0.022  0.022
   11  0.000  0.001  0.024  0.025
   12  0.002  0.000  0.041  0.043
   13  0.000  0.001  0.024  0.025
   14  0.000  0.000  0.020  0.020
   15  0.001  0.000  0.049  0.051
   16  0.002  0.000  0.041  0.044