 vasp.6.2.0 18Jan21 (build Jun 12 2021 23:27:24) complex                        
  
 executed on             LinuxIFC date 2022.05.28  01:14:44
 running on   28 total cores
 distrk:  each k-point on   28 cores,    1 groups
 distr:  one band on NCORE=   1 cores,   28 groups


--------------------------------------------------------------------------------------------------------


 INCAR:
   ISMEAR = -5
   SIGMA = 0.1
   ISPIN = 1
   EDIFF = 1.d-5
   EDIFFG = -0.01
   NSW = 0
   NELM = 150
   ENCUT = 500
   ISIF = 2
   IBRION = 2
   LREAL = Auto
   ALGO = Fast
   ICHARG = 11
   LORBIT = 10
   LCHARG = .F.
   LWAVE = .F.

 POTCAR:    PAW_PBE Au 04Oct2007                  
 POTCAR:    PAW_PBE Os 17Jan2003                  
 POTCAR:    PAW_PBE C 08Apr2002                   
 POTCAR:    PAW_PBE O 08Apr2002                   
 -----------------------------------------------------------------------------
|                                                                             |
|           W    W    AA    RRRRR   N    N  II  N    N   GGGG   !!!           |
|           W    W   A  A   R    R  NN   N  II  NN   N  G    G  !!!           |
|           W    W  A    A  R    R  N N  N  II  N N  N  G       !!!           |
|           W WW W  AAAAAA  RRRRR   N  N N  II  N  N N  G  GGG   !            |
|           WW  WW  A    A  R   R   N   NN  II  N   NN  G    G                |
|           W    W  A    A  R    R  N    N  II  N    N   GGGG   !!!           |
|                                                                             |
|     For optimal performance we recommend to set                             |
|       NCORE = 2 up to number-of-cores-per-socket                            |
|     NCORE specifies how many cores store one orbital (NPAR=cpu/NCORE).      |
|     This setting can greatly improve the performance of VASP for DFT.       |
|     The default, NCORE=1 might be grossly inefficient on modern             |
|     multi-core architectures or massively parallel machines. Do your        |
|     own testing! More info at https://www.vasp.at/wiki/index.php/NCORE      |
|     Unfortunately you need to use the default for GW and RPA                |
|     calculations (for HF NCORE is supported but not extensively tested      |
|     yet).                                                                   |
|                                                                             |
 -----------------------------------------------------------------------------

 POTCAR:    PAW_PBE Au 04Oct2007                  
   VRHFIN =Au: s1d10                                                                                
   LEXCH  = PE                                                                                      
   EATOM  =   926.0867 eV,   68.0654 Ry                                                             
                                                                                                    
   TITEL  = PAW_PBE Au 04Oct2007                                                                    
   LULTRA =        F    use ultrasoft PP ?                                                          
   IUNSCR =        1    unscreen: 0-lin 1-nonlin 2-no                                               
   RPACOR =    2.330    partial core radius                                                         
   POMASS =  196.966; ZVAL   =   11.000    mass and valenz                                          
   RCORE  =    2.500    outmost cutoff radius                                                       
   RWIGS  =    2.840; RWIGS  =    1.503    wigner-seitz radius (au A)                               
   ENMAX  =  229.943; ENMIN  =  172.457 eV                                                          
   ICORE  =        3    local potential                                                             
   LCOR   =        T    correct aug charges                                                         
   LPAW   =        T    paw PP                                                                      
   EAUG   =  356.670                                                                                
   DEXC   =    0.000                                                                                
   RMAX   =    2.562    core radius for proj-oper                                                   
   RAUG   =    1.300    factor for augmentation sphere                                              
   RDEP   =    2.598    radius for radial grids                                                     
   RDEPT  =    2.193    core radius for aug-charge                                                  
                                                                                                    
   Atomic configuration                                                                             
   16 entries                                                                                       
     n  l   j            E        occ.                                                              
     1  0  0.50    -80748.5001   2.0000                                                             
     2  0  0.50    -14244.7466   2.0000                                                             
     2  1  1.50    -12310.9591   6.0000                                                             
     3  0  0.50     -3362.1768   2.0000                                                             
     3  1  1.50     -2801.5463   6.0000                                                             
     3  2  2.50     -2203.8206  10.0000                                                             
     4  0  0.50      -729.8168   2.0000                                                             
     4  1  1.50      -546.0527   6.0000                                                             
     4  2  2.50      -325.7302  10.0000                                                             
     4  3  3.50       -81.1472  14.0000                                                             
     5  0  0.50      -108.3201   2.0000                                                             
     5  1  1.50       -59.7479   6.0000                                                             
     5  2  2.50        -6.8783  10.0000                                                             
     6  0  0.50        -5.7602   1.0000                                                             
     6  1  1.50        -6.8029   0.0000                                                             
     5  3  2.50        -1.3606   0.0000                                                             
   Description                                                                                      
     l       E           TYP  RCUT    TYP  RCUT                                                     
     2     -6.8782861     23  2.500                                                                 
     2     -8.2388687     23  2.500                                                                 
     0     -5.7601759     23  2.500                                                                 
     0     -0.8493231     23  2.500                                                                 
     1     -2.7211652     23  2.500                                                                 
     1     27.2116520     23  2.500                                                                 
     3     -1.3605826     23  2.500                                                                 
  local pseudopotential read in
  partial core-charges read in
  partial kinetic energy density read in
  atomic valenz-charges read in
  non local Contribution for L=           2  read in
    real space projection operators read in
  non local Contribution for L=           2  read in
    real space projection operators read in
  non local Contribution for L=           0  read in
    real space projection operators read in
  non local Contribution for L=           0  read in
    real space projection operators read in
  non local Contribution for L=           1  read in
    real space projection operators read in
  non local Contribution for L=           1  read in
    real space projection operators read in
    PAW grid and wavefunctions read in
 
   number of l-projection  operators is LMAX  =           6
   number of lm-projection operators is LMMAX =          18
 
 POTCAR:    PAW_PBE Os 17Jan2003                  
   VRHFIN =Os: 6s5d                                                                                 
   LEXCH  = PE                                                                                      
   EATOM  =   417.5999 eV,   30.6927 Ry                                                             
                                                                                                    
   TITEL  = PAW_PBE Os 17Jan2003                                                                    
   LULTRA =        F    use ultrasoft PP ?                                                          
   IUNSCR =        1    unscreen: 0-lin 1-nonlin 2-no                                               
   RPACOR =    2.250    partial core radius                                                         
   POMASS =  190.200; ZVAL   =    8.000    mass and valenz                                          
   RCORE  =    2.700    outmost cutoff radius                                                       
   RWIGS  =    2.670; RWIGS  =    1.413    wigner-seitz radius (au A)                               
   ENMAX  =  228.022; ENMIN  =  171.017 eV                                                          
   RCLOC  =    2.004    cutoff for local pot                                                        
   LCOR   =        T    correct aug charges                                                         
   LPAW   =        T    paw PP                                                                      
   EAUG   =  365.080                                                                                
   DEXC   =    0.000                                                                                
   RMAX   =    2.766    core radius for proj-oper                                                   
   RAUG   =    1.300    factor for augmentation sphere                                              
   RDEP   =    2.738    radius for radial grids                                                     
   RDEPT  =    2.220    core radius for aug-charge                                                  
                                                                                                    
   Atomic configuration                                                                             
   16 entries                                                                                       
     n  l   j            E        occ.                                                              
     1  0  0.50    -73844.2437   2.0000                                                             
     2  0  0.50    -12856.6893   2.0000                                                             
     2  1  1.50    -11191.7995   6.0000                                                             
     3  0  0.50     -2990.1422   2.0000                                                             
     3  1  1.50     -2501.5221   6.0000                                                             
     3  2  2.50     -1956.5818  10.0000                                                             
     4  0  0.50      -629.1606   2.0000                                                             
     4  1  1.50      -468.9548   6.0000                                                             
     4  2  2.50      -270.2868  10.0000                                                             
     4  3  3.50       -49.5699  14.0000                                                             
     5  0  0.50       -89.1521   2.0000                                                             
     5  1  1.50       -48.6063   6.0000                                                             
     5  2  2.50        -4.7055   7.0000                                                             
     6  0  0.50        -5.4288   1.0000                                                             
     6  1  1.50        -2.7212   0.0000                                                             
     5  3  2.50        -6.8029   0.0000                                                             
   Description                                                                                      
     l       E           TYP  RCUT    TYP  RCUT                                                     
     2     -4.7055230     23  2.500                                                                 
     2     -6.0661056     23  2.500                                                                 
     0     -5.4288441     23  2.500                                                                 
     0      3.7338294     23  2.500                                                                 
     1     -2.7211652     23  2.700                                                                 
     1     27.2116520     23  2.700                                                                 
  local pseudopotential read in
  partial core-charges read in
  partial kinetic energy density read in
  atomic valenz-charges read in
  non local Contribution for L=           2  read in
    real space projection operators read in
  non local Contribution for L=           2  read in
    real space projection operators read in
  non local Contribution for L=           0  read in
    real space projection operators read in
  non local Contribution for L=           0  read in
    real space projection operators read in
  non local Contribution for L=           1  read in
    real space projection operators read in
  non local Contribution for L=           1  read in
    real space projection operators read in
    PAW grid and wavefunctions read in
 
   number of l-projection  operators is LMAX  =           6
   number of lm-projection operators is LMMAX =          18
 
 POTCAR:    PAW_PBE C 08Apr2002                   
   VRHFIN =C: s2p2                                                                                  
   LEXCH  = PE                                                                                      
   EATOM  =   147.1560 eV,   10.8157 Ry                                                             
                                                                                                    
   TITEL  = PAW_PBE C 08Apr2002                                                                     
   LULTRA =        F    use ultrasoft PP ?                                                          
   IUNSCR =        1    unscreen: 0-lin 1-nonlin 2-no                                               
   RPACOR =    1.200    partial core radius                                                         
   POMASS =   12.011; ZVAL   =    4.000    mass and valenz                                          
   RCORE  =    1.500    outmost cutoff radius                                                       
   RWIGS  =    1.630; RWIGS  =    0.863    wigner-seitz radius (au A)                               
   ENMAX  =  400.000; ENMIN  =  300.000 eV                                                          
   ICORE  =        2    local potential                                                             
   LCOR   =        T    correct aug charges                                                         
   LPAW   =        T    paw PP                                                                      
   EAUG   =  644.873                                                                                
   DEXC   =    0.000                                                                                
   RMAX   =    1.529    core radius for proj-oper                                                   
   RAUG   =    1.300    factor for augmentation sphere                                              
   RDEP   =    1.501    radius for radial grids                                                     
   RDEPT  =    1.300    core radius for aug-charge                                                  
                                                                                                    
   Atomic configuration                                                                             
    4 entries                                                                                       
     n  l   j            E        occ.                                                              
     1  0  0.50      -273.3789   2.0000                                                             
     2  0  0.50       -13.7508   2.0000                                                             
     2  1  0.50        -5.2854   2.0000                                                             
     3  2  1.50        -5.4423   0.0000                                                             
   Description                                                                                      
     l       E           TYP  RCUT    TYP  RCUT                                                     
     0    -13.7508458     23  1.200                                                                 
     0     -8.2022199     23  1.200                                                                 
     1     -5.2854383     23  1.500                                                                 
     1     34.0145650     23  1.500                                                                 
     2     -5.4423304      7  1.500                                                                 
  local pseudopotential read in
  partial core-charges read in
  partial kinetic energy density read in
  atomic valenz-charges read in
  non local Contribution for L=           0  read in
    real space projection operators read in
  non local Contribution for L=           0  read in
    real space projection operators read in
  non local Contribution for L=           1  read in
    real space projection operators read in
  non local Contribution for L=           1  read in
    real space projection operators read in
    PAW grid and wavefunctions read in
 
   number of l-projection  operators is LMAX  =           4
   number of lm-projection operators is LMMAX =           8
 
 POTCAR:    PAW_PBE O 08Apr2002                   
   VRHFIN =O: s2p4                                                                                  
   LEXCH  = PE                                                                                      
   EATOM  =   432.3788 eV,   31.7789 Ry                                                             
                                                                                                    
   TITEL  = PAW_PBE O 08Apr2002                                                                     
   LULTRA =        F    use ultrasoft PP ?                                                          
   IUNSCR =        1    unscreen: 0-lin 1-nonlin 2-no                                               
   RPACOR =    1.200    partial core radius                                                         
   POMASS =   16.000; ZVAL   =    6.000    mass and valenz                                          
   RCORE  =    1.520    outmost cutoff radius                                                       
   RWIGS  =    1.550; RWIGS  =    0.820    wigner-seitz radius (au A)                               
   ENMAX  =  400.000; ENMIN  =  300.000 eV                                                          
   ICORE  =        2    local potential                                                             
   LCOR   =        T    correct aug charges                                                         
   LPAW   =        T    paw PP                                                                      
   EAUG   =  605.392                                                                                
   DEXC   =    0.000                                                                                
   RMAX   =    1.553    core radius for proj-oper                                                   
   RAUG   =    1.300    factor for augmentation sphere                                              
   RDEP   =    1.550    radius for radial grids                                                     
   RDEPT  =    1.329    core radius for aug-charge                                                  
                                                                                                    
   Atomic configuration                                                                             
    4 entries                                                                                       
     n  l   j            E        occ.                                                              
     1  0  0.50      -514.6923   2.0000                                                             
     2  0  0.50       -23.9615   2.0000                                                             
     2  1  0.50        -9.0305   4.0000                                                             
     3  2  1.50        -9.5241   0.0000                                                             
   Description                                                                                      
     l       E           TYP  RCUT    TYP  RCUT                                                     
     0    -23.9615318     23  1.200                                                                 
     0     -9.5240782     23  1.200                                                                 
     1     -9.0304911     23  1.520                                                                 
     1      8.1634956     23  1.520                                                                 
     2     -9.5240782      7  1.500                                                                 
  local pseudopotential read in
  partial core-charges read in
  partial kinetic energy density read in
  kinetic energy density of atom read in
  atomic valenz-charges read in
  non local Contribution for L=           0  read in
    real space projection operators read in
  non local Contribution for L=           0  read in
    real space projection operators read in
  non local Contribution for L=           1  read in
    real space projection operators read in
  non local Contribution for L=           1  read in
    real space projection operators read in
    PAW grid and wavefunctions read in
 
   number of l-projection  operators is LMAX  =           4
   number of lm-projection operators is LMMAX =           8
 
 Optimization of the real space projectors (new method)

 maximal supplied QI-value         = 15.12
 optimisation between [QCUT,QGAM] = [ 11.34, 22.83] = [ 36.00,145.93] Ry 
 Optimized for a Real-space Cutoff    1.39 Angstroem

   l    n(q)    QCUT    max X(q) W(low)/X(q) W(high)/X(q)  e(spline) 
   2      9    11.338    60.898    0.39E-03    0.42E-03    0.21E-06
   2      9    11.338    58.894    0.40E-03    0.42E-03    0.22E-06
   0      9    11.338   109.617    0.13E-03    0.20E-04    0.13E-06
   0      9    11.338    75.026    0.13E-03    0.20E-04    0.13E-06
   1      9    11.338    16.344    0.33E-04    0.24E-03    0.18E-06
   1      9    11.338    10.160    0.26E-04    0.19E-03    0.15E-06
 Optimization of the real space projectors (new method)

 maximal supplied QI-value         = 13.98
 optimisation between [QCUT,QGAM] = [ 11.33, 22.79] = [ 35.93,145.49] Ry 
 Optimized for a Real-space Cutoff    1.56 Angstroem

   l    n(q)    QCUT    max X(q) W(low)/X(q) W(high)/X(q)  e(spline) 
   2     10    11.327   152.873    0.32E-03    0.72E-03    0.11E-05
   2     10    11.327   151.010    0.32E-03    0.72E-03    0.11E-05
   0     11    11.327    72.114    0.43E-04    0.61E-04    0.13E-06
   0     11    11.327    44.596    0.40E-04    0.57E-04    0.12E-06
   1     10    11.327    13.742    0.16E-03    0.10E-03    0.19E-06
   1     10    11.327     8.461    0.12E-03    0.78E-04    0.15E-06
 Optimization of the real space projectors (new method)

 maximal supplied QI-value         = 25.13
 optimisation between [QCUT,QGAM] = [ 11.31, 22.87] = [ 35.82,146.48] Ry 
 Optimized for a Real-space Cutoff    1.00 Angstroem

   l    n(q)    QCUT    max X(q) W(low)/X(q) W(high)/X(q)  e(spline) 
   0      7    11.310   115.676    0.43E-03    0.13E-02    0.19E-06
   0      7    11.310    87.132    0.43E-03    0.13E-02    0.18E-06
   1      6    11.310     4.429    0.42E-03    0.74E-03    0.11E-06
   1      6    11.310     2.733    0.34E-03    0.55E-03    0.92E-07
 Optimization of the real space projectors (new method)

 maximal supplied QI-value         = 24.76
 optimisation between [QCUT,QGAM] = [ 11.39, 22.77] = [ 36.31,145.25] Ry 
 Optimized for a Real-space Cutoff    1.00 Angstroem

   l    n(q)    QCUT    max X(q) W(low)/X(q) W(high)/X(q)  e(spline) 
   0      7    11.387    20.381    0.39E-03    0.13E-02    0.15E-06
   0      7    11.387    15.268    0.42E-03    0.14E-02    0.17E-06
   1      6    11.387     5.964    0.41E-03    0.11E-02    0.17E-06
   1      6    11.387     5.382    0.39E-03    0.87E-03    0.15E-06
  PAW_PBE Au 04Oct2007                  :
 energy of atom  1       EATOM= -926.0867
 kinetic energy error for atom=    0.0042 (will be added to EATOM!!)
  PAW_PBE Os 17Jan2003                  :
 energy of atom  2       EATOM= -417.5999
 kinetic energy error for atom=    0.0029 (will be added to EATOM!!)
  PAW_PBE C 08Apr2002                   :
 energy of atom  3       EATOM= -147.1560
 kinetic energy error for atom=    0.0076 (will be added to EATOM!!)
  PAW_PBE O 08Apr2002                   :
 energy of atom  4       EATOM= -432.3788
 kinetic energy error for atom=    0.0224 (will be added to EATOM!!)
 
 
 POSCAR: Au-Os-CO2
  positions in direct lattice
  velocities in cartesian coordinates
 exchange correlation table for  LEXCH =        8
   RHO(1)=    0.500       N(1)  =     2000
   RHO(2)=  100.500       N(2)  =     4000

 VTST: version 3.2, (02/03/18)

 CHAIN: initializing optimizer
 
 OPT: Using VASP Conjugate-Gradient optimizer
 CHAIN: Read ICHAIN            0
 
 POSCAR: Au-Os-CO2
  positions in direct lattice
  velocities in cartesian coordinates
 


--------------------------------------------------------------------------------------------------------


 ion  position               nearest neighbor table
   1  0.000  0.000  0.217-  16 2.94  12 2.94   6 2.94   8 2.94   7 2.94   3 2.94  10 2.94   4 2.94
                             2 2.94
   2  0.333  0.000  0.217-   9 2.94  11 2.94  17 2.94  10 2.94   8 2.94   4 2.94   5 2.94   1 2.94
                             3 2.94
   3  0.667  0.000  0.217-   7 2.94  18 2.94  12 2.94   1 2.94  11 2.94   5 2.94   6 2.94   9 2.94
                             2 2.94
   4  0.000  0.333  0.217-  10 2.94   6 2.94   5 2.94  13 2.94   2 2.94  15 2.94   9 2.94   1 2.94
                             7 2.94
   5  0.333  0.333  0.217-  13 2.94   7 2.94  11 2.94   4 2.94   2 2.94  14 2.94   3 2.94   8 2.94
                             6 2.94
   6  0.667  0.333  0.217-  15 2.94  14 2.94   1 2.94  12 2.94   4 2.94   9 2.94   8 2.94   3 2.94
                             5 2.94
   7  0.000  0.667  0.217-  18 2.94   3 2.94  16 2.94   5 2.94   1 2.94  13 2.94   8 2.94   4 2.94
                             9 2.94
   8  0.333  0.667  0.217-   9 2.94  17 2.94   1 2.94   2 2.94  14 2.94  16 2.94   6 2.94   7 2.94
                             5 2.94
   9  0.667  0.667  0.217-   2 2.94   8 2.94  17 2.94   6 2.94  15 2.94   4 2.94   3 2.94  18 2.94
                             7 2.94
  10  0.111  0.111  0.315-  20 2.90  11 2.94  17 2.94   2 2.94   4 2.94   1 2.94  12 2.94  16 2.94
                            13 2.94  15 2.94  26 2.95  19 2.95
  11  0.444  0.111  0.315-  20 2.91  21 2.91  27 2.94  13 2.94   2 2.94  10 2.94  17 2.94   5 2.94
                             3 2.94  18 2.94  14 2.94  12 2.94
  12  0.778  0.111  0.315-  21 2.90  16 2.94  18 2.94   1 2.94  14 2.94  15 2.94   3 2.94   6 2.94
                            10 2.94  11 2.94  25 2.95  19 2.95
  13  0.111  0.444  0.315-  23 2.91  20 2.91  22 2.94   5 2.94  18 2.94  11 2.94   7 2.94   4 2.94
                            16 2.94  10 2.94  14 2.94  15 2.94
  14  0.444  0.444  0.315-  21 2.91  23 2.91  24 2.94  15 2.94   6 2.94  12 2.94   8 2.94  17 2.94
                             5 2.94  16 2.94  13 2.94  11 2.94
  15  0.778  0.444  0.315-  24 2.92  22 2.92  14 2.94   6 2.94  17 2.94  12 2.94   9 2.94   4 2.94
                            10 2.94  13 2.94  18 2.94  19 2.95
  16  0.111  0.778  0.315-  23 2.90  18 2.94  12 2.94   7 2.94   1 2.94   8 2.94  13 2.94  10 2.94
                            14 2.94  17 2.94  25 2.95  26 2.95
  17  0.444  0.778  0.315-  27 2.92  24 2.92   9 2.94  15 2.94   2 2.94  10 2.94  11 2.94   8 2.94
                            14 2.94  16 2.94  18 2.94  26 2.95
  18  0.778  0.778  0.315-  22 2.92  27 2.92  16 2.94   7 2.94  13 2.94  12 2.94   3 2.94  11 2.94
                             9 2.94  15 2.94  17 2.94  25 2.95
  19  0.888  0.223  0.414-  24 2.93  22 2.93  21 2.93  20 2.93  28 2.95  15 2.95  26 2.95  25 2.95
                            10 2.95  12 2.95  32 2.98  31 2.98
  20  0.222  0.222  0.412-  36 2.77  10 2.90  11 2.91  13 2.91  26 2.93  19 2.93  23 2.95  21 2.95
                            27 2.96  22 2.96  29 2.96  31 2.96
  21  0.556  0.222  0.412-  36 2.77  12 2.90  14 2.91  11 2.91  25 2.93  19 2.93  20 2.95  23 2.95
                            27 2.96  24 2.96  30 2.96  32 2.96
  22  0.886  0.557  0.413-  24 2.90  27 2.90  18 2.92  15 2.92  25 2.93  19 2.93  13 2.94  35 2.95
                            23 2.96  20 2.96  33 2.98  31 2.98
  23  0.222  0.556  0.412-  36 2.77  16 2.90  13 2.91  14 2.91  25 2.93  26 2.93  20 2.95  21 2.95
                            22 2.96  24 2.96  33 2.96  34 2.96
  24  0.557  0.557  0.413-  27 2.90  22 2.90  15 2.92  17 2.92  26 2.93  19 2.93  14 2.94  35 2.95
                            21 2.96  23 2.96  32 2.98  34 2.98
  25  0.888  0.888  0.414-  22 2.93  27 2.93  23 2.93  21 2.93  28 2.95  18 2.95  19 2.95  26 2.95
                            16 2.95  12 2.95  33 2.98  30 2.98
  26  0.223  0.888  0.414-  27 2.93  24 2.93  20 2.93  23 2.93  28 2.95  17 2.95  19 2.95  25 2.95
                            10 2.95  16 2.95  29 2.98  34 2.98
  27  0.557  0.886  0.413-  24 2.90  22 2.90  17 2.92  18 2.92  26 2.93  25 2.93  11 2.94  35 2.95
                            20 2.96  21 2.96  29 2.98  30 2.98
  28  0.000  0.000  0.513-  25 2.95  19 2.95  26 2.95  34 2.98  32 2.98  33 2.98  30 2.98  31 2.98
                            29 2.98
  29  0.333  0.009  0.513-  31 2.86  30 2.86  36 2.88  20 2.96  28 2.98  35 2.98  27 2.98  26 2.98
                            34 3.09
  30  0.658  0.009  0.513-  32 2.86  29 2.86  36 2.88  21 2.96  28 2.98  35 2.98  27 2.98  25 2.98
                            33 3.09
  31  0.009  0.333  0.513-  29 2.86  33 2.86  36 2.88  20 2.96  28 2.98  35 2.98  22 2.98  19 2.98
                            32 3.09
  32  0.658  0.333  0.513-  30 2.86  34 2.86  36 2.88  21 2.96  28 2.98  35 2.98  24 2.98  19 2.98
                            31 3.09
  33  0.009  0.658  0.513-  34 2.86  31 2.86  36 2.88  23 2.96  28 2.98  35 2.98  22 2.98  25 2.98
                            30 3.09
  34  0.333  0.658  0.513-  33 2.86  32 2.86  36 2.88  23 2.96  28 2.98  35 2.98  24 2.98  26 2.98
                            29 3.09
  35  0.667  0.667  0.513-  24 2.95  27 2.95  22 2.95  29 2.98  34 2.98  32 2.98  31 2.98  30 2.98
                            33 2.98
  36  0.333  0.333  0.501-  37 2.34  20 2.77  23 2.77  21 2.77  33 2.88  31 2.88  29 2.88  30 2.88
                            34 2.88  32 2.88
  37  0.333  0.334  0.597-  38 1.22  39 1.22  36 2.34
  38  0.201  0.333  0.612-  37 1.22
  39  0.466  0.333  0.612-  37 1.22
 
  LATTYP: Found a hexagonal cell.
 ALAT       =     8.8135128021
 C/A-ratio  =     2.7649717827
  
  Lattice vectors:
  
 A1 = (  -4.4067569092,  -7.6327256898,   0.0000000000)
 A2 = (   8.8135128021,   0.0000000000,   0.0000000000)
 A3 = (   0.0000000000,   0.0000000000,  24.3691142040)


Analysis of symmetry for initial positions (statically):
=====================================================================
 Subroutine PRICEL returns:
 Original cell was already a primitive cell.
 

 Routine SETGRP: Setting up the symmetry group for a 
 hexagonal supercell.


 Subroutine GETGRP returns: Found  1 space group operations
 (whereof  1 operations were pure point group operations)
 out of a pool of 24 trial point group operations.


The static configuration has the point symmetry C_1 .


Analysis of symmetry for dynamics (positions and initial velocities):
=====================================================================
 Subroutine PRICEL returns:
 Original cell was already a primitive cell.
 

 Routine SETGRP: Setting up the symmetry group for a 
 hexagonal supercell.


 Subroutine GETGRP returns: Found  1 space group operations
 (whereof  1 operations were pure point group operations)
 out of a pool of 24 trial point group operations.


The dynamic configuration has the point symmetry C_1 .


Analysis of constrained symmetry for selective dynamics:
=====================================================================
 Subroutine PRICEL returns:
 Original cell was already a primitive cell.
 

 Routine SETGRP: Setting up the symmetry group for a 
 hexagonal supercell.


 Subroutine GETGRP returns: Found  1 space group operations
 (whereof  1 operations were pure point group operations)
 out of a pool of 24 trial point group operations.


The constrained configuration has the point symmetry C_1 .


 Subroutine INISYM returns: Found  1 space group operations
 (whereof  1 operations are pure point group operations),
 and found     1 'primitive' translations


----------------------------------------------------------------------------------------

                                     Primitive cell                                     

  volume of cell :    1639.3377

  direct lattice vectors                    reciprocal lattice vectors
     8.813512802  0.000000000  0.000000000     0.113462137 -0.065507406  0.000000000
     4.406756909  7.632725690  0.000000000     0.000000000  0.131014796  0.000000000
     0.000000000  0.000000000 24.369114204     0.000000000  0.000000000  0.041035550

  length of vectors
     8.813512802  8.813512802 24.369114204     0.131014796  0.131014796  0.041035550

  position of ions in fractional coordinates (direct lattice)
     0.000000000  0.000000000  0.216683294
     0.333333343  0.000000000  0.216683294
     0.666666687  0.000000000  0.216683294
     1.000000000  0.333333343  0.216683294
     0.333333313  0.333333343  0.216683294
     0.666666687  0.333333343  0.216683294
     1.000000000  0.666666687  0.216683294
     0.333333343  0.666666687  0.216683294
     0.666666627  0.666666687  0.216683294
     0.111111119  0.111111112  0.315116667
     0.444444418  0.111111112  0.315116667
     0.777777791  0.111111112  0.315116667
     0.111111127  0.444444448  0.315116667
     0.444444478  0.444444448  0.315116667
     0.777777731  0.444444448  0.315116667
     0.111111090  0.777777791  0.315116667
     0.444444448  0.777777791  0.315116667
     0.777777851  0.777777791  0.315116667
     0.888433906  0.223132205  0.414251792
     0.221845884  0.221845869  0.411820484
     0.556308293  0.221845869  0.411820484
     0.886246892  0.556876584  0.412935118
     0.221845839  0.556308293  0.411820484
     0.556876584  0.556876584  0.412935118
     0.888433906  0.888433906  0.414251792
     0.223132235  0.888433906  0.414251792
     0.556876524  0.886246892  0.412935118
     0.000000000  0.000000000  0.512902256
     0.333311485  0.008509540  0.513056020
     0.658179005  0.008509540  0.513056020
     0.008509540  0.333311485  0.513056020
     0.658179005  0.333311485  0.513056020
     0.008509540  0.658179005  0.513056020
     0.333311485  0.658179005  0.513056020
     0.666666627  0.666666687  0.512780718
     0.333333313  0.333333343  0.501243777
     0.332856569  0.333999132  0.597352239
     0.200855685  0.333249038  0.611667946
     0.465513866  0.333462287  0.611657205

  ion indices of the primitive-cell ions
   primitive index   ion index
                 1           1
                 2           2
                 3           3
                 4           4
                 5           5
                 6           6
                 7           7
                 8           8
                 9           9
                10          10
                11          11
                12          12
                13          13
                14          14
                15          15
                16          16
                17          17
                18          18
                19          19
                20          20
                21          21
                22          22
                23          23
                24          24
                25          25
                26          26
                27          27
                28          28
                29          29
                30          30
                31          31
                32          32
                33          33
                34          34
                35          35
                36          36
                37          37
                38          38
                39          39

----------------------------------------------------------------------------------------

 
 
 KPOINTS: Automatic mesh                          

Automatic generation of k-mesh.
 Grid dimensions read from file:
 generate k-points for:    8    8    1

 Generating k-lattice:

  Cartesian coordinates                     Fractional coordinates (reciprocal lattice)
     0.014182767 -0.008188426  0.000000000     0.125000000 -0.000000000  0.000000000
     0.000000000  0.016376850  0.000000000     0.000000000  0.125000000  0.000000000
     0.000000000  0.000000000  0.041035550     0.000000000  0.000000000  1.000000000

  Length of vectors
     0.016376850  0.016376850  0.041035550

  Shift w.r.t. Gamma in fractional coordinates (k-lattice)
     0.000000000  0.000000000  0.000000000

 TETIRR: Found    192 inequivalent tetrahedra from      384
 
 Subroutine IBZKPT returns following result:
 ===========================================
 
 Found     34 irreducible k-points:
 
 Following reciprocal coordinates:
            Coordinates               Weight
  0.000000  0.000000  0.000000      1.000000
  0.125000  0.000000  0.000000      2.000000
  0.125000  0.125000  0.000000      2.000000
  0.000000  0.125000  0.000000      2.000000
  0.250000  0.000000  0.000000      2.000000
  0.250000  0.250000  0.000000      2.000000
  0.000000  0.250000  0.000000      2.000000
  0.375000 -0.000000  0.000000      2.000000
  0.375000  0.375000  0.000000      2.000000
  0.000000  0.375000  0.000000      2.000000
  0.500000  0.000000  0.000000      1.000000
  0.500000  0.500000  0.000000      1.000000
  0.000000  0.500000  0.000000      1.000000
  0.250000  0.125000  0.000000      2.000000
  0.125000  0.250000  0.000000      2.000000
 -0.125000  0.125000  0.000000      2.000000
  0.375000  0.125000  0.000000      2.000000
  0.250000  0.375000  0.000000      2.000000
 -0.125000  0.250000  0.000000      2.000000
  0.250000 -0.125000  0.000000      2.000000
 -0.125000 -0.375000  0.000000      2.000000
 -0.375000 -0.250000  0.000000      2.000000
  0.500000  0.125000  0.000000      2.000000
  0.375000  0.500000  0.000000      2.000000
 -0.125000  0.375000  0.000000      2.000000
  0.375000 -0.125000  0.000000      2.000000
 -0.125000  0.500000  0.000000      2.000000
  0.500000 -0.375000  0.000000      2.000000
  0.500000  0.250000  0.000000      2.000000
  0.250000  0.500000  0.000000      2.000000
 -0.250000  0.250000  0.000000      2.000000
 -0.375000  0.250000  0.000000      2.000000
  0.375000 -0.375000  0.000000      2.000000
 -0.250000  0.375000  0.000000      2.000000
 
 Following cartesian coordinates:
            Coordinates               Weight
  0.000000  0.000000  0.000000      1.000000
  0.014183 -0.008188  0.000000      2.000000
  0.014183  0.008188  0.000000      2.000000
  0.000000  0.016377  0.000000      2.000000
  0.028366 -0.016377  0.000000      2.000000
  0.028366  0.016377  0.000000      2.000000
  0.000000  0.032754  0.000000      2.000000
  0.042548 -0.024565  0.000000      2.000000
  0.042548  0.024565  0.000000      2.000000
  0.000000  0.049131  0.000000      2.000000
  0.056731 -0.032754  0.000000      1.000000
  0.056731  0.032754  0.000000      1.000000
  0.000000  0.065507  0.000000      1.000000
  0.028366 -0.000000  0.000000      2.000000
  0.014183  0.024565  0.000000      2.000000
 -0.014183  0.024565  0.000000      2.000000
  0.042548 -0.008188  0.000000      2.000000
  0.028366  0.032754  0.000000      2.000000
 -0.014183  0.040942  0.000000      2.000000
  0.028366 -0.032754  0.000000      2.000000
 -0.014183 -0.040942  0.000000      2.000000
 -0.042548 -0.008188  0.000000      2.000000
  0.056731 -0.016377  0.000000      2.000000
  0.042548  0.040942  0.000000      2.000000
 -0.014183  0.057319  0.000000      2.000000
  0.042548 -0.040942  0.000000      2.000000
 -0.014183  0.073696  0.000000      2.000000
  0.056731 -0.081884  0.000000      2.000000
  0.056731 -0.000000  0.000000      2.000000
  0.028366  0.049131  0.000000      2.000000
 -0.028366  0.049131  0.000000      2.000000
 -0.042548  0.057319  0.000000      2.000000
  0.042548 -0.073696  0.000000      2.000000
 -0.028366  0.065507  0.000000      2.000000
 


--------------------------------------------------------------------------------------------------------




 Dimension of arrays:
   k-points           NKPTS =     34   k-points in BZ     NKDIM =     34   number of bands    NBANDS=    252
   number of dos      NEDOS =    301   number of ions     NIONS =     39
   non local maximal  LDIM  =      6   non local SUM 2l+1 LMDIM =     18
   total plane-waves  NPLWV = 322560
   max r-space proj   IRMAX =   3204   max aug-charges    IRDMAX=  12231
   dimension x,y,z NGX =    48 NGY =   48 NGZ =  140
   dimension x,y,z NGXF=    96 NGYF=   96 NGZF=  280
   support grid    NGXF=    96 NGYF=   96 NGZF=  280
   ions per type =              35   1   1   2
   NGX,Y,Z   is equivalent  to a cutoff of   9.05,  9.05,  9.55 a.u.
   NGXF,Y,Z  is equivalent  to a cutoff of  18.11, 18.11, 19.10 a.u.

 SYSTEM =  unknown system                          
 POSCAR =  Au-Os-CO2                               

 Startparameter for this run:
   NWRITE =      2    write-flag & timer
   PREC   = normal    normal or accurate (medium, high low for compatibility)
   ISTART =      0    job   : 0-new  1-cont  2-samecut
   ICHARG =     11    charge: 1-file 2-atom 10-const
   ISPIN  =      1    spin polarized calculation?
   LNONCOLLINEAR =      F non collinear calculations
   LSORBIT =      F    spin-orbit coupling
   INIWAV =      1    electr: 0-lowe 1-rand  2-diag
   LASPH  =      F    aspherical Exc in radial PAW
   METAGGA=      F    non-selfconsistent MetaGGA calc.

 Electronic Relaxation 1
   ENCUT  =  500.0 eV  36.75 Ry    6.06 a.u.  16.07 16.07 44.43*2*pi/ulx,y,z
   ENINI  =  500.0     initial cutoff
   ENAUG  =  644.9 eV  augmentation charge cutoff
   NELM   =    150;   NELMIN=  2; NELMDL= -5     # of ELM steps 
   EDIFF  = 0.1E-04   stopping-criterion for ELM
   LREAL  =      T    real-space projection
   NLSPLINE    = F    spline interpolate recip. space projectors
   LCOMPAT=      F    compatible to vasp.4.4
   GGA_COMPAT  = T    GGA compatible to vasp.4.4-vasp.4.6
   LMAXPAW     = -100 max onsite density
   LMAXMIX     =    2 max onsite mixed and CHGCAR
   VOSKOWN=      0    Vosko Wilk Nusair interpolation
   ROPT   =   -0.00050  -0.00050  -0.00050  -0.00050
 Ionic relaxation
   EDIFFG = -.1E-01   stopping-criterion for IOM
   NSW    =      0    number of steps for IOM
   NBLOCK =      1;   KBLOCK =      1    inner block; outer block 
   IBRION =     -1    ionic relax: 0-MD 1-quasi-New 2-CG
   NFREE  =      1    steps in history (QN), initial steepest desc. (CG)
   ISIF   =      2    stress and relaxation
   IWAVPR =     10    prediction:  0-non 1-charg 2-wave 3-comb
   ISYM   =      2    0-nonsym 1-usesym 2-fastsym
   LCORR  =      T    Harris-Foulkes like correction to forces

   POTIM  = 0.5000    time-step for ionic-motion
   TEIN   =    0.0    initial temperature
   TEBEG  =    0.0;   TEEND  =   0.0 temperature during run
   SMASS  =  -3.00    Nose mass-parameter (am)
   estimated Nose-frequenzy (Omega)   =  0.10E-29 period in steps = 0.13E+47 mass=  -0.178E-26a.u.
   SCALEE = 1.0000    scale energy and forces
   NPACO  =    256;   APACO  = 16.0  distance and # of slots for P.C.
   PSTRESS=    0.0 pullay stress

  Mass of Ions in am
   POMASS = 196.97190.20 12.01 16.00
  Ionic Valenz
   ZVAL   =  11.00  8.00  4.00  6.00
  Atomic Wigner-Seitz radii
   RWIGS  =  -1.00 -1.00 -1.00 -1.00
  virtual crystal weights 
   VCA    =   1.00  1.00  1.00  1.00
   NELECT =     409.0000    total number of electrons
   NUPDOWN=      -1.0000    fix difference up-down

 DOS related values:
   EMIN   =  10.00;   EMAX   =-10.00  energy-range for DOS
   EFERMI =   0.00
   ISMEAR =    -5;   SIGMA  =   0.10  broadening in eV -4-tet -1-fermi 0-gaus

 Electronic relaxation 2 (details)
   IALGO  =     68    algorithm
   LDIAG  =      T    sub-space diagonalisation (order eigenvalues)
   LSUBROT=      F    optimize rotation matrix (better conditioning)
   TURBO    =      0    0=normal 1=particle mesh
   IRESTART =      0    0=no restart 2=restart with 2 vectors
   NREBOOT  =      0    no. of reboots
   NMIN     =      0    reboot dimension
   EREF     =   0.00    reference energy to select bands
   IMIX   =      4    mixing-type and parameters
     AMIX     =   0.40;   BMIX     =  1.00
     AMIX_MAG =   1.60;   BMIX_MAG =  1.00
     AMIN     =   0.10
     WC   =   100.;   INIMIX=   1;  MIXPRE=   1;  MAXMIX= -45

 Intra band minimization:
   WEIMIN = 0.0000     energy-eigenvalue tresh-hold
   EBREAK =  0.99E-08  absolut break condition
   DEPER  =   0.30     relativ break condition  

   TIME   =   0.40     timestep for ELM

  volume/ion in A,a.u.               =      42.03       283.66
  Fermi-wavevector in a.u.,A,eV,Ry     =   1.030607  1.947565 14.451441  1.062151
  Thomas-Fermi vector in A             =   2.164714
 
 Write flags
   LWAVE        =      F    write WAVECAR
   LDOWNSAMPLE  =      F    k-point downsampling of WAVECAR
   LCHARG       =      F    write CHGCAR
   LVTOT        =      F    write LOCPOT, total local potential
   LVHAR        =      F    write LOCPOT, Hartree potential only
   LELF         =      F    write electronic localiz. function (ELF)
   LORBIT       =     10    0 simple, 1 ext, 2 COOP (PROOUT), +10 PAW based schemes


 Dipole corrections
   LMONO  =      F    monopole corrections only (constant potential shift)
   LDIPOL =      F    correct potential (dipole corrections)
   IDIPOL =      0    1-x, 2-y, 3-z, 4-all directions 
   EPSILON=  1.0000000 bulk dielectric constant

 Exchange correlation treatment:
   GGA     =    --    GGA type
   LEXCH   =     8    internal setting for exchange type
   VOSKOWN=      0    Vosko Wilk Nusair interpolation
   LHFCALC =     F    Hartree Fock is set to
   LHFONE  =     F    Hartree Fock one center treatment
   AEXX    =    0.0000 exact exchange contribution

 Linear response parameters
   LEPSILON=     F    determine dielectric tensor
   LRPA    =     F    only Hartree local field effects (RPA)
   LNABLA  =     F    use nabla operator in PAW spheres
   LVEL    =     F    velocity operator in full k-point grid
   LINTERFAST=   F  fast interpolation
   KINTER  =     0    interpolate to denser k-point grid
   CSHIFT  =0.1000    complex shift for real part using Kramers Kronig
   OMEGAMAX=  -1.0    maximum frequency
   DEG_THRESHOLD= 0.2000000E-02 threshold for treating states as degnerate
   RTIME   =   -0.100 relaxation time in fs
  (WPLASMAI=    0.000 imaginary part of plasma frequency in eV, 0.658/RTIME)
   DFIELD  = 0.0000000 0.0000000 0.0000000 field for delta impulse in time
 
 Orbital magnetization related:
   ORBITALMAG=     F  switch on orbital magnetization
   LCHIMAG   =     F  perturbation theory with respect to B field
   DQ        =  0.001000  dq finite difference perturbation B field
   LLRAUG    =     F  two centre corrections for induced B field



--------------------------------------------------------------------------------------------------------


 Static calculation
 charge density and potential remain constant during run
 non-spin polarized calculation
 RMM-DIIS sequential band-by-band and
  variant of blocked Davidson during initial phase
 perform sub-space diagonalisation
    before iterative eigenvector-optimisation
 no mixing
 using additional bands           47
 real space projection scheme for non local part
 use partial core corrections
 calculate Harris-corrections to forces 
   (improved forces if not selfconsistent)
 use gradient corrections 
 WARNING: stress and forces are not correct
  (second derivative of E(xc) not defined)
 use of overlap-Matrix (Vanderbilt PP)
 Fermi weights with tetrahedron method with Bloechl corrections


--------------------------------------------------------------------------------------------------------


  energy-cutoff  :      500.00
  volume of cell :     1639.34
      direct lattice vectors                 reciprocal lattice vectors
     8.813512802  0.000000000  0.000000000     0.113462137 -0.065507406  0.000000000
     4.406756909  7.632725690  0.000000000     0.000000000  0.131014796  0.000000000
     0.000000000  0.000000000 24.369114204     0.000000000  0.000000000  0.041035550

  length of vectors
     8.813512802  8.813512802 24.369114204     0.131014796  0.131014796  0.041035550


 
 k-points in units of 2pi/SCALE and weight: Automatic mesh                          
   0.00000000  0.00000000  0.00000000       0.016
   0.01418277 -0.00818843  0.00000000       0.031
   0.01418277  0.00818842  0.00000000       0.031
   0.00000000  0.01637685  0.00000000       0.031
   0.02836553 -0.01637685  0.00000000       0.031
   0.02836553  0.01637685  0.00000000       0.031
   0.00000000  0.03275370  0.00000000       0.031
   0.04254830 -0.02456528  0.00000000       0.031
   0.04254830  0.02456527  0.00000000       0.031
   0.00000000  0.04913055  0.00000000       0.031
   0.05673107 -0.03275370  0.00000000       0.016
   0.05673107  0.03275370  0.00000000       0.016
   0.00000000  0.06550740  0.00000000       0.016
   0.02836553 -0.00000000  0.00000000       0.031
   0.01418277  0.02456527  0.00000000       0.031
  -0.01418277  0.02456528  0.00000000       0.031
   0.04254830 -0.00818843  0.00000000       0.031
   0.02836553  0.03275370  0.00000000       0.031
  -0.01418277  0.04094212  0.00000000       0.031
   0.02836553 -0.03275370  0.00000000       0.031
  -0.01418277 -0.04094212  0.00000000       0.031
  -0.04254830 -0.00818842  0.00000000       0.031
   0.05673107 -0.01637685  0.00000000       0.031
   0.04254830  0.04094212  0.00000000       0.031
  -0.01418277  0.05731897  0.00000000       0.031
   0.04254830 -0.04094213  0.00000000       0.031
  -0.01418277  0.07369582  0.00000000       0.031
   0.05673107 -0.08188425  0.00000000       0.031
   0.05673107 -0.00000000  0.00000000       0.031
   0.02836553  0.04913055  0.00000000       0.031
  -0.02836553  0.04913055  0.00000000       0.031
  -0.04254830  0.05731898  0.00000000       0.031
   0.04254830 -0.07369583  0.00000000       0.031
  -0.02836553  0.06550740  0.00000000       0.031
 
 k-points in reciprocal lattice and weights: Automatic mesh                          
   0.00000000  0.00000000  0.00000000       0.016
   0.12500000  0.00000000  0.00000000       0.031
   0.12500000  0.12500000  0.00000000       0.031
   0.00000000  0.12500000  0.00000000       0.031
   0.25000000  0.00000000  0.00000000       0.031
   0.25000000  0.25000000  0.00000000       0.031
   0.00000000  0.25000000  0.00000000       0.031
   0.37500000 -0.00000000  0.00000000       0.031
   0.37500000  0.37500000  0.00000000       0.031
   0.00000000  0.37500000  0.00000000       0.031
   0.50000000  0.00000000  0.00000000       0.016
   0.50000000  0.50000000  0.00000000       0.016
   0.00000000  0.50000000  0.00000000       0.016
   0.25000000  0.12500000  0.00000000       0.031
   0.12500000  0.25000000  0.00000000       0.031
  -0.12500000  0.12500000  0.00000000       0.031
   0.37500000  0.12500000  0.00000000       0.031
   0.25000000  0.37500000  0.00000000       0.031
  -0.12500000  0.25000000  0.00000000       0.031
   0.25000000 -0.12500000  0.00000000       0.031
  -0.12500000 -0.37500000  0.00000000       0.031
  -0.37500000 -0.25000000  0.00000000       0.031
   0.50000000  0.12500000  0.00000000       0.031
   0.37500000  0.50000000  0.00000000       0.031
  -0.12500000  0.37500000  0.00000000       0.031
   0.37500000 -0.12500000  0.00000000       0.031
  -0.12500000  0.50000000  0.00000000       0.031
   0.50000000 -0.37500000  0.00000000       0.031
   0.50000000  0.25000000  0.00000000       0.031
   0.25000000  0.50000000  0.00000000       0.031
  -0.25000000  0.25000000  0.00000000       0.031
  -0.37500000  0.25000000  0.00000000       0.031
   0.37500000 -0.37500000  0.00000000       0.031
  -0.25000000  0.37500000  0.00000000       0.031
 
 position of ions in fractional coordinates (direct lattice) 
   0.00000000  0.00000000  0.21668329
   0.33333334  0.00000000  0.21668329
   0.66666669  0.00000000  0.21668329
   0.00000000  0.33333334  0.21668329
   0.33333331  0.33333334  0.21668329
   0.66666669  0.33333334  0.21668329
   0.00000000  0.66666669  0.21668329
   0.33333334  0.66666669  0.21668329
   0.66666663  0.66666669  0.21668329
   0.11111112  0.11111111  0.31511667
   0.44444442  0.11111111  0.31511667
   0.77777779  0.11111111  0.31511667
   0.11111113  0.44444445  0.31511667
   0.44444448  0.44444445  0.31511667
   0.77777773  0.44444445  0.31511667
   0.11111109  0.77777779  0.31511667
   0.44444445  0.77777779  0.31511667
   0.77777785  0.77777779  0.31511667
   0.88843391  0.22313220  0.41425179
   0.22184588  0.22184587  0.41182048
   0.55630829  0.22184587  0.41182048
   0.88624689  0.55687658  0.41293512
   0.22184584  0.55630829  0.41182048
   0.55687658  0.55687658  0.41293512
   0.88843391  0.88843391  0.41425179
   0.22313223  0.88843391  0.41425179
   0.55687652  0.88624689  0.41293512
   0.00000000  0.00000000  0.51290226
   0.33331149  0.00850954  0.51305602
   0.65817900  0.00850954  0.51305602
   0.00850954  0.33331149  0.51305602
   0.65817900  0.33331149  0.51305602
   0.00850954  0.65817900  0.51305602
   0.33331149  0.65817900  0.51305602
   0.66666663  0.66666669  0.51278072
   0.33333331  0.33333334  0.50124378
   0.33285657  0.33399913  0.59735224
   0.20085568  0.33324904  0.61166795
   0.46551387  0.33346229  0.61165721
 
 position of ions in cartesian coordinates  (Angst):
   0.00000000  0.00000000  5.28037993
   2.93783769  0.00000000  5.28037993
   5.87567538  0.00000000  5.28037993
   1.46891901  2.54424197  5.28037993
   4.40675643  2.54424197  5.28037993
   7.34459439  2.54424197  5.28037993
   2.93783803  5.08848395  5.28037993
   5.87567571  5.08848395  5.28037993
   8.81351288  5.08848395  5.28037993
   1.46891893  0.84808064  7.67911405
   4.40675623  0.84808064  7.67911405
   7.34459418  0.84808064  7.67911405
   2.93783798  3.39232256  7.67911405
   5.87567574  3.39232256  7.67911405
   8.81351263  3.39232256  7.67911405
   4.40675667  5.93656453  7.67911405
   7.34459449  5.93656453  7.67911405
  10.28243270  5.93656453  7.67911405
   8.81351299  1.70310691 10.09494923
   2.93286235  1.69328866 10.03570041
   5.88065107  1.69328866 10.03570041
  10.26496806  4.25048621 10.06286304
   4.40675655  4.24614860 10.03570041
   7.36205863  4.25048621 10.06286304
  11.74533585  6.78117230 10.09494923
   5.88169106  6.78117230 10.09494923
   8.81351299  6.76447942 10.06286304
   0.00000000  0.00000000 12.49897366
   2.97514452  0.06495099 12.50272073
   5.83836856  0.06495099 12.50272073
   1.54382163  2.54407513 12.50272073
   7.26969177  2.54407513 12.50272073
   2.97543382  5.02369980 12.50272073
   5.83807992  5.02369980 12.50272073
   8.81351288  5.08848395 12.49601187
   4.40675643  2.54424197 12.21486684
   4.40548862  2.54932376 14.55694493
   3.23879165  2.54359849 14.90580602
   5.57229965  2.54522617 14.90554428
 


--------------------------------------------------------------------------------------------------------


 k-point   1 :   0.0000 0.0000 0.0000  plane waves:   41519
 k-point   2 :   0.1250 0.0000 0.0000  plane waves:   41578
 k-point   3 :   0.1250 0.1250 0.0000  plane waves:   41578
 k-point   4 :   0.0000 0.1250 0.0000  plane waves:   41578
 k-point   5 :   0.2500 0.0000 0.0000  plane waves:   41600
 k-point   6 :   0.2500 0.2500 0.0000  plane waves:   41600
 k-point   7 :   0.0000 0.2500 0.0000  plane waves:   41600
 k-point   8 :   0.3750-0.0000 0.0000  plane waves:   41638
 k-point   9 :   0.3750 0.3750 0.0000  plane waves:   41638
 k-point  10 :   0.0000 0.3750 0.0000  plane waves:   41638
 k-point  11 :   0.5000 0.0000 0.0000  plane waves:   41584
 k-point  12 :   0.5000 0.5000 0.0000  plane waves:   41584
 k-point  13 :   0.0000 0.5000 0.0000  plane waves:   41584
 k-point  14 :   0.2500 0.1250 0.0000  plane waves:   41548
 k-point  15 :   0.1250 0.2500 0.0000  plane waves:   41548
 k-point  16 :  -0.1250 0.1250 0.0000  plane waves:   41548
 k-point  17 :   0.3750 0.1250 0.0000  plane waves:   41640
 k-point  18 :   0.2500 0.3750 0.0000  plane waves:   41640
 k-point  19 :  -0.1250 0.2500 0.0000  plane waves:   41640
 k-point  20 :   0.2500-0.1250 0.0000  plane waves:   41640
 k-point  21 :  -0.1250-0.3750 0.0000  plane waves:   41640
 k-point  22 :  -0.3750-0.2500 0.0000  plane waves:   41640
 k-point  23 :   0.5000 0.1250 0.0000  plane waves:   41652
 k-point  24 :   0.3750 0.5000 0.0000  plane waves:   41652
 k-point  25 :  -0.1250 0.3750 0.0000  plane waves:   41652
 k-point  26 :   0.3750-0.1250 0.0000  plane waves:   41652
 k-point  27 :  -0.1250 0.5000 0.0000  plane waves:   41652
 k-point  28 :   0.5000-0.3750 0.0000  plane waves:   41652
 k-point  29 :   0.5000 0.2500 0.0000  plane waves:   41658
 k-point  30 :   0.2500 0.5000 0.0000  plane waves:   41658
 k-point  31 :  -0.2500 0.2500 0.0000  plane waves:   41658
 k-point  32 :  -0.3750 0.2500 0.0000  plane waves:   41624
 k-point  33 :   0.3750-0.3750 0.0000  plane waves:   41624
 k-point  34 :  -0.2500 0.3750 0.0000  plane waves:   41624

 maximum and minimum number of plane-waves per node :     41658    41519

 maximum number of plane-waves:     41658
 maximum index in each direction: 
   IXMAX=   16   IYMAX=   16   IZMAX=   44
   IXMIN=  -16   IYMIN=  -16   IZMIN=  -44


 serial   3D FFT for wavefunctions
 parallel 3D FFT for charge:
    minimum data exchange during FFTs selected (reduces bandwidth)


 total amount of memory used by VASP MPI-rank0   278035. kBytes
=======================================================================

   base      :      30000. kBytes
   nonlr-proj:      14621. kBytes
   fftplans  :       4808. kBytes
   grid      :      20723. kBytes
   one-center:        606. kBytes
   wavefun   :     207277. kBytes
 
     INWAV:  cpu time    0.0000: real time    0.0001
 initial charge density was supplied:
 number of electron     409.0000151 magnetization 
 keeping initial charge density in first step


--------------------------------------------------------------------------------------------------------


 Maximum index for non-local projection operator         3048
 Maximum index for augmentation-charges          859 (set IRDMAX)


--------------------------------------------------------------------------------------------------------


 First call to EWALD:  gamma=   0.150
 Maximum number of real-space cells 4x 4x 2
 Maximum number of reciprocal cells 2x 2x 5

    FEWALD:  cpu time    0.0013: real time    0.0014


--------------------------------------- Iteration      1(   1)  ---------------------------------------


    POTLOK:  cpu time    0.0462: real time    0.0467
    SETDIJ:  cpu time    0.0050: real time    0.0052
     EDDAV:  cpu time   26.6008: real time   26.6040
 BZINTS: Fermi energy:   11.302783;  409.000000 electrons
         Band energy: 0.136451E+04;  BLOECHL correction:   -0.016824
       DOS:  cpu time    0.0621: real time    0.0622
    --------------------------------------------
      LOOP:  cpu time   26.7142: real time   26.7181

 eigenvalue-minimisations  : 17136
 total energy-change (2. order) : 0.2786514E+04  (-0.1841663E+05)
 number of electron     409.0000151 magnetization 
 augmentation part      409.0000151 magnetization 

 Free energy of the ion-electron system (eV)
  ---------------------------------------------------
  alpha Z        PSCENC =       975.09262134
  Ewald energy   TEWEN  =    127198.29528508
  -Hartree energ DENC   =   -161923.57017004
  -exchange      EXHF   =         0.00000000
  -V(xc)+E(xc)   XCENC  =       555.25055549
  PAW double counting   =     37187.14053400   -36412.55021824
  entropy T*S    EENTRO =         0.00000000
  eigenvalues    EBANDS =      1364.51071040
  atomic energy  EATOM  =     33842.34451863
  Solvation  Ediel_sol  =         0.00000000
  ---------------------------------------------------
  free energy    TOTEN  =      2786.51383666 eV

  energy without entropy =     2786.51383666  energy(sigma->0) =     2786.51383666


--------------------------------------------------------------------------------------------------------




--------------------------------------- Iteration      1(   2)  ---------------------------------------


     EDDAV:  cpu time   29.0600: real time   29.0618
 BZINTS: Fermi energy:    1.086789;  409.000000 electrons
         Band energy:-0.139494E+04;  BLOECHL correction:   -0.044834
       DOS:  cpu time    0.0598: real time    0.0597
    --------------------------------------------
      LOOP:  cpu time   29.1198: real time   29.1216

 eigenvalue-minimisations  : 19208
 total energy-change (2. order) :-0.2759452E+04  (-0.2587822E+04)
 number of electron     409.0000151 magnetization 
 augmentation part      409.0000151 magnetization 

 Free energy of the ion-electron system (eV)
  ---------------------------------------------------
  alpha Z        PSCENC =       975.09262134
  Ewald energy   TEWEN  =    127198.29528508
  -Hartree energ DENC   =   -161923.57017004
  -exchange      EXHF   =         0.00000000
  -V(xc)+E(xc)   XCENC  =       555.25055549
  PAW double counting   =     37187.14053400   -36412.55021824
  entropy T*S    EENTRO =         0.00000000
  eigenvalues    EBANDS =     -1394.94105447
  atomic energy  EATOM  =     33842.34451863
  Solvation  Ediel_sol  =         0.00000000
  ---------------------------------------------------
  free energy    TOTEN  =        27.06207179 eV

  energy without entropy =       27.06207179  energy(sigma->0) =       27.06207179


--------------------------------------------------------------------------------------------------------




--------------------------------------- Iteration      1(   3)  ---------------------------------------


     EDDAV:  cpu time   30.3900: real time   30.3918
 BZINTS: Fermi energy:    0.123840;  409.000000 electrons
         Band energy:-0.155533E+04;  BLOECHL correction:   -0.074859
       DOS:  cpu time    0.0616: real time    0.0616
    --------------------------------------------
      LOOP:  cpu time   30.4516: real time   30.4534

 eigenvalue-minimisations  : 20216
 total energy-change (2. order) :-0.1603883E+03  (-0.1553070E+03)
 number of electron     409.0000151 magnetization 
 augmentation part      409.0000151 magnetization 

 Free energy of the ion-electron system (eV)
  ---------------------------------------------------
  alpha Z        PSCENC =       975.09262134
  Ewald energy   TEWEN  =    127198.29528508
  -Hartree energ DENC   =   -161923.57017004
  -exchange      EXHF   =         0.00000000
  -V(xc)+E(xc)   XCENC  =       555.25055549
  PAW double counting   =     37187.14053400   -36412.55021824
  entropy T*S    EENTRO =         0.00000000
  eigenvalues    EBANDS =     -1555.32934688
  atomic energy  EATOM  =     33842.34451863
  Solvation  Ediel_sol  =         0.00000000
  ---------------------------------------------------
  free energy    TOTEN  =      -133.32622062 eV

  energy without entropy =     -133.32622062  energy(sigma->0) =     -133.32622062


--------------------------------------------------------------------------------------------------------




--------------------------------------- Iteration      1(   4)  ---------------------------------------


     EDDAV:  cpu time   29.1857: real time   29.1905
 BZINTS: Fermi energy:    0.099280;  409.000000 electrons
         Band energy:-0.155913E+04;  BLOECHL correction:   -0.075931
       DOS:  cpu time    0.0615: real time    0.0615
    --------------------------------------------
      LOOP:  cpu time   29.2472: real time   29.2519

 eigenvalue-minimisations  : 19236
 total energy-change (2. order) :-0.3796450E+01  (-0.3773798E+01)
 number of electron     409.0000151 magnetization 
 augmentation part      409.0000151 magnetization 

 Free energy of the ion-electron system (eV)
  ---------------------------------------------------
  alpha Z        PSCENC =       975.09262134
  Ewald energy   TEWEN  =    127198.29528508
  -Hartree energ DENC   =   -161923.57017004
  -exchange      EXHF   =         0.00000000
  -V(xc)+E(xc)   XCENC  =       555.25055549
  PAW double counting   =     37187.14053400   -36412.55021824
  entropy T*S    EENTRO =         0.00000000
  eigenvalues    EBANDS =     -1559.12579646
  atomic energy  EATOM  =     33842.34451863
  Solvation  Ediel_sol  =         0.00000000
  ---------------------------------------------------
  free energy    TOTEN  =      -137.12267020 eV

  energy without entropy =     -137.12267020  energy(sigma->0) =     -137.12267020


--------------------------------------------------------------------------------------------------------




--------------------------------------- Iteration      1(   5)  ---------------------------------------


     EDDAV:  cpu time   31.2319: real time   31.2335
 BZINTS: Fermi energy:    0.098663;  409.000000 electrons
         Band energy:-0.155924E+04;  BLOECHL correction:   -0.075978
       DOS:  cpu time    0.0615: real time    0.0615
    --------------------------------------------
      LOOP:  cpu time   31.2933: real time   31.2949

 eigenvalue-minimisations  : 20916
 total energy-change (2. order) :-0.1191878E+00  (-0.1190811E+00)
 number of electron     409.0000151 magnetization 
 augmentation part      409.0000151 magnetization 

 Free energy of the ion-electron system (eV)
  ---------------------------------------------------
  alpha Z        PSCENC =       975.09262134
  Ewald energy   TEWEN  =    127198.29528508
  -Hartree energ DENC   =   -161923.57017004
  -exchange      EXHF   =         0.00000000
  -V(xc)+E(xc)   XCENC  =       555.25055549
  PAW double counting   =     37187.14053400   -36412.55021824
  entropy T*S    EENTRO =         0.00000000
  eigenvalues    EBANDS =     -1559.24498429
  atomic energy  EATOM  =     33842.34451863
  Solvation  Ediel_sol  =         0.00000000
  ---------------------------------------------------
  free energy    TOTEN  =      -137.24185803 eV

  energy without entropy =     -137.24185803  energy(sigma->0) =     -137.24185803


--------------------------------------------------------------------------------------------------------




--------------------------------------- Iteration      1(   6)  ---------------------------------------


    EDDIAG:  cpu time    5.2291: real time    5.2299
  RMM-DIIS:  cpu time   15.7774: real time   15.7783
    ORTHCH:  cpu time    0.9692: real time    0.9693
 BZINTS: Fermi energy:    0.098661;  409.000000 electrons
         Band energy:-0.155925E+04;  BLOECHL correction:   -0.075979
       DOS:  cpu time    0.0603: real time    0.0603
    --------------------------------------------
      LOOP:  cpu time   22.0361: real time   22.0378

 eigenvalue-minimisations  : 17807
 total energy-change (2. order) :-0.2585996E-02  (-0.2585488E-02)
 number of electron     409.0000151 magnetization 
 augmentation part      409.0000151 magnetization 

 Free energy of the ion-electron system (eV)
  ---------------------------------------------------
  alpha Z        PSCENC =       975.09262134
  Ewald energy   TEWEN  =    127198.29528508
  -Hartree energ DENC   =   -161923.57017004
  -exchange      EXHF   =         0.00000000
  -V(xc)+E(xc)   XCENC  =       555.25055549
  PAW double counting   =     37187.14053400   -36412.55021824
  entropy T*S    EENTRO =         0.00000000
  eigenvalues    EBANDS =     -1559.24757029
  atomic energy  EATOM  =     33842.34451863
  Solvation  Ediel_sol  =         0.00000000
  ---------------------------------------------------
  free energy    TOTEN  =      -137.24444403 eV

  energy without entropy =     -137.24444403  energy(sigma->0) =     -137.24444403


--------------------------------------------------------------------------------------------------------




--------------------------------------- Iteration      1(   7)  ---------------------------------------


    EDDIAG:  cpu time    5.2265: real time    5.2270
  RMM-DIIS:  cpu time   21.1394: real time   21.1406
    ORTHCH:  cpu time    0.9688: real time    0.9688
 BZINTS: Fermi energy:    0.098660;  409.000000 electrons
         Band energy:-0.155925E+04;  BLOECHL correction:   -0.075979
       DOS:  cpu time    0.0589: real time    0.0589
    --------------------------------------------
      LOOP:  cpu time   27.3936: real time   27.3953

 eigenvalue-minimisations  : 24682
 total energy-change (2. order) :-0.9035273E-03  (-0.9012217E-03)
 number of electron     409.0000151 magnetization 
 augmentation part      409.0000151 magnetization 

 Free energy of the ion-electron system (eV)
  ---------------------------------------------------
  alpha Z        PSCENC =       975.09262134
  Ewald energy   TEWEN  =    127198.29528508
  -Hartree energ DENC   =   -161923.57017004
  -exchange      EXHF   =         0.00000000
  -V(xc)+E(xc)   XCENC  =       555.25055549
  PAW double counting   =     37187.14053400   -36412.55021824
  entropy T*S    EENTRO =         0.00000000
  eigenvalues    EBANDS =     -1559.24847382
  atomic energy  EATOM  =     33842.34451863
  Solvation  Ediel_sol  =         0.00000000
  ---------------------------------------------------
  free energy    TOTEN  =      -137.24534756 eV

  energy without entropy =     -137.24534756  energy(sigma->0) =     -137.24534756


--------------------------------------------------------------------------------------------------------




--------------------------------------- Iteration      1(   8)  ---------------------------------------


    EDDIAG:  cpu time    5.2269: real time    5.2273
  RMM-DIIS:  cpu time   16.7141: real time   16.7150
    ORTHCH:  cpu time    0.9692: real time    0.9693
 BZINTS: Fermi energy:    0.098660;  409.000000 electrons
         Band energy:-0.155925E+04;  BLOECHL correction:   -0.075979
       DOS:  cpu time    0.0575: real time    0.0575
    --------------------------------------------
      LOOP:  cpu time   22.9677: real time   22.9691

 eigenvalue-minimisations  : 19231
 total energy-change (2. order) :-0.4161091E-04  (-0.4409154E-04)
 number of electron     409.0000151 magnetization 
 augmentation part      409.0000151 magnetization 

 Free energy of the ion-electron system (eV)
  ---------------------------------------------------
  alpha Z        PSCENC =       975.09262134
  Ewald energy   TEWEN  =    127198.29528508
  -Hartree energ DENC   =   -161923.57017004
  -exchange      EXHF   =         0.00000000
  -V(xc)+E(xc)   XCENC  =       555.25055549
  PAW double counting   =     37187.14053400   -36412.55021824
  entropy T*S    EENTRO =         0.00000000
  eigenvalues    EBANDS =     -1559.24851543
  atomic energy  EATOM  =     33842.34451863
  Solvation  Ediel_sol  =         0.00000000
  ---------------------------------------------------
  free energy    TOTEN  =      -137.24538917 eV

  energy without entropy =     -137.24538917  energy(sigma->0) =     -137.24538917


--------------------------------------------------------------------------------------------------------




--------------------------------------- Iteration      1(   9)  ---------------------------------------


    EDDIAG:  cpu time    5.2301: real time    5.2304
  RMM-DIIS:  cpu time   14.7861: real time   14.7870
    ORTHCH:  cpu time    0.9679: real time    0.9680
 BZINTS: Fermi energy:    0.098660;  409.000000 electrons
         Band energy:-0.155925E+04;  BLOECHL correction:   -0.075979
       DOS:  cpu time    0.0602: real time    0.0602
    --------------------------------------------
      LOOP:  cpu time   21.0443: real time   21.0455

 eigenvalue-minimisations  : 15213
 total energy-change (2. order) :-0.8615461E-05  (-0.8755637E-05)
 number of electron     409.0000151 magnetization 
 augmentation part      409.0000151 magnetization 

 Free energy of the ion-electron system (eV)
  ---------------------------------------------------
  alpha Z        PSCENC =       975.09262134
  Ewald energy   TEWEN  =    127198.29528508
  -Hartree energ DENC   =   -161923.57017004
  -exchange      EXHF   =         0.00000000
  -V(xc)+E(xc)   XCENC  =       555.25055549
  PAW double counting   =     37187.14053400   -36412.55021824
  entropy T*S    EENTRO =         0.00000000
  eigenvalues    EBANDS =     -1559.24852404
  atomic energy  EATOM  =     33842.34451863
  Solvation  Ediel_sol  =         0.00000000
  ---------------------------------------------------
  free energy    TOTEN  =      -137.24539778 eV

  energy without entropy =     -137.24539778  energy(sigma->0) =     -137.24539778


--------------------------------------------------------------------------------------------------------




 average (electrostatic) potential at core
  the test charge radii are     1.2098  1.1957  0.6991  0.7215
  (the norm of the test charge is              1.0000)
       1 -72.9739       2 -72.9398       3 -72.9398       4 -72.9401       5 -72.9411
       6 -72.9399       7 -72.9403       8 -72.9401       9 -72.9414      10 -73.2935
      11 -73.2601      12 -73.2933      13 -73.2576      14 -73.2574      15 -73.2760
      16 -73.2928      17 -73.2671      18 -73.2673      19 -73.1876      20 -73.3250
      21 -73.3246      22 -73.2334      23 -73.3228      24 -73.2331      25 -73.1994
      26 -73.1992      27 -73.2238      28 -72.8527      29 -72.9208      30 -72.9210
      31 -72.9001      32 -72.9000      33 -72.9119      34 -72.9116      35 -72.8485
      36 -51.4363      37 -57.1666      38 -76.0942      39 -76.0957
 
 
 
 E-fermi :   0.0987     XC(G=0):  -5.7388     alpha+bet : -5.3529

 Fermi energy:         0.0986603159

 k-point     1 :       0.0000    0.0000    0.0000
  band No.  band energies     occupation 
      1     -22.4363      2.00000
      2     -20.9238      2.00000
      3      -8.7337      2.00000
      4      -7.9653      2.00000
      5      -7.5992      2.00000
      6      -6.8896      2.00000
      7      -6.6010      2.00000
      8      -6.5732      2.00000
      9      -6.5715      2.00000
     10      -6.5506      2.00000
     11      -6.5277      2.00000
     12      -6.5228      2.00000
     13      -6.5217      2.00000
     14      -6.3437      2.00000
     15      -6.2572      2.00000
     16      -6.1746      2.00000
     17      -6.0843      2.00000
     18      -6.0727      2.00000
     19      -6.0691      2.00000
     20      -6.0406      2.00000
     21      -6.0388      2.00000
     22      -6.0279      2.00000
     23      -5.7032      2.00000
     24      -5.7020      2.00000
     25      -5.7012      2.00000
     26      -5.6788      2.00000
     27      -5.6604      2.00000
     28      -5.6578      2.00000
     29      -5.5128      2.00000
     30      -5.5099      2.00000
     31      -5.4997      2.00000
     32      -5.4973      2.00000
     33      -5.4953      2.00000
     34      -5.4801      2.00000
     35      -5.3480      2.00000
     36      -5.3470      2.00000
     37      -5.3391      2.00000
     38      -5.3377      2.00000
     39      -5.3370      2.00000
     40      -5.3203      2.00000
     41      -5.3106      2.00000
     42      -5.3085      2.00000
     43      -5.2970      2.00000
     44      -5.2809      2.00000
     45      -5.2718      2.00000
     46      -5.2599      2.00000
     47      -4.8470      2.00000
     48      -4.8465      2.00000
     49      -4.8020      2.00000
     50      -4.7959      2.00000
     51      -4.7869      2.00000
     52      -4.7723      2.00000
     53      -4.7720      2.00000
     54      -4.7616      2.00000
     55      -4.7568      2.00000
     56      -4.7493      2.00000
     57      -4.6866      2.00000
     58      -4.6805      2.00000
     59      -4.6178      2.00000
     60      -4.5771      2.00000
     61      -4.2580      2.00000
     62      -4.2576      2.00000
     63      -4.2553      2.00000
     64      -4.2442      2.00000
     65      -4.2347      2.00000
     66      -4.2340      2.00000
     67      -4.2290      2.00000
     68      -4.1855      2.00000
     69      -4.1854      2.00000
     70      -4.1183      2.00000
[...]
  0.000   0.000   0.000   0.000   0.000   0.000   0.000   0.000   0.000   0.000   1.000   0.000   0.000   0.000   0.000   0.000
  0.000   0.000   0.000   0.000   0.000   0.000   0.000   0.000   0.000   0.000   0.000   0.000   0.000   0.000   0.000   0.000
  0.000   0.000   0.000   0.000   0.000   0.000   0.000   0.000   0.000   0.000   0.000   0.000   0.000   0.000   0.000   0.000
  0.000   0.000   0.000   0.000   0.000   0.000   0.000   0.000   0.000   0.000   0.000   0.000   0.000   0.000   0.000   0.000
  0.000   0.000   0.000   0.000   0.000   0.000   0.000   0.000   0.000   0.000   0.000   0.000   0.000   0.000   0.000   0.000
  0.000   0.000   0.000   0.000   0.000   0.000   0.000   0.000   0.000   0.000   0.000   0.000   0.000   0.000   0.000   0.000
  0.000   0.000   0.000   0.000   0.000   0.000   0.000   0.000   0.000   0.000   0.000   0.000   0.000   0.000   0.000   0.000
  0.000   0.000   0.000   0.000   0.000   0.000   0.000   0.000   0.000   0.000   0.000   0.000   0.000   0.000   0.000   0.000


------------------------ aborting loop because EDIFF is reached ----------------------------------------





 total charge

# of ion       s       p       d       tot
------------------------------------------
    1        0.545   0.239   8.765   9.549
    2        0.544   0.241   8.764   9.549
    3        0.544   0.241   8.764   9.549
    4        0.544   0.240   8.764   9.549
    5        0.543   0.241   8.762   9.545
    6        0.544   0.240   8.764   9.548
    7        0.545   0.241   8.763   9.548
    8        0.544   0.241   8.763   9.548
    9        0.543   0.239   8.767   9.550
   10        0.524   0.310   8.765   9.598
   11        0.522   0.308   8.779   9.609
   12        0.524   0.310   8.765   9.598
   13        0.522   0.307   8.780   9.610
   14        0.522   0.307   8.780   9.609
   15        0.516   0.308   8.776   9.600
   16        0.523   0.308   8.767   9.598
   17        0.517   0.307   8.777   9.602
   18        0.517   0.307   8.777   9.602
   19        0.511   0.298   8.779   9.589
   20        0.546   0.337   8.747   9.630
   21        0.546   0.337   8.747   9.630
   22        0.506   0.307   8.779   9.591
   23        0.543   0.334   8.752   9.629
   24        0.506   0.307   8.779   9.591
   25        0.514   0.299   8.776   9.589
   26        0.514   0.299   8.776   9.589
   27        0.507   0.306   8.780   9.593
   28        0.537   0.227   8.762   9.526
   29        0.556   0.246   8.744   9.546
   30        0.556   0.246   8.744   9.546
   31        0.542   0.243   8.752   9.538
   32        0.542   0.243   8.752   9.538
   33        0.557   0.246   8.744   9.547
   34        0.557   0.246   8.744   9.547
   35        0.531   0.226   8.764   9.521
   36        0.519   0.356   5.954   6.829
   37        0.895   1.714   0.000   2.609
   38        1.603   3.493   0.000   5.096
   39        1.603   3.493   0.000   5.096
--------------------------------------------------
tot         23.276  18.738 312.718 354.732
 
    CHARGE:  cpu time    1.2524: real time    1.2526
    FORLOC:  cpu time    0.0124: real time    0.0124
    FORNL :  cpu time    5.3676: real time    5.3679
    STRESS:  cpu time   16.1251: real time   16.1261
    FORCOR:  cpu time    0.0649: real time    0.0650
    FORHAR:  cpu time    0.0197: real time    0.0198
    OFIELD:  cpu time    0.0003: real time    0.0003

  FORCE on cell =-STRESS in cart. coord.  units (eV):
  Direction    XX          YY          ZZ          XY          YZ          ZX
  --------------------------------------------------------------------------------------
  Alpha Z   975.09262   975.09262   975.09262
  Ewald  150264.93925149540.76744************     0.47968    -0.56214     0.00300
  Hartree158680.20192158327.56096************     0.22628    -0.36037     0.02432
  E(xc)   -1836.93395 -1838.78748 -1845.88106     0.00120    -0.00023     0.00114
  Local  ************************320375.04492    -0.66355     0.93606    -0.02351
  n-local  -137.87266  -130.72338  -109.02078    -0.00492     0.04388    -0.01338
  augment  2393.13109  2394.75152  2414.41163    -0.00285     0.00263    -0.00094
  Kinetic  5750.28945  5800.33723  5858.06140    -0.03334    -0.10435    -0.00221
  Fock        0.00000     0.00000     0.00000     0.00000     0.00000     0.00000
  -------------------------------------------------------------------------------------
  Total     -22.97678   -22.81641     1.92872     0.00250    -0.04453    -0.01157
  in kB     -22.45595   -22.29921     1.88500     0.00245    -0.04352    -0.01131
  external pressure =      -14.29 kB  Pullay stress =        0.00 kB


 VOLUME and BASIS-vectors are now :
 -----------------------------------------------------------------------------
  energy-cutoff  :      500.00
  volume of cell :     1639.34
      direct lattice vectors                 reciprocal lattice vectors
     8.813512802  0.000000000  0.000000000     0.113462137 -0.065507406  0.000000000
     4.406756909  7.632725690  0.000000000     0.000000000  0.131014796  0.000000000
     0.000000000  0.000000000 24.369114204     0.000000000  0.000000000  0.041035550

  length of vectors
     8.813512802  8.813512802 24.369114204     0.131014796  0.131014796  0.041035550


 FORCES acting on ions
    electron-ion (+dipol)            ewald-force                    non-local-force                 convergence-correction
 -----------------------------------------------------------------------------------------------
   0.272E-02 0.651E-01 0.269E+04   -.977E-04 -.366E-01 -.269E+04   -.295E-03 -.284E-01 -.853E+00   -.222E-02 -.390E-02 -.288E+00
   0.798E+00 0.397E+00 0.269E+04   -.786E+00 -.446E+00 -.269E+04   -.663E-02 0.164E-01 -.337E+00   -.425E-02 0.266E-01 -.349E+00
   -.801E+00 0.385E+00 0.269E+04   0.786E+00 -.446E+00 -.269E+04   0.693E-02 0.164E-01 -.338E+00   0.656E-02 0.382E-01 -.347E+00
   0.651E+00 0.495E+00 0.269E+04   -.748E+00 -.477E+00 -.269E+04   0.642E-01 0.326E-02 -.355E+00   0.278E-01 -.183E-01 -.306E+00
   -.142E-01 -.474E-01 0.269E+04   0.300E-03 -.387E-03 -.269E+04   -.540E-03 0.146E-01 -.211E+00   0.147E-01 0.259E-01 -.306E+00
   -.641E+00 0.491E+00 0.269E+04   0.748E+00 -.477E+00 -.269E+04   -.641E-01 0.295E-02 -.356E+00   -.379E-01 -.141E-01 -.300E+00
   -.135E+00 -.862E+00 0.269E+04   0.387E-01 0.923E+00 -.269E+04   0.332E-01 -.285E-01 -.301E+00   0.592E-01 -.248E-01 -.312E+00
   0.125E+00 -.855E+00 0.269E+04   -.388E-01 0.923E+00 -.269E+04   -.331E-01 -.283E-01 -.302E+00   -.495E-01 -.317E-01 -.309E+00
   0.142E-01 -.690E-01 0.269E+04   0.112E-03 0.370E-01 -.269E+04   0.679E-04 0.304E-01 -.461E+00   -.145E-01 0.244E-03 -.275E+00
   0.816E+01 0.500E+01 0.957E+03   -.766E+01 -.472E+01 -.956E+03   -.377E+00 -.209E+00 -.779E+00   -.917E-01 -.538E-01 0.129E+00
   -.126E-01 0.536E+01 0.965E+03   0.153E-02 -.539E+01 -.965E+03   0.389E-04 -.653E-02 -.522E+00   0.113E-01 -.105E-01 0.190E+00
   -.815E+01 0.499E+01 0.957E+03   0.766E+01 -.472E+01 -.956E+03   0.377E+00 -.209E+00 -.777E+00   0.845E-01 -.435E-01 0.127E+00
   0.437E+01 -.278E+01 0.965E+03   -.440E+01 0.274E+01 -.965E+03   -.150E-01 0.209E-01 -.440E+00   -.454E-02 0.405E-01 0.205E+00
   -.439E+01 -.278E+01 0.965E+03   0.440E+01 0.274E+01 -.965E+03   0.154E-01 0.209E-01 -.441E+00   0.279E-01 0.393E-01 0.204E+00
   0.149E-01 0.453E+01 0.960E+03   -.981E-03 -.465E+01 -.960E+03   -.757E-04 0.319E-01 -.584E+00   -.139E-01 0.344E-01 0.208E+00
   -.437E-02 -.935E+01 0.956E+03   0.309E-04 0.894E+01 -.956E+03   0.480E-04 0.332E+00 -.713E+00   0.430E-02 0.502E-01 0.134E+00
   0.410E+01 -.248E+01 0.960E+03   -.419E+01 0.253E+01 -.959E+03   0.323E-01 0.360E-02 -.483E+00   0.805E-02 -.316E-01 0.215E+00
   -.409E+01 -.249E+01 0.960E+03   0.419E+01 0.253E+01 -.959E+03   -.325E-01 0.371E-02 -.483E+00   -.120E-01 -.199E-01 0.213E+00
   0.150E-01 0.614E+01 -.809E+03   -.108E-01 -.640E+01 0.808E+03   0.121E-03 0.462E-01 0.635E+00   -.424E-02 0.172E+00 0.968E+00
   0.128E+02 0.912E+01 -.753E+03   -.124E+02 -.879E+01 0.752E+03   -.727E+00 -.451E+00 -.926E+00   0.178E+00 0.959E-01 0.129E+01
   -.128E+02 0.910E+01 -.753E+03   0.124E+02 -.878E+01 0.752E+03   0.724E+00 -.450E+00 -.924E+00   -.172E+00 0.106E+00 0.128E+01
   -.833E+00 -.145E+01 -.789E+03   0.349E+00 0.182E+01 0.787E+03   0.472E+00 -.344E+00 0.687E+00   0.525E-01 -.493E-01 0.102E+01
   -.168E-01 -.171E+02 -.755E+03   0.578E-02 0.167E+02 0.754E+03   0.994E-04 0.705E+00 -.744E+00   0.108E-01 -.188E+00 0.128E+01
   0.858E+00 -.144E+01 -.789E+03   -.355E+00 0.182E+01 0.787E+03   -.471E+00 -.344E+00 0.688E+00   -.725E-01 -.472E-01 0.102E+01
   -.429E+01 -.169E+01 -.813E+03   0.444E+01 0.179E+01 0.811E+03   0.555E-02 0.218E-02 0.440E+00   -.133E+00 -.857E-01 0.950E+00
   0.428E+01 -.167E+01 -.813E+03   -.445E+01 0.178E+01 0.811E+03   -.532E-02 0.204E-02 0.440E+00   0.142E+00 -.950E-01 0.952E+00
   0.868E-02 -.628E+00 -.791E+03   0.444E-02 0.686E-01 0.790E+03   -.556E-04 0.526E+00 0.672E+00   -.133E-01 0.616E-01 0.104E+01
   0.365E-01 0.984E+01 -.253E+04   -.387E-01 -.975E+01 0.253E+04   0.147E-03 -.867E-01 0.582E+00   0.199E-02 0.342E-02 0.750E+00
   0.326E+02 0.774E+02 -.249E+04   -.320E+02 -.769E+02 0.249E+04   -.772E+00 -.985E+00 0.269E+00   0.234E+00 0.305E+00 0.624E+00
   -.326E+02 0.774E+02 -.249E+04   0.321E+02 -.768E+02 0.249E+04   0.772E+00 -.985E+00 0.268E+00   -.235E+00 0.315E+00 0.627E+00
   0.881E+02 -.279E+00 -.246E+04   -.879E+02 0.387E+00 0.246E+04   -.805E+00 -.116E+00 0.100E+01   0.340E+00 0.439E-01 0.641E+00
   -.880E+02 -.245E+00 -.246E+04   0.878E+02 0.346E+00 0.246E+04   0.805E+00 -.115E+00 0.998E+00   -.345E+00 0.508E-01 0.637E+00
   0.333E+02 -.772E+02 -.249E+04   -.329E+02 0.766E+02 0.249E+04   -.539E+00 0.110E+01 0.252E+00   0.166E+00 -.347E+00 0.625E+00
   -.333E+02 -.772E+02 -.249E+04   0.330E+02 0.766E+02 0.249E+04   0.539E+00 0.110E+01 0.253E+00   -.156E+00 -.349E+00 0.620E+00
   0.264E-01 -.987E+01 -.253E+04   -.117E-01 0.981E+01 0.253E+04   0.886E-04 0.807E-01 0.722E+00   -.150E-01 -.150E-01 0.584E+00
   -.665E-01 0.233E+00 -.158E+04   0.582E-01 -.174E+00 0.158E+04   0.405E-02 -.124E+00 0.124E+01   0.485E-02 -.535E-02 0.706E+00
   -.965E-02 -.174E+01 -.965E+03   0.460E-02 0.181E+01 0.962E+03   0.719E-02 -.643E-01 0.339E+01   0.108E-02 -.171E-02 -.187E+00
   0.236E+03 0.853E+00 -.162E+04   -.289E+03 -.110E+01 0.164E+04   0.528E+02 0.249E+00 -.172E+02   0.151E+00 -.530E-03 -.218E+00
   -.236E+03 0.517E+00 -.162E+04   0.289E+03 -.693E+00 0.164E+04   -.528E+02 0.169E+00 -.172E+02   -.152E+00 0.186E-02 -.214E+00
 -----------------------------------------------------------------------------------------------
   -.215E-03 0.120E+00 0.189E+02   0.000E+00 0.201E-12 -.455E-12   0.153E-01 -.986E-01 -.332E+02   -.181E-02 -.254E-01 0.138E+02
 
 
 POSITION                                       TOTAL-FORCE (eV/Angst)
 -----------------------------------------------------------------------------------
      0.00000      0.00000      5.28038        -0.000234     -0.003712     -0.064104
      2.93784      0.00000      5.28038         0.000915     -0.006088     -0.057557
      5.87568      0.00000      5.28038        -0.001669     -0.006083     -0.057499
      1.46892      2.54424      5.28038        -0.005792      0.003033     -0.068383
      4.40676      2.54424      5.28038        -0.000054     -0.007159     -0.125071
      7.34459      2.54424      5.28038         0.004988      0.003144     -0.068287
      2.93784      5.08848      5.28038        -0.004116      0.008234     -0.060254
      5.87568      5.08848      5.28038         0.003435      0.008121     -0.060223
      8.81351      5.08848      5.28038        -0.000510     -0.001230     -0.077181
      1.46892      0.84808      7.67911         0.027340      0.015486      0.152228
      4.40676      0.84808      7.67911        -0.000150     -0.041190     -0.003576
      7.34459      0.84808      7.67911        -0.027963      0.015492      0.152103
      2.93784      3.39232      7.67911        -0.050381      0.021858     -0.011094
      5.87568      3.39232      7.67911         0.050210      0.021889     -0.011092
      8.81351      3.39232      7.67911        -0.000356     -0.049703      0.085648
      4.40676      5.93656      7.67911        -0.000331     -0.022174      0.135654
      7.34459      5.93656      7.67911        -0.047952      0.020058      0.082590
     10.28243      5.93656      7.67911         0.047309      0.020064      0.082563
      8.81351      1.70311     10.09495        -0.000317     -0.039939      0.030758
      2.93286      1.69329     10.03570        -0.087158     -0.022048     -0.044911
      5.88065      1.69329     10.03570         0.087570     -0.022652     -0.046039
     10.26497      4.25049     10.06286         0.040140     -0.018400      0.040351
      4.40676      4.24615     10.03570        -0.000539      0.101835     -0.103875
      7.36206      4.25049     10.06286        -0.041394     -0.018453      0.040291
     11.74534      6.78117     10.09495         0.029283      0.017087     -0.009266
      5.88169      6.78117     10.09495        -0.029968      0.016993     -0.009259
      8.81351      6.76448     10.06286        -0.000532      0.028015      0.005267
      0.00000      0.00000     12.49897        -0.000347      0.007575     -0.023352
      2.97514      0.06495     12.50272        -0.002736     -0.150546     -0.103301
      5.83837      0.06495     12.50272         0.002053     -0.150216     -0.103217
      1.54382      2.54408     12.50272        -0.218922      0.036224     -0.129287
      7.26969      2.54408     12.50272         0.217902      0.036183     -0.129779
      2.97543      5.02370     12.50272        -0.028470      0.124331     -0.093500
      5.83808      5.02370     12.50272         0.028009      0.124393     -0.093879
      8.81351      5.08848     12.49601        -0.000558     -0.000384      0.025771
      4.40676      2.54424     12.21487         0.000231     -0.070216      0.717536
      4.40549      2.54932     14.55694         0.002885      0.003853      0.027187
      3.23879      2.54360     14.90581        -0.018657      0.001073     -0.010031
      5.57230      2.54523     14.90554         0.026834     -0.004745     -0.013931
 -----------------------------------------------------------------------------------
    total drift:                                0.013258     -0.004239     -0.427159


--------------------------------------------------------------------------------------------------------



  FREE ENERGIE OF THE ION-ELECTRON SYSTEM (eV)
  ---------------------------------------------------
  free  energy   TOTEN  =      -137.24539778 eV

  energy  without entropy=     -137.24539778  energy(sigma->0) =     -137.24539778
 


--------------------------------------------------------------------------------------------------------


    POTLOK:  cpu time    0.0474: real time    0.0474


--------------------------------------------------------------------------------------------------------


 stress matrix after NEB project (eV)
    -22.97678      0.00250     -0.01157
      0.00250    -22.81641     -0.04453
     -0.01157     -0.04453      1.92872
  FORCES: max atom, RMS     0.030605    0.007423
  FORCE total and by dimension    0.046355    0.027187
  Stress total and by dimension   32.438332   22.976783
     LOOP+:  cpu time  263.2796: real time  263.3057
 -----------------------------------------------------------------------------
|                                                                             |
|           W    W    AA    RRRRR   N    N  II  N    N   GGGG   !!!           |
|           W    W   A  A   R    R  NN   N  II  NN   N  G    G  !!!           |
|           W    W  A    A  R    R  N N  N  II  N N  N  G       !!!           |
|           W WW W  AAAAAA  RRRRR   N  N N  II  N  N N  G  GGG   !            |
|           WW  WW  A    A  R   R   N   NN  II  N   NN  G    G                |
|           W    W  A    A  R    R  N    N  II  N    N   GGGG   !!!           |
|                                                                             |
|     Tetrahedron method does not include variations of the Fermi             |
|     occupations, so forces and stress will be inaccurate. We suggest        |
|     using a different smearing scheme ISMEAR = 1 or 2 for metals in         |
|     relaxations.                                                            |
|                                                                             |
 -----------------------------------------------------------------------------

    4ORBIT:  cpu time    0.0000: real time    0.0000



 total charge

# of ion       s       p       d       tot
------------------------------------------
    1        0.545   0.239   8.765   9.549
    2        0.544   0.241   8.764   9.549
    3        0.544   0.241   8.764   9.549
    4        0.544   0.240   8.764   9.549
    5        0.543   0.241   8.762   9.545
    6        0.544   0.240   8.764   9.548
    7        0.545   0.241   8.763   9.548
    8        0.544   0.241   8.763   9.548
    9        0.543   0.239   8.767   9.550
   10        0.524   0.310   8.765   9.598
   11        0.522   0.308   8.779   9.609
   12        0.524   0.310   8.765   9.598
   13        0.522   0.307   8.780   9.610
   14        0.522   0.307   8.780   9.609
   15        0.516   0.308   8.776   9.600
   16        0.523   0.308   8.767   9.598
   17        0.517   0.307   8.777   9.602
   18        0.517   0.307   8.777   9.602
   19        0.511   0.298   8.779   9.589
   20        0.546   0.337   8.747   9.630
   21        0.546   0.337   8.747   9.630
   22        0.506   0.307   8.779   9.591
   23        0.543   0.334   8.752   9.629
   24        0.506   0.307   8.779   9.591
   25        0.514   0.299   8.776   9.589
   26        0.514   0.299   8.776   9.589
   27        0.507   0.306   8.780   9.593
   28        0.537   0.227   8.762   9.526
   29        0.556   0.246   8.744   9.546
   30        0.556   0.246   8.744   9.546
   31        0.542   0.243   8.752   9.538
   32        0.542   0.243   8.752   9.538
   33        0.557   0.246   8.744   9.547
   34        0.557   0.246   8.744   9.547
   35        0.531   0.226   8.764   9.521
   36        0.519   0.356   5.954   6.829
   37        0.895   1.714   0.000   2.609
   38        1.603   3.493   0.000   5.096
   39        1.603   3.493   0.000   5.096
--------------------------------------------------
tot         23.276  18.738 312.718 354.732
 
 BZINTS: Fermi energy:    0.098660;  409.000000 electrons
         Band energy:-0.155925E+04;  BLOECHL correction:   -0.075979

 total amount of memory used by VASP MPI-rank0   278035. kBytes
=======================================================================

   base      :      30000. kBytes
   nonlr-proj:      14621. kBytes
   fftplans  :       4808. kBytes
   grid      :      20723. kBytes
   one-center:        606. kBytes
   wavefun   :     207277. kBytes
 
  
  
 General timing and accounting informations for this job:
 ========================================================
  
                  Total CPU time used (sec):      286.442
                            User time (sec):      276.513
                          System time (sec):        9.929
                         Elapsed time (sec):      286.878
  
                   Maximum memory used (kb):      578160.
                   Average memory used (kb):          N/A
  
                          Minor page faults:       123347
                          Major page faults:            0
                 Voluntary context switches:         6967
