PROCAR new format
# of k-points:   10         # of bands:  240         # of ions:   38

 k-point     1 :    0.00000000 0.00000000 0.00000000     weight = 0.01562500

band     1 # energy  -23.72353576 # occ.  2.00000000
 
ion      s      p      d    tot
    1  0.000  0.000  0.000  0.000
    2  0.000  0.000  0.000  0.000
    3  0.000  0.000  0.000  0.000
    4  0.000  0.000  0.000  0.000
    5  0.000  0.000  0.000  0.000
    6  0.000  0.000  0.000  0.000
    7  0.000  0.000  0.000  0.000
    8  0.000  0.000  0.000  0.000
    9  0.000  0.000  0.000  0.000
   10  0.000  0.000  0.000  0.000
   11  0.000  0.000  0.000  0.000
   12  0.000  0.000  0.000  0.000
   13  0.000  0.000  0.000  0.000
   14  0.000  0.000  0.000  0.000
   15  0.000  0.000  0.000  0.000
   16  0.000  0.000  0.000  0.000
   17  0.000  0.000  0.000  0.000
   18  0.000  0.000  0.000  0.000
   19  0.000  0.000  0.000  0.000
   20  0.000  0.000  0.000  0.000
   21  0.000  0.000  0.000  0.000
   22  0.000  0.000  0.000  0.000
   23  0.000  0.000  0.000  0.000
   24  0.000  0.000  0.000  0.000
   25  0.000  0.000  0.000  0.000
   26  0.000  0.000  0.000  0.000
   27  0.000  0.000  0.000  0.000
   28  0.000  0.000  0.000  0.000
   29  0.000  0.000  0.000  0.000
   30  0.000  0.000  0.000  0.000
   31  0.000  0.000  0.000  0.000
   32  0.000  0.000  0.000  0.000
   33  0.000  0.000  0.000  0.000
   34  0.000  0.000  0.000  0.000
   35  0.000  0.000  0.000  0.000
   36  0.000  0.000  0.000  0.000
   37  0.160  0.120  0.000  0.280
   38  0.641  0.097  0.000  0.738
tot    0.801  0.217  0.000  1.018
 
band     2 # energy   -9.00044654 # occ.  2.00000000
 
ion      s      p      d    tot
    1  0.000  0.000  0.000  0.001
    2  0.000  0.000  0.000  0.000
    3  0.000  0.000  0.000  0.000
    4  0.000  0.000  0.000  0.000
    5  0.000  0.000  0.000  0.000
    6  0.000  0.000  0.000  0.000
    7  0.000  0.000  0.000  0.000
    8  0.000  0.000  0.000  0.000
    9  0.000  0.000  0.000  0.000
   10  0.002  0.000  0.000  0.002
   11  0.002  0.000  0.000  0.002
   12  0.002  0.000  0.000  0.002
   13  0.002  0.000  0.000  0.002
   14  0.002  0.000  0.000  0.002
   15  0.002  0.000  0.000  0.002
   16  0.002  0.000  0.000  0.002
   17  0.002  0.000  0.000  0.002
   18  0.002  0.000  0.000  0.002
   19  0.003  0.000  0.000  0.003
   20  0.005  0.000  0.000  0.005
   21  0.005  0.000  0.000  0.005
   22  0.003  0.000  0.000  0.003
   23  0.005  0.000  0.000  0.005
   24  0.003  0.000  0.000  0.003
   25  0.003  0.000  0.000  0.003
   26  0.003  0.000  0.000  0.003
   27  0.003  0.000  0.000  0.003
   28  0.001  0.000  0.000  0.001
   29  0.002  0.000  0.000  0.003
   30  0.002  0.000  0.000  0.003
   31  0.002  0.000  0.000  0.003
   32  0.002  0.000  0.000  0.003
   33  0.002  0.000  0.000  0.003
   34  0.002  0.000  0.000  0.003
   35  0.001  0.000  0.000  0.001
   36  0.026  0.009  0.015  0.050
   37  0.221  0.000  0.000  0.221
   38  0.138  0.263  0.000  0.402
tot    0.458  0.274  0.018  0.749
 
band     3 # energy   -8.76905989 # occ.  2.00000000
 
ion      s      p      d    tot
    1  0.006  0.001  0.000  0.007
    2  0.006  0.000  0.000  0.007
    3  0.006  0.000  0.000  0.007
    4  0.006  0.000  0.000  0.007
    5  0.006  0.001  0.000  0.007
    6  0.006  0.000  0.000  0.007
    7  0.006  0.000  0.000  0.007
    8  0.006  0.000  0.000  0.007
    9  0.006  0.000  0.000  0.007
   10  0.025  0.000  0.000  0.025
   11  0.025  0.000  0.000  0.025
   12  0.025  0.000  0.000  0.025
   13  0.025  0.000  0.000  0.025
   14  0.025  0.000  0.000  0.025
   15  0.024  0.000  0.000  0.025
   16  0.025  0.000  0.000  0.025
   17  0.024  0.000  0.000  0.025
   18  0.024  0.000  0.000  0.025
   19  0.020  0.000  0.000  0.021
   20  0.022  0.000  0.000  0.022
   21  0.022  0.000  0.000  0.022
   22  0.021  0.000  0.000  0.021
   23  0.022  0.000  0.000  0.022
   24  0.021  0.000  0.000  0.021
   25  0.020  0.000  0.000  0.021
   26  0.020  0.000  0.000  0.021
   27  0.021  0.000  0.000  0.021
   28  0.004  0.000  0.000  0.004
   29  0.003  0.000  0.000  0.004
   30  0.003  0.000  0.000  0.004
   31  0.003  0.000  0.000  0.004
   32  0.003  0.000  0.000  0.004
   33  0.003  0.000  0.000  0.004
   34  0.003  0.000  0.000  0.004
   35  0.004  0.000  0.000  0.004
   36  0.001  0.004  0.001  0.006
   37  0.028  0.001  0.000  0.028
   38  0.020  0.045  0.000  0.066
tot    0.542  0.060  0.005  0.607
 
band     4 # energy   -7.62103493 # occ.  2.00000000
 
ion      s      p      d    tot
    1  0.016  0.000  0.001  0.018
    2  0.016  0.000  0.001  0.018
    3  0.016  0.000  0.001  0.018
    4  0.016  0.000  0.001  0.018
    5  0.016  0.000  0.001  0.018
    6  0.016  0.000  0.001  0.018
    7  0.016  0.000  0.001  0.018
    8  0.016  0.000  0.001  0.018
    9  0.016  0.000  0.001  0.018
   10  0.010  0.001  0.002  0.014
   11  0.010  0.001  0.003  0.014
   12  0.010  0.001  0.002  0.014
   13  0.010  0.001  0.003  0.014
   14  0.010  0.001  0.003  0.014
   15  0.010  0.001  0.002  0.014
   16  0.010  0.001  0.002  0.014
   17  0.010  0.001  0.002  0.014
   18  0.010  0.001  0.002  0.014
   19  0.013  0.001  0.004  0.018
   20  0.015  0.001  0.004  0.020
   21  0.015  0.001  0.004  0.020
   22  0.014  0.001  0.003  0.018
   23  0.015  0.001  0.004  0.020
   24  0.014  0.001  0.003  0.018
   25  0.013  0.001  0.004  0.018
   26  0.013  0.001  0.004  0.018
   27  0.014  0.001  0.003  0.018
   28  0.014  0.000  0.001  0.015
   29  0.014  0.000  0.001  0.015
   30  0.014  0.000  0.001  0.015
   31  0.014  0.000  0.001  0.015
   32  0.014  0.000  0.001  0.015
   33  0.014  0.000  0.001  0.015
   34  0.014  0.000  0.001  0.015
   35  0.014  0.000  0.001  0.015
   36  0.014  0.000  0.000  0.015
   37  0.000  0.004  0.000  0.004
   38  0.002  0.012  0.000  0.015
tot    0.490  0.047  0.069  0.606
 
band     5 # energy   -6.67800286 # occ.  2.00000000
 
ion      s      p      d    tot
    1  0.019  0.000  0.020  0.038
    2  0.020  0.000  0.018  0.038
    3  0.020  0.000  0.018  0.038
    4  0.020  0.000  0.018  0.038
    5  0.016  0.000  0.018  0.034
    6  0.020  0.000  0.018  0.038
    7  0.020  0.000  0.018  0.038
    8  0.020  0.000  0.018  0.038
    9  0.028  0.000  0.016  0.043
   10  0.007  0.001  0.016  0.024
   11  0.012  0.001  0.014  0.027
   12  0.007  0.001  0.016  0.024
   13  0.012  0.001  0.014  0.027
   14  0.012  0.001  0.014  0.027
   15  0.002  0.001  0.018  0.021
   16  0.007  0.001  0.016  0.024
   17  0.002  0.001  0.018  0.021
   18  0.002  0.001  0.018  0.021
   19  0.000  0.001  0.001  0.002
   20  0.003  0.001  0.000  0.004
   21  0.003  0.001  0.000  0.004
   22  0.000  0.001  0.001  0.001
   23  0.003  0.001  0.000  0.004
   24  0.000  0.001  0.001  0.001
   25  0.000  0.001  0.001  0.002
   26  0.000  0.001  0.001  0.002
   27  0.000  0.001  0.001  0.001
   28  0.009  0.000  0.003  0.012
   29  0.007  0.000  0.004  0.012
   30  0.007  0.000  0.004  0.012
   31  0.007  0.000  0.004  0.012
   32  0.007  0.000  0.004  0.012
   33  0.007  0.000  0.004  0.012
   34  0.007  0.000  0.004  0.012
   35  0.009  0.000  0.004  0.012
   36  0.004  0.002  0.000  0.006
   37  0.000  0.005  0.000  0.005
   38  0.001  0.007  0.000  0.008
tot    0.321  0.030  0.345  0.696
 
band     6 # energy   -6.66720355 # occ.  2.00000000
 
ion      s      p      d    tot
    1  0.013  0.001  0.000  0.014
    2  0.001  0.001  0.005  0.007
    3  0.001  0.001  0.005  0.007
    4  0.001  0.001  0.005  0.007
    5  0.002  0.000  0.001  0.004
    6  0.001  0.001  0.005  0.007
    7  0.001  0.001  0.005  0.007
    8  0.001  0.001  0.005  0.007
    9  0.006  0.002  0.003  0.011
   10  0.008  0.000  0.027  0.035
   11  0.002  0.002  0.014  0.018
   12  0.008  0.000  0.027  0.035
   13  0.002  0.002  0.014  0.018
   14  0.002  0.002  0.014  0.018
   15  0.031  0.003  0.003  0.037
   16  0.008  0.000  0.027  0.035
   17  0.031  0.003  0.003  0.037
   18  0.031  0.003  0.003  0.037
   19  0.000  0.001  0.021  0.022
   20  0.019  0.001  0.028  0.047
   21  0.019  0.001  0.028  0.047
   22  0.024  0.003  0.003  0.029
   23  0.019  0.001  0.028  0.047
   24  0.023  0.003  0.003  0.029
   25  0.000  0.001  0.021  0.022
   26  0.000  0.001  0.021  0.022
   27  0.024  0.003  0.003  0.029
   28  0.000  0.000  0.001  0.001
   29  0.000  0.000  0.004  0.004
   30  0.000  0.000  0.004  0.004
   31  0.000  0.000  0.004  0.004
   32  0.000  0.000  0.004  0.004
   33  0.000  0.000  0.004  0.004
   34  0.000  0.000  0.004  0.004
   35  0.007  0.001  0.000  0.009
   36  0.017  0.001  0.006  0.023
   37  0.001  0.007  0.000  0.008
   38  0.001  0.010  0.000  0.011
tot    0.300  0.056  0.355  0.711
 
band     7 # energy   -6.65611028 # occ.  2.00000000
 
ion      s      p      d    tot
    1  0.000  0.000  0.008  0.008
    2  0.004  0.001  0.004  0.008
    3  0.006  0.001  0.003  0.010
    4  0.004  0.001  0.004  0.009
    5  0.000  0.001  0.007  0.008
    6  0.000  0.000  0.003  0.003
    7  0.006  0.001  0.003  0.010
    8  0.000  0.000  0.003  0.003
    9  0.000  0.000  0.001  0.001
   10  0.000  0.000  0.036  0.036
   11  0.039  0.001  0.015  0.056
   12  0.026  0.002  0.012  0.040
   13  0.040  0.001  0.015  0.056
   14  0.000  0.003  0.025  0.028
   15  0.001  0.001  0.011  0.013
   16  0.026  0.002  0.012  0.040
   17  0.001  0.001  0.011  0.013
   18  0.000  0.004  0.004  0.008
   19  0.007  0.001  0.011  0.018
   20  0.000  0.002  0.036  0.038
   21  0.045  0.002  0.016  0.063
   22  0.014  0.001  0.010  0.026
   23  0.045  0.002  0.016  0.063
   24  0.000  0.000  0.028  0.028
   25  0.000  0.004  0.003  0.007
   26  0.007  0.001  0.011  0.019
   27  0.014  0.001  0.011  0.026
   28  0.000  0.000  0.001  0.001
   29  0.000  0.000  0.002  0.002
   30  0.005  0.001  0.003  0.009
   31  0.000  0.000  0.002  0.002
   32  0.005  0.001  0.004  0.009
   33  0.005  0.001  0.003  0.009
   34  0.005  0.001  0.004  0.009
   35  0.000  0.000  0.005  0.005
   36  0.000  0.003  0.003  0.007
   37  0.000  0.000  0.000  0.000
   38  0.000  0.001  0.000  0.001
tot    0.305  0.045  0.342  0.693
 
band     8 # energy   -6.65608373 # occ.  2.00000000
 
ion      s      p      d    tot
    1  0.000  0.000  0.008  0.008
    2  0.003  0.001  0.003  0.006
    3  0.001  0.000  0.003  0.004
    4  0.003  0.001  0.003  0.006
    5  0.000  0.001  0.007  0.008
    6  0.007  0.001  0.004  0.012
    7  0.001  0.000  0.003  0.004
    8  0.007  0.001  0.004  0.012
    9  0.000  0.000  0.001  0.001
   10  0.034  0.002  0.004  0.041
   11  0.014  0.003  0.021  0.038
   12  0.008  0.001  0.028  0.037
   13  0.013  0.003  0.022  0.037
   14  0.053  0.001  0.011  0.065
   15  0.000  0.003  0.006  0.009
   16  0.009  0.001  0.028  0.037
   17  0.000  0.003  0.006  0.009
   18  0.002  0.000  0.013  0.015
   19  0.002  0.003  0.006  0.011
   20  0.060  0.001  0.009  0.071
   21  0.015  0.002  0.029  0.046
   22  0.004  0.001  0.022  0.027
   23  0.015  0.002  0.029  0.047
   24  0.018  0.002  0.005  0.025
   25  0.009  0.000  0.013  0.022
   26  0.002  0.003  0.005  0.011
   27  0.005  0.001  0.022  0.027
   28  0.000  0.000  0.001  0.001
   29  0.007  0.001  0.003  0.011
   30  0.001  0.001  0.003  0.005
   31  0.007  0.001  0.003  0.011
   32  0.002  0.000  0.002  0.004
   33  0.001  0.001  0.003  0.005
   34  0.002  0.000  0.002  0.004
   35  0.000  0.000  0.005  0.005
   36  0.000  0.003  0.003  0.007
   37  0.000  0.000  0.000  0.000
   38  0.000  0.001  0.000  0.001
tot    0.305  0.045  0.342  0.693
 
band     9 # energy   -6.63144593 # occ.  2.00000000
 
ion      s      p      d    tot
    1  0.003  0.001  0.002  0.006
    2  0.001  0.001  0.006  0.007
    3  0.001  0.001  0.006  0.007
    4  0.001  0.001  0.006  0.007
    5  0.019  0.001  0.000  0.021
    6  0.001  0.001  0.006  0.007
    7  0.001  0.001  0.006  0.007
    8  0.001  0.001  0.006  0.007
    9  0.000  0.000  0.004  0.004
   10  0.023  0.003  0.003  0.028
   11  0.017  0.001  0.022  0.040
   12  0.023  0.003  0.003  0.028
   13  0.017  0.001  0.022  0.040
   14  0.017  0.001  0.022  0.040
   15  0.002  0.001  0.023  0.026
   16  0.023  0.003  0.003  0.028
   17  0.002  0.001  0.023  0.026
   18  0.002  0.001  0.023  0.026
   19  0.016  0.002  0.012  0.030
   20  0.012  0.003  0.014  0.029
   21  0.012  0.003  0.014  0.029
   22  0.008  0.000  0.024  0.033
   23  0.012  0.003  0.014  0.029
   24  0.008  0.000  0.024  0.033
   25  0.016  0.002  0.012  0.030
   26  0.016  0.002  0.012  0.030
   27  0.008  0.000  0.024  0.033
   28  0.017  0.001  0.000  0.018
   29  0.001  0.000  0.005  0.007
   30  0.001  0.000  0.005  0.007
   31  0.001  0.000  0.005  0.007
   32  0.001  0.000  0.005  0.007
   33  0.001  0.000  0.005  0.007
   34  0.001  0.000  0.005  0.007
   35  0.000  0.001  0.005  0.006
   36  0.000  0.001  0.000  0.001
   37  0.000  0.001  0.000  0.001
   38  0.000  0.002  0.000  0.002
tot    0.288  0.039  0.375  0.702
 
band    10 # energy   -6.61152600 # occ.  2.00000000
 
ion      s      p      d    tot
    1  0.002  0.000  0.001  0.004
    2  0.000  0.000  0.002  0.003
    3  0.000  0.000  0.002  0.003
    4  0.000  0.000  0.002  0.003
    5  0.001  0.000  0.002  0.003
    6  0.000  0.000  0.002  0.003
    7  0.000  0.000  0.002  0.003
    8  0.000  0.000  0.002  0.003
    9  0.002  0.000  0.000  0.002
   10  0.000  0.001  0.011  0.012
   11  0.010  0.000  0.007  0.017
   12  0.000  0.001  0.011  0.012
   13  0.010  0.000  0.007  0.017
   14  0.010  0.000  0.007  0.017
   15  0.000  0.000  0.013  0.013
   16  0.000  0.001  0.011  0.012
   17  0.000  0.000  0.013  0.013
   18  0.000  0.000  0.013  0.013
   19  0.018  0.001  0.017  0.035
   20  0.002  0.000  0.031  0.033
   21  0.002  0.000  0.031  0.033
   22  0.003  0.000  0.027  0.030
   23  0.002  0.000  0.031  0.033
   24  0.003  0.000  0.027  0.030
   25  0.018  0.001  0.017  0.035
   26  0.018  0.001  0.017  0.035
   27  0.003  0.000  0.027  0.030
   28  0.006  0.000  0.016  0.023
   29  0.016  0.000  0.014  0.030
   30  0.016  0.000  0.014  0.030
   31  0.016  0.000  0.014  0.030
   32  0.016  0.000  0.014  0.030
   33  0.016  0.000  0.014  0.030
   34  0.016  0.000  0.014  0.030
   35  0.021  0.000  0.011  0.032
   36  0.021  0.003  0.001  0.025
   37  0.001  0.014  0.000  0.015
   38  0.001  0.021  0.000  0.022
tot    0.251  0.047  0.447  0.745
 
band    11 # energy   -6.60516512 # occ.  2.00000000
 
ion      s      p      d    tot
    1  0.000  0.001  0.004  0.005
    2  0.005  0.001  0.004  0.010
    3  0.007  0.001  0.004  0.012
    4  0.005  0.001  0.004  0.010
    5  0.000  0.000  0.004  0.004
    6  0.000  0.000  0.003  0.004
    7  0.008  0.001  0.004  0.012
    8  0.000  0.000  0.003  0.004
    9  0.000  0.001  0.011  0.012
   10  0.028  0.000  0.017  0.045
   11  0.002  0.001  0.019  0.022
   12  0.007  0.004  0.008  0.018
   13  0.002  0.001  0.019  0.022
   14  0.007  0.001  0.008  0.016
   15  0.016  0.001  0.033  0.050
   16  0.007  0.003  0.008  0.019
   17  0.015  0.001  0.034  0.049
   18  0.061  0.002  0.005  0.067
   19  0.011  0.001  0.028  0.040
   20  0.001  0.001  0.013  0.014
   21  0.000  0.002  0.012  0.014
   22  0.008  0.003  0.014  0.025
   23  0.000  0.002  0.012  0.014
   24  0.033  0.001  0.012  0.045
   25  0.041  0.002  0.003  0.047
   26  0.010  0.001  0.029  0.039
   27  0.009  0.003  0.014  0.025
   28  0.000  0.000  0.007  0.007
   29  0.000  0.000  0.002  0.002
   30  0.003  0.001  0.002  0.005
   31  0.000  0.000  0.002  0.002
   32  0.004  0.001  0.003  0.008
   33  0.002  0.001  0.002  0.005
   34  0.004  0.001  0.003  0.008
   35  0.000  0.001  0.004  0.004
   36  0.000  0.000  0.001  0.001
   37  0.000  0.002  0.000  0.002
   38  0.000  0.006  0.000  0.006
tot    0.294  0.049  0.350  0.693
 
band    12 # energy   -6.60513813 # occ.  2.00000000
 
ion      s      p      d    tot
    1  0.000  0.001  0.004  0.005
    2  0.004  0.001  0.003  0.008
    3  0.001  0.000  0.004  0.005
    4  0.004  0.001  0.003  0.007
    5  0.000  0.000  0.004  0.004
    6  0.008  0.001  0.004  0.013
    7  0.001  0.000  0.004  0.005
    8  0.008  0.001  0.004  0.013
    9  0.000  0.001  0.011  0.012
   10  0.000  0.005  0.005  0.010
   11  0.005  0.001  0.012  0.018
   12  0.021  0.001  0.014  0.036
   13  0.005  0.001  0.012  0.018
   14  0.000  0.002  0.023  0.024
   15  0.045  0.001  0.015  0.061
   16  0.021  0.001  0.014  0.036
   17  0.046  0.001  0.014  0.061
   18  0.000  0.001  0.043  0.044
   19  0.031  0.002  0.012  0.044
   20  0.000  0.002  0.012  0.014
   21  0.001  0.001  0.013  0.014
   22  0.025  0.001  0.012  0.039
   23  0.001  0.001  0.013  0.014
   24  0.000  0.004  0.014  0.018
   25  0.000  0.000  0.037  0.037
   26  0.031  0.002  0.011  0.044
   27  0.024  0.001  0.012  0.038
   28  0.000  0.000  0.007  0.007
   29  0.004  0.001  0.002  0.008
   30  0.002  0.000  0.002  0.005
   31  0.004  0.001  0.002  0.008
   32  0.000  0.000  0.001  0.002
   33  0.002  0.000  0.002  0.005
   34  0.000  0.000  0.001  0.002
   35  0.000  0.001  0.004  0.004
   36  0.000  0.000  0.001  0.001
   37  0.000  0.002  0.000  0.002
   38  0.000  0.006  0.000  0.006
tot    0.294  0.049  0.350  0.693
 
band    13 # energy   -6.42572102 # occ.  2.00000000
 
ion      s      p      d    tot
    1  0.000  0.000  0.000  0.000
    2  0.000  0.000  0.000  0.000
    3  0.000  0.000  0.000  0.000
    4  0.000  0.000  0.000  0.000
    5  0.000  0.000  0.000  0.000
    6  0.000  0.000  0.000  0.000
    7  0.000  0.000  0.000  0.000
    8  0.000  0.000  0.000  0.000
    9  0.000  0.000  0.000  0.000
   10  0.000  0.000  0.000  0.000
   11  0.000  0.000  0.001  0.001
   12  0.000  0.000  0.000  0.000
   13  0.000  0.000  0.001  0.001
   14  0.001  0.000  0.000  0.001
   15  0.000  0.000  0.001  0.001
   16  0.000  0.000  0.000  0.000
   17  0.000  0.000  0.001  0.001
   18  0.002  0.000  0.000  0.002
   19  0.000  0.000  0.001  0.001
   20  0.000  0.000  0.000  0.000
   21  0.000  0.000  0.000  0.000
   22  0.000  0.000  0.000  0.000
   23  0.000  0.000  0.000  0.000
   24  0.000  0.000  0.000  0.001
   25  0.001  0.000  0.000  0.001
   26  0.000  0.000  0.001  0.001
   27  0.000  0.000  0.000  0.000
   28  0.000  0.000  0.001  0.001
   29  0.002  0.000  0.001  0.003
   30  0.000  0.000  0.001  0.001
   31  0.002  0.000  0.001  0.003
   32  0.001  0.000  0.001  0.002
   33  0.000  0.000  0.001  0.001
   34  0.001  0.000  0.001  0.002
   35  0.000  0.000  0.001  0.001
   36  0.000  0.003  0.006  0.008
   37  0.000  0.166  0.000  0.166
   38  0.000  0.476  0.000  0.476
tot    0.012  0.647  0.022  0.681
 
band    14 # energy   -6.42562347 # occ.  2.00000000
 
ion      s      p      d    tot
    1  0.000  0.000  0.000  0.000
    2  0.000  0.000  0.000  0.000
    3  0.000  0.000  0.000  0.000
    4  0.000  0.000  0.000  0.000
    5  0.000  0.000  0.000  0.000
    6  0.000  0.000  0.000  0.000
    7  0.000  0.000  0.000  0.000
    8  0.000  0.000  0.000  0.000
    9  0.000  0.000  0.000  0.000
   10  0.000  0.000  0.000  0.000
   11  0.001  0.000  0.000  0.001
   12  0.000  0.000  0.000  0.000
   13  0.001  0.000  0.000  0.001
   14  0.000  0.000  0.001  0.001
   15  0.001  0.000  0.000  0.002
   16  0.000  0.000  0.000  0.000
   17  0.001  0.000  0.000  0.002
   18  0.000  0.000  0.001  0.001
   19  0.001  0.000  0.000  0.001
   20  0.000  0.000  0.001  0.001
   21  0.000  0.000  0.000  0.000
   22  0.000  0.000  0.000  0.001
   23  0.000  0.000  0.000  0.000
   24  0.000  0.000  0.000  0.000
   25  0.000  0.000  0.001  0.001
   26  0.001  0.000  0.000  0.001
   27  0.000  0.000  0.000  0.001
   28  0.000  0.000  0.001  0.001
   29  0.000  0.000  0.001  0.001
   30  0.002  0.000  0.001  0.003
   31  0.000  0.000  0.001  0.001
   32  0.001  0.000  0.001  0.002
   33  0.002  0.000  0.001  0.003
   34  0.001  0.000  0.001  0.002
   35  0.000  0.000  0.001  0.001
   36  0.000  0.003  0.006  0.008
   37  0.000  0.166  0.000  0.166
   38  0.000  0.476  0.000  0.476
tot    0.012  0.647  0.022  0.681
 
band    15 # energy   -6.18065845 # occ.  2.00000000
 
ion      s      p      d    tot
    1  0.003  0.001  0.002  0.006
    2  0.000  0.001  0.008  0.009
    3  0.000  0.001  0.008  0.009
    4  0.000  0.001  0.008  0.009
    5  0.008  0.000  0.001  0.009
    6  0.000  0.001  0.008  0.009
    7  0.000  0.001  0.008  0.009
    8  0.000  0.001  0.008  0.009
    9  0.019  0.002  0.001  0.023
   10  0.008  0.001  0.034  0.042
   11  0.000  0.000  0.037  0.038
   12  0.008  0.001  0.034  0.042
   13  0.000  0.000  0.037  0.038
   14  0.000  0.000  0.037  0.038
   15  0.013  0.002  0.007  0.021
   16  0.008  0.001  0.034  0.042
   17  0.013  0.002  0.007  0.021
   18  0.013  0.002  0.007  0.021
   19  0.000  0.000  0.028  0.029
   20  0.006  0.001  0.037  0.045
   21  0.006  0.001  0.037  0.045
   22  0.006  0.001  0.008  0.016
   23  0.006  0.001  0.037  0.045
   24  0.006  0.001  0.008  0.015
   25  0.000  0.000  0.028  0.029
   26  0.000  0.000  0.028  0.029
   27  0.006  0.001  0.008  0.016
   28  0.001  0.000  0.000  0.001
   29  0.000  0.000  0.004  0.004
   30  0.000  0.000  0.004  0.004
   31  0.000  0.000  0.004  0.004
   32  0.000  0.000  0.004  0.004
   33  0.000  0.000  0.004  0.004
   34  0.000  0.000  0.004  0.004
   35  0.015  0.001  0.000  0.016
   36  0.011  0.000  0.011  0.021
   37  0.003  0.014  0.000  0.017
   38  0.001  0.014  0.000  0.015
tot    0.160  0.056  0.542  0.759
 
band    16 # energy   -6.17593957 # occ.  2.00000000
 
ion      s      p      d    tot
    1  0.000  0.001  0.004  0.005
    2  0.009  0.001  0.004  0.014
    3  0.001  0.000  0.004  0.006
    4  0.009  0.001  0.004  0.014
    5  0.000  0.001  0.011  0.012
    6  0.004  0.001  0.005  0.010
    7  0.001  0.000  0.004  0.006
    8  0.004  0.001  0.005  0.010
    9  0.000  0.000  0.008  0.008
   10  0.011  0.002  0.008  0.020
   11  0.005  0.000  0.038  0.043
   12  0.003  0.001  0.041  0.045
   13  0.005  0.000  0.038  0.043
   14  0.020  0.001  0.012  0.033
   15  0.000  0.001  0.014  0.015
   16  0.003  0.001  0.041  0.045
   17  0.000  0.001  0.013  0.015
   18  0.001  0.000  0.022  0.023
   19  0.002  0.001  0.015  0.018
   20  0.022  0.001  0.006  0.030
   21  0.005  0.000  0.062  0.067
   22  0.001  0.001  0.027  0.028
   23  0.006  0.000  0.061  0.067
   24  0.003  0.001  0.014  0.018
   25  0.008  0.000  0.021  0.030
   26  0.002  0.001  0.015  0.018
   27  0.001  0.001  0.026  0.028
   28  0.000  0.000  0.008  0.009
   29  0.007  0.001  0.004  0.012
   30  0.000  0.000  0.004  0.005
   31  0.007  0.001  0.004  0.012
   32  0.006  0.001  0.004  0.012
   33  0.000  0.000  0.004  0.005
   34  0.006  0.001  0.004  0.012
   35  0.000  0.000  0.003  0.003
   36  0.000  0.003  0.004  0.007
   37  0.000  0.001  0.000  0.001
   38  0.000  0.003  0.000  0.003
tot    0.153  0.035  0.564  0.752
 
band    17 # energy   -6.17593784 # occ.  2.00000000
 
ion      s      p      d    tot
    1  0.000  0.001  0.004  0.005
    2  0.000  0.000  0.005  0.006
    3  0.008  0.001  0.005  0.014
    4  0.000  0.000  0.005  0.006
    5  0.000  0.001  0.011  0.012
    6  0.006  0.001  0.004  0.010
    7  0.008  0.001  0.005  0.014
    8  0.005  0.001  0.004  0.010
    9  0.000  0.000  0.008  0.008
   10  0.000  0.001  0.053  0.053
   11  0.015  0.001  0.021  0.037
   12  0.008  0.002  0.019  0.028
   13  0.015  0.001  0.021  0.037
   14  0.000  0.000  0.046  0.046
   15  0.001  0.000  0.019  0.020
   16  0.008  0.002  0.019  0.029
   17  0.001  0.000  0.019  0.020
   18  0.000  0.001  0.011  0.012
   19  0.006  0.000  0.019  0.026
   20  0.000  0.000  0.080  0.080
   21  0.017  0.001  0.024  0.042
   22  0.002  0.001  0.019  0.022
   23  0.017  0.001  0.025  0.042
   24  0.000  0.001  0.030  0.031
   25  0.000  0.001  0.013  0.014
   26  0.006  0.000  0.019  0.026
   27  0.002  0.001  0.019  0.022
   28  0.000  0.000  0.008  0.009
   29  0.002  0.001  0.004  0.007
   30  0.009  0.001  0.004  0.014
   31  0.002  0.001  0.004  0.007
   32  0.003  0.001  0.004  0.007
   33  0.009  0.001  0.004  0.014
   34  0.002  0.001  0.004  0.007
   35  0.000  0.000  0.003  0.003
   36  0.000  0.003  0.004  0.007
   37  0.000  0.001  0.000  0.001
   38  0.000  0.004  0.000  0.004
tot    0.153  0.035  0.564  0.752
 
band    18 # energy   -6.17178539 # occ.  2.00000000
 
ion      s      p      d    tot
    1  0.013  0.001  0.000  0.014
    2  0.000  0.001  0.006  0.006
    3  0.000  0.001  0.006  0.006
    4  0.000  0.001  0.006  0.006
    5  0.007  0.001  0.001  0.009
    6  0.000  0.001  0.006  0.007
    7  0.000  0.001  0.006  0.006
    8  0.000  0.001  0.006  0.007
    9  0.001  0.000  0.001  0.002
   10  0.003  0.001  0.016  0.020
   11  0.008  0.001  0.011  0.020
   12  0.003  0.001  0.016  0.020
   13  0.008  0.001  0.011  0.020
   14  0.008  0.001  0.011  0.020
   15  0.002  0.000  0.035  0.037
   16  0.003  0.001  0.016  0.020
   17  0.002  0.000  0.035  0.037
   18  0.002  0.000  0.034  0.036
   19  0.012  0.002  0.008  0.022
   20  0.001  0.001  0.033  0.036
   21  0.002  0.001  0.034  0.036
   22  0.005  0.000  0.037  0.042
   23  0.002  0.001  0.034  0.036
   24  0.005  0.000  0.038  0.043
   25  0.012  0.002  0.008  0.022
   26  0.012  0.002  0.008  0.022
   27  0.005  0.000  0.037  0.042
   28  0.019  0.002  0.001  0.022
   29  0.000  0.001  0.008  0.009
   30  0.000  0.001  0.008  0.009
   31  0.000  0.001  0.008  0.009
   32  0.000  0.001  0.008  0.009
   33  0.000  0.001  0.008  0.009
   34  0.000  0.001  0.008  0.009
   35  0.000  0.000  0.003  0.003
   36  0.025  0.000  0.007  0.032
   37  0.004  0.022  0.000  0.026
   38  0.001  0.023  0.000  0.024
tot    0.163  0.073  0.520  0.757
 
band    19 # energy   -6.11333305 # occ.  2.00000000
 
ion      s      p      d    tot
    1  0.000  0.001  0.014  0.015
    2  0.010  0.001  0.005  0.016
    3  0.002  0.000  0.005  0.008
    4  0.010  0.001  0.005  0.016
    5  0.000  0.000  0.005  0.005
    6  0.003  0.001  0.006  0.009
    7  0.002  0.000  0.005  0.008
    8  0.003  0.001  0.005  0.009
    9  0.000  0.001  0.008  0.009
   10  0.000  0.001  0.027  0.028
   11  0.001  0.001  0.020  0.022
   12  0.006  0.000  0.022  0.029
   13  0.001  0.001  0.020  0.022
   14  0.000  0.001  0.021  0.022
   15  0.011  0.002  0.021  0.034
   16  0.006  0.000  0.023  0.029
   17  0.011  0.002  0.021  0.034
   18  0.000  0.000  0.064  0.064
   19  0.012  0.001  0.020  0.033
   20  0.000  0.002  0.018  0.019
   21  0.000  0.001  0.023  0.024
   22  0.018  0.001  0.020  0.039
   23  0.000  0.001  0.023  0.024
   24  0.000  0.000  0.035  0.036
   25  0.000  0.000  0.066  0.066
   26  0.012  0.001  0.019  0.033
   27  0.018  0.001  0.020  0.039
   28  0.000  0.001  0.005  0.005
   29  0.006  0.001  0.004  0.010
   30  0.000  0.000  0.004  0.005
   31  0.006  0.001  0.004  0.010
   32  0.003  0.001  0.002  0.006
   33  0.000  0.000  0.004  0.005
   34  0.003  0.001  0.002  0.006
   35  0.000  0.001  0.008  0.009
   36  0.000  0.000  0.001  0.001
   37  0.000  0.000  0.000  0.000
   38  0.000  0.000  0.000  0.000
tot    0.148  0.028  0.575  0.751
 
band    20 # energy   -6.11331713 # occ.  2.00000000
 
ion      s      p      d    tot
    1  0.000  0.001  0.014  0.015
    2  0.000  0.000  0.005  0.006
    3  0.008  0.001  0.005  0.014
    4  0.000  0.000  0.005  0.006
    5  0.000  0.000  0.005  0.005
    6  0.007  0.001  0.005  0.013
    7  0.008  0.001  0.005  0.014
    8  0.007  0.001  0.005  0.013
    9  0.000  0.001  0.008  0.009
   10  0.008  0.000  0.021  0.030
   11  0.000  0.001  0.021  0.022
   12  0.002  0.001  0.025  0.028
   13  0.000  0.001  0.021  0.022
   14  0.001  0.001  0.019  0.021
   15  0.004  0.001  0.049  0.054
   16  0.002  0.001  0.025  0.028
   17  0.004  0.001  0.050  0.054
   18  0.015  0.002  0.006  0.024
   19  0.004  0.001  0.050  0.055
   20  0.001  0.000  0.025  0.026
   21  0.000  0.001  0.020  0.021
   22  0.006  0.000  0.030  0.037
   23  0.000  0.001  0.020  0.021
   24  0.024  0.001  0.015  0.040
   25  0.016  0.001  0.004  0.022
   26  0.004  0.001  0.051  0.055
   27  0.006  0.000  0.030  0.037
   28  0.000  0.001  0.005  0.005
   29  0.001  0.000  0.003  0.004
   30  0.006  0.001  0.002  0.009
   31  0.001  0.000  0.003  0.004
   32  0.003  0.001  0.005  0.008
   33  0.006  0.001  0.002  0.009
   34  0.003  0.001  0.005  0.008
   35  0.000  0.001  0.008  0.009
   36  0.000  0.000  0.001  0.001
   37  0.000  0.000  0.000  0.000
   38  0.000  0.000  0.000  0.000
tot    0.148  0.028  0.575  0.751
 
band    21 # energy   -5.94066530 # occ.  2.00000000
 
ion      s      p      d    tot
    1  0.012  0.000  0.001  0.013
    2  0.000  0.000  0.007  0.008
    3  0.000  0.000  0.007  0.008
    4  0.000  0.000  0.007  0.008
    5  0.004  0.001  0.001  0.006
    6  0.000  0.000  0.007  0.008
    7  0.000  0.000  0.007  0.008
    8  0.000  0.000  0.007  0.008
    9  0.002  0.000  0.001  0.003
   10  0.001  0.001  0.010  0.011
   11  0.001  0.001  0.013  0.015
   12  0.001  0.001  0.010  0.011
   13  0.001  0.001  0.013  0.015
   14  0.001  0.001  0.013  0.015
   15  0.000  0.000  0.012  0.012
   16  0.001  0.001  0.010  0.011