 vasp.6.2.0 18Jan21 (build Jun 12 2021 23:27:24) complex                        
  
 executed on             LinuxIFC date 2022.05.26  19:45:09
 running on   28 total cores
 distrk:  each k-point on   28 cores,    1 groups
 distr:  one band on NCORE=   1 cores,   28 groups


--------------------------------------------------------------------------------------------------------


 INCAR:
   ISMEAR = -5
   SIGMA = 0.1
   ISPIN = 1
   EDIFF = 1.d-5
   EDIFFG = -0.01
   NSW = 0
   NELM = 150
   ENCUT = 500
   ISIF = 2
   IBRION = 2
   LREAL = Auto
   ALGO = Fast
   ICHARG = 11
   LORBIT = 10
   LCHARG = .F.
   LWAVE = .F.

 POTCAR:    PAW_PBE Ag 02Apr2005                  
 POTCAR:    PAW_PBE Zr_sv 04Jan2005               
 POTCAR:    PAW_PBE N 08Apr2002                   
 -----------------------------------------------------------------------------
|                                                                             |
|           W    W    AA    RRRRR   N    N  II  N    N   GGGG   !!!           |
|           W    W   A  A   R    R  NN   N  II  NN   N  G    G  !!!           |
|           W    W  A    A  R    R  N N  N  II  N N  N  G       !!!           |
|           W WW W  AAAAAA  RRRRR   N  N N  II  N  N N  G  GGG   !            |
|           WW  WW  A    A  R   R   N   NN  II  N   NN  G    G                |
|           W    W  A    A  R    R  N    N  II  N    N   GGGG   !!!           |
|                                                                             |
|     For optimal performance we recommend to set                             |
|       NCORE = 2 up to number-of-cores-per-socket                            |
|     NCORE specifies how many cores store one orbital (NPAR=cpu/NCORE).      |
|     This setting can greatly improve the performance of VASP for DFT.       |
|     The default, NCORE=1 might be grossly inefficient on modern             |
|     multi-core architectures or massively parallel machines. Do your        |
|     own testing! More info at https://www.vasp.at/wiki/index.php/NCORE      |
|     Unfortunately you need to use the default for GW and RPA                |
|     calculations (for HF NCORE is supported but not extensively tested      |
|     yet).                                                                   |
|                                                                             |
 -----------------------------------------------------------------------------

 POTCAR:    PAW_PBE Ag 02Apr2005                  
   VRHFIN =Ag : s1 d10                                                                              
   LEXCH  = PE                                                                                      
   EATOM  =  1037.2675 eV,   76.2370 Ry                                                             
                                                                                                    
   TITEL  = PAW_PBE Ag 02Apr2005                                                                    
   LULTRA =        F    use ultrasoft PP ?                                                          
   IUNSCR =        1    unscreen: 0-lin 1-nonlin 2-no                                               
   RPACOR =    2.000    partial core radius                                                         
   POMASS =  107.868; ZVAL   =   11.000    mass and valenz                                          
   RCORE  =    2.500    outmost cutoff radius                                                       
   RWIGS  =    2.840; RWIGS  =    1.503    wigner-seitz radius (au A)                               
   ENMAX  =  249.844; ENMIN  =  187.383 eV                                                          
   ICORE  =        3    local potential                                                             
   LCOR   =        T    correct aug charges                                                         
   LPAW   =        T    paw PP                                                                      
   EAUG   =  412.496                                                                                
   DEXC   =    0.000                                                                                
   RMAX   =    2.560    core radius for proj-oper                                                   
   RAUG   =    1.300    factor for augmentation sphere                                              
   RDEP   =    2.576    radius for radial grids                                                     
   RDEPT  =    2.072    core radius for aug-charge                                                  
                                                                                                    
   Atomic configuration                                                                             
   12 entries                                                                                       
     n  l   j            E        occ.                                                              
     1  0  0.50    -25324.9161   2.0000                                                             
     2  0  0.50     -3728.5341   2.0000                                                             
     2  1  1.50     -3344.0404   6.0000                                                             
     3  0  0.50      -683.5581   2.0000                                                             
     3  1  1.50      -557.3225   6.0000                                                             
     3  2  2.50      -358.3853  10.0000                                                             
     4  0  0.50       -95.0341   2.0000                                                             
     4  1  1.50       -58.5511   6.0000                                                             
     4  2  2.50        -7.4440  10.0000                                                             
     5  0  0.50        -4.4045   1.0000                                                             
     5  1  0.50        -1.3606   0.0000                                                             
     4  3  2.50        -1.3606   0.0000                                                             
   Description                                                                                      
     l       E           TYP  RCUT    TYP  RCUT                                                     
     2     -7.4439781     23  2.400                                                                 
     2     -8.8045607     23  2.400                                                                 
     0     -4.4044681     23  2.400                                                                 
     0      1.9520038     23  2.400                                                                 
     1     -1.3605826     23  2.500                                                                 
     1     27.2116520     23  2.500                                                                 
     3     -4.0817478     23  2.400                                                                 
  local pseudopotential read in
  partial core-charges read in
  partial kinetic energy density read in
  atomic valenz-charges read in
  non local Contribution for L=           2  read in
    real space projection operators read in
  non local Contribution for L=           2  read in
    real space projection operators read in
  non local Contribution for L=           0  read in
    real space projection operators read in
  non local Contribution for L=           0  read in
    real space projection operators read in
  non local Contribution for L=           1  read in
    real space projection operators read in
  non local Contribution for L=           1  read in
    real space projection operators read in
    PAW grid and wavefunctions read in
 
   number of l-projection  operators is LMAX  =           6
   number of lm-projection operators is LMMAX =          18
 
 POTCAR:    PAW_PBE Zr_sv 04Jan2005               
   VRHFIN =Zr: 4s4p5s4d                                                                             
   LEXCH  = PE                                                                                      
   EATOM  =  1284.2219 eV,   94.3876 Ry                                                             
                                                                                                    
   TITEL  = PAW_PBE Zr_sv 04Jan2005                                                                 
   LULTRA =        F    use ultrasoft PP ?                                                          
   IUNSCR =        1    unscreen: 0-lin 1-nonlin 2-no                                               
   RPACOR =    2.200    partial core radius                                                         
   POMASS =   91.224; ZVAL   =   12.000    mass and valenz                                          
   RCORE  =    2.500    outmost cutoff radius                                                       
   RWIGS  =    3.070; RWIGS  =    1.625    wigner-seitz radius (au A)                               
   ENMAX  =  229.898; ENMIN  =  172.424 eV                                                          
   ICORE  =        3    local potential                                                             
   LCOR   =        T    correct aug charges                                                         
   LPAW   =        T    paw PP                                                                      
   EAUG   =  461.257                                                                                
   DEXC   =    0.000                                                                                
   RMAX   =    2.561    core radius for proj-oper                                                   
   RAUG   =    1.300    factor for augmentation sphere                                              
   RDEP   =    2.597    radius for radial grids                                                     
   RDEPT  =    2.007    core radius for aug-charge                                                  
                                                                                                    
   Atomic configuration                                                                             
   11 entries                                                                                       
     n  l   j            E        occ.                                                              
     1  0  0.50    -17820.0161   2.0000                                                             
     2  0  0.50     -2467.0882   2.0000                                                             
     2  1  1.50     -2199.6095   6.0000                                                             
     3  0  0.50      -402.4863   2.0000                                                             
     3  1  1.50      -315.3675   6.0000                                                             
     3  2  2.50      -172.4472  10.0000                                                             
     4  0  0.50       -52.4146   2.0000                                                             
     5  0  0.50        -3.8421   1.0000                                                             
     4  1  1.50       -30.5054   6.0000                                                             
     4  2  2.50        -2.3341   3.0000                                                             
     4  3  2.50        -1.3606   0.0000                                                             
   Description                                                                                      
     l       E           TYP  RCUT    TYP  RCUT                                                     
     0    -52.4145962     23  2.200                                                                 
     0     -3.8421270     23  2.500                                                                 
     1    -30.5053914     23  2.200                                                                 
     1     20.4087390     23  2.200                                                                 
     2     -2.3340816     23  2.500                                                                 
     2     -0.6120942     23  2.500                                                                 
     3     -4.0817478     23  2.500                                                                 
  local pseudopotential read in
  partial core-charges read in
  partial kinetic energy density read in
  atomic valenz-charges read in
  non local Contribution for L=           0  read in
    real space projection operators read in
  non local Contribution for L=           0  read in
    real space projection operators read in
  non local Contribution for L=           1  read in
    real space projection operators read in
  non local Contribution for L=           1  read in
    real space projection operators read in
  non local Contribution for L=           2  read in
    real space projection operators read in
  non local Contribution for L=           2  read in
    real space projection operators read in
    PAW grid and wavefunctions read in
 
   number of l-projection  operators is LMAX  =           6
   number of lm-projection operators is LMMAX =          18
 
 POTCAR:    PAW_PBE N 08Apr2002                   
   VRHFIN =N: s2p3                                                                                  
   LEXCH  = PE                                                                                      
   EATOM  =   264.5486 eV,   19.4438 Ry                                                             
                                                                                                    
   TITEL  = PAW_PBE N 08Apr2002                                                                     
   LULTRA =        F    use ultrasoft PP ?                                                          
   IUNSCR =        1    unscreen: 0-lin 1-nonlin 2-no                                               
   RPACOR =    1.200    partial core radius                                                         
   POMASS =   14.001; ZVAL   =    5.000    mass and valenz                                          
   RCORE  =    1.500    outmost cutoff radius                                                       
   RWIGS  =    1.400; RWIGS  =    0.741    wigner-seitz radius (au A)                               
   ENMAX  =  400.000; ENMIN  =  300.000 eV                                                          
   ICORE  =        2    local potential                                                             
   LCOR   =        T    correct aug charges                                                         
   LPAW   =        T    paw PP                                                                      
   EAUG   =  627.112                                                                                
   DEXC   =    0.000                                                                                
   RMAX   =    1.529    core radius for proj-oper                                                   
   RAUG   =    1.300    factor for augmentation sphere                                              
   RDEP   =    1.514    radius for radial grids                                                     
   RDEPT  =    1.338    core radius for aug-charge                                                  
                                                                                                    
   Atomic configuration                                                                             
    4 entries                                                                                       
     n  l   j            E        occ.                                                              
     1  0  0.50      -384.7179   2.0000                                                             
     2  0  0.50       -18.5828   2.0000                                                             
     2  1  0.50        -7.0898   3.0000                                                             
     3  2  1.50        -6.8029   0.0000                                                             
   Description                                                                                      
     l       E           TYP  RCUT    TYP  RCUT                                                     
     0    -18.5828119     23  1.200                                                                 
     0    -13.5018863     23  1.200                                                                 
     1     -7.0897853     23  1.500                                                                 
     1      9.5240782     23  1.500                                                                 
     2     -6.8029130      7  1.500                                                                 
  local pseudopotential read in
  partial core-charges read in
  partial kinetic energy density read in
  atomic valenz-charges read in
  non local Contribution for L=           0  read in
    real space projection operators read in
  non local Contribution for L=           0  read in
    real space projection operators read in
  non local Contribution for L=           1  read in
    real space projection operators read in
  non local Contribution for L=           1  read in
    real space projection operators read in
    PAW grid and wavefunctions read in
 
   number of l-projection  operators is LMAX  =           4
   number of lm-projection operators is LMMAX =           8
 
 Optimization of the real space projectors (new method)

 maximal supplied QI-value         = 15.12
 optimisation between [QCUT,QGAM] = [ 11.34, 22.83] = [ 36.00,145.93] Ry 
 Optimized for a Real-space Cutoff    1.43 Angstroem

   l    n(q)    QCUT    max X(q) W(low)/X(q) W(high)/X(q)  e(spline) 
   2      9    11.338    53.897    0.16E-03    0.20E-03    0.28E-06
   2      9    11.338    52.416    0.16E-03    0.20E-03    0.29E-06
   0     10    11.338   122.045    0.31E-04    0.76E-04    0.15E-06
   0     10    11.338    73.629    0.30E-04    0.72E-04    0.15E-06
   1      9    11.338    15.255    0.20E-03    0.19E-04    0.17E-06
   1      9    11.338     9.562    0.16E-03    0.15E-04    0.14E-06
 Optimization of the real space projectors (new method)

 maximal supplied QI-value         = 15.12
 optimisation between [QCUT,QGAM] = [ 11.34, 22.83] = [ 36.00,145.93] Ry 
 Optimized for a Real-space Cutoff    1.47 Angstroem

   l    n(q)    QCUT    max X(q) W(low)/X(q) W(high)/X(q)  e(spline) 
   0     10    11.338    12.107    0.38E-04    0.13E-04    0.27E-07
   0     10    11.338     9.948    0.69E-04    0.30E-04    0.38E-07
   1     10    11.338     3.563    0.26E-04    0.18E-04    0.40E-07
   1     10    11.338     4.524    0.25E-03    0.39E-04    0.44E-06
   2      9    11.338    87.261    0.26E-03    0.91E-05    0.26E-06
   2      9    11.338    70.950    0.25E-03    0.91E-05    0.25E-06
 Optimization of the real space projectors (new method)

 maximal supplied QI-value         = 25.13
 optimisation between [QCUT,QGAM] = [ 11.31, 22.87] = [ 35.82,146.48] Ry 
 Optimized for a Real-space Cutoff    1.27 Angstroem

   l    n(q)    QCUT    max X(q) W(low)/X(q) W(high)/X(q)  e(spline) 
   0      9    11.310    79.467    0.75E-04    0.16E-03    0.36E-06
   0      9    11.310    66.151    0.74E-04    0.16E-03    0.36E-06
   1      8    11.310    17.416    0.35E-03    0.12E-03    0.95E-06
   1      8    11.310    12.382    0.37E-03    0.13E-03    0.98E-06
  PAW_PBE Ag 02Apr2005                  :
 energy of atom  1       EATOM=-1037.2675
 kinetic energy error for atom=    0.0052 (will be added to EATOM!!)
  PAW_PBE Zr_sv 04Jan2005               :
 energy of atom  2       EATOM=-1284.2219
 kinetic energy error for atom=    0.0049 (will be added to EATOM!!)
  PAW_PBE N 08Apr2002                   :
 energy of atom  3       EATOM= -264.5486
 kinetic energy error for atom=    0.0138 (will be added to EATOM!!)
 
 
 POSCAR: Ag-Zr-N
  positions in direct lattice
  velocities in cartesian coordinates
 exchange correlation table for  LEXCH =        8
   RHO(1)=    0.500       N(1)  =     2000
   RHO(2)=  100.500       N(2)  =     4000

 VTST: version 3.2, (02/03/18)

 CHAIN: initializing optimizer
 
 OPT: Using VASP Conjugate-Gradient optimizer
 CHAIN: Read ICHAIN            0
 
 POSCAR: Ag-Zr-N
  positions in direct lattice
  velocities in cartesian coordinates
 


--------------------------------------------------------------------------------------------------------


 ion  position               nearest neighbor table
   1  0.000  0.000  0.238-   2 2.93   8 2.93   7 2.93   6 2.93   4 2.93  12 2.93  16 2.93  10 2.93
                             3 2.93
   2  0.333  0.000  0.238-   1 2.93   8 2.93   9 2.93   3 2.93   4 2.93   5 2.93  10 2.93  17 2.93
                            11 2.93
   3  0.667  0.000  0.238-   9 2.93   2 2.93   5 2.93  11 2.93   7 2.93  18 2.93   1 2.93   6 2.93
                            12 2.93
   4  0.000  0.333  0.238-   5 2.93   6 2.93   2 2.93   1 2.93   7 2.93  13 2.93  15 2.93   9 2.93
                            10 2.93
   5  0.333  0.333  0.238-   4 2.93   3 2.93   7 2.93   2 2.93   8 2.93  14 2.93  13 2.93  11 2.93
                             6 2.93
   6  0.667  0.333  0.238-   4 2.93   9 2.93   1 2.93  15 2.93   8 2.93  12 2.93   3 2.93   5 2.93
                            14 2.93
   7  0.000  0.667  0.238-   8 2.93   1 2.93   5 2.93   3 2.93   4 2.93  16 2.93  18 2.93  13 2.93
                             9 2.93
   8  0.333  0.667  0.238-   7 2.93   1 2.93   2 2.93   9 2.93   5 2.93  16 2.93   6 2.93  17 2.93
                            14 2.93
   9  0.667  0.667  0.238-   3 2.93   2 2.93   8 2.93   6 2.93  17 2.93   4 2.93  15 2.93   7 2.93
                            18 2.93
  10  0.111  0.111  0.346-  20 2.91  19 2.92  26 2.92  12 2.93  16 2.93  15 2.93  17 2.93  13 2.93
                            11 2.93   2 2.93   1 2.93   4 2.93
  11  0.444  0.111  0.346-  21 2.91  20 2.91  14 2.93  17 2.93  18 2.93   3 2.93  12 2.93  13 2.93
                            10 2.93   5 2.93   2 2.93  27 2.93
  12  0.778  0.111  0.346-  21 2.91  25 2.92  19 2.92  10 2.93  16 2.93  18 2.93  15 2.93  11 2.93
                             1 2.93  14 2.93   6 2.93   3 2.93
  13  0.111  0.444  0.346-  20 2.91  23 2.91  15 2.93  14 2.93  18 2.93  10 2.93  11 2.93  16 2.93
                             4 2.93   5 2.93   7 2.93  22 2.93
  14  0.444  0.444  0.346-  23 2.91  21 2.91  13 2.93  11 2.93  16 2.93   5 2.93  12 2.93  17 2.93
                             8 2.93  15 2.93   6 2.93  24 2.93
  15  0.778  0.444  0.346-  19 2.92  13 2.93  10 2.93  12 2.93  17 2.93  18 2.93   4 2.93   6 2.93
                             9 2.93  14 2.93  24 2.93  22 2.93
  16  0.111  0.778  0.346-  23 2.91  26 2.92  25 2.92  18 2.93  12 2.93  10 2.93  14 2.93  17 2.93
                            13 2.93   7 2.93   8 2.93   1 2.93
  17  0.444  0.778  0.346-  26 2.92  11 2.93  10 2.93   9 2.93  18 2.93  15 2.93  16 2.93   2 2.93
                            14 2.93   8 2.93  27 2.93  24 2.93
  18  0.778  0.778  0.346-  25 2.92  16 2.93  12 2.93  13 2.93  11 2.93  17 2.93  15 2.93   7 2.93
                             3 2.93   9 2.93  22 2.93  27 2.93
  19  0.889  0.222  0.453-  10 2.92  12 2.92  15 2.92  26 2.93  25 2.93  20 2.93  21 2.93  24 2.93
                            22 2.93  28 2.93  32 2.97  31 2.97
  20  0.222  0.222  0.453-  13 2.91  11 2.91  10 2.91  36 2.92  21 2.93  23 2.93  27 2.93  22 2.93
                            19 2.93  26 2.93  31 2.97  29 2.97
  21  0.555  0.222  0.453-  11 2.91  14 2.91  12 2.91  36 2.92  20 2.93  23 2.93  27 2.93  24 2.93
                            25 2.93  19 2.93  30 2.97  32 2.97
  22  0.889  0.556  0.454-  24 2.93  27 2.93  23 2.93  20 2.93  18 2.93  15 2.93  13 2.93  25 2.93
                            19 2.93  35 2.94  33 2.95  31 2.95
  23  0.222  0.555  0.453-  14 2.91  13 2.91  16 2.91  36 2.92  21 2.93  20 2.93  22 2.93  24 2.93
                            26 2.93  25 2.93  34 2.97  33 2.97
  24  0.556  0.556  0.454-  27 2.93  22 2.93  23 2.93  21 2.93  15 2.93  17 2.93  14 2.93  19 2.93
                            26 2.93  35 2.94  32 2.95  34 2.95
  25  0.889  0.889  0.453-  16 2.92  12 2.92  18 2.92  26 2.93  19 2.93  23 2.93  21 2.93  22 2.93
                            27 2.93  28 2.93  33 2.97  30 2.97
  26  0.222  0.889  0.453-  16 2.92  10 2.92  17 2.92  25 2.93  19 2.93  23 2.93  20 2.93  27 2.93
                            24 2.93  28 2.93  34 2.97  29 2.97
  27  0.556  0.889  0.454-  24 2.93  22 2.93  20 2.93  21 2.93  17 2.93  18 2.93  11 2.93  26 2.93
                            25 2.93  35 2.94  29 2.95  30 2.95
  28  0.000  0.000  0.561-  29 2.93  34 2.93  33 2.93  32 2.93  31 2.93  30 2.93  26 2.93  25 2.93
                            19 2.93
  29  0.334  0.000  0.563-  30 2.93  36 2.93  35 2.93  31 2.93  28 2.93  34 2.94  27 2.95  26 2.97
                            20 2.97
  30  0.666  0.000  0.563-  29 2.93  36 2.93  35 2.93  32 2.93  28 2.93  33 2.94  27 2.95  25 2.97
                            21 2.97
  31  0.000  0.334  0.563-  33 2.93  36 2.93  35 2.93  29 2.93  28 2.93  32 2.94  22 2.95  19 2.97
                            20 2.97
  32  0.666  0.334  0.563-  34 2.93  36 2.93  35 2.93  30 2.93  28 2.93  31 2.94  24 2.95  19 2.97
                            21 2.97
  33  0.000  0.666  0.563-  31 2.93  36 2.93  35 2.93  34 2.93  28 2.93  30 2.94  22 2.95  25 2.97
                            23 2.97
  34  0.334  0.666  0.563-  32 2.93  36 2.93  35 2.93  33 2.93  28 2.93  29 2.94  24 2.95  26 2.97
                            23 2.97
  35  0.667  0.667  0.563-  30 2.93  29 2.93  32 2.93  34 2.93  31 2.93  33 2.93  24 2.94  27 2.94
                            22 2.94
  36  0.333  0.333  0.560-  37 1.78  21 2.92  20 2.92  23 2.92  31 2.93  33 2.93  30 2.93  29 2.93
                            34 2.93  32 2.93
  37  0.333  0.333  0.641-  36 1.78
 
  LATTYP: Found a hexagonal cell.
 ALAT       =     8.7913665772
 C/A-ratio  =     2.5227160501
  
  Lattice vectors:
  
 A1 = (  -4.3956832886,  -7.6135467898,   0.0000000000)
 A2 = (   8.7913665771,   0.0000000000,   0.0000000000)
 A3 = (   0.0000000000,   0.0000000000,  22.1781215668)


Analysis of symmetry for initial positions (statically):
=====================================================================
 Subroutine PRICEL returns:
 Original cell was already a primitive cell.
 

 Routine SETGRP: Setting up the symmetry group for a 
 hexagonal supercell.


 Subroutine GETGRP returns: Found  6 space group operations
 (whereof  6 operations were pure point group operations)
 out of a pool of 24 trial point group operations.


The static configuration has the point symmetry C_3v.


Analysis of symmetry for dynamics (positions and initial velocities):
=====================================================================
 Subroutine PRICEL returns:
 Original cell was already a primitive cell.
 

 Routine SETGRP: Setting up the symmetry group for a 
 hexagonal supercell.


 Subroutine GETGRP returns: Found  6 space group operations
 (whereof  6 operations were pure point group operations)
 out of a pool of 24 trial point group operations.


The dynamic configuration has the point symmetry C_3v.


Analysis of constrained symmetry for selective dynamics:
=====================================================================
 Subroutine PRICEL returns:
 Original cell was already a primitive cell.
 

 Routine SETGRP: Setting up the symmetry group for a 
 hexagonal supercell.


 Subroutine GETGRP returns: Found  6 space group operations
 (whereof  6 operations were pure point group operations)
 out of a pool of 24 trial point group operations.


The constrained configuration has the point symmetry C_3v.


 Subroutine INISYM returns: Found  6 space group operations
 (whereof  6 operations are pure point group operations),
 and found     1 'primitive' translations


----------------------------------------------------------------------------------------

                                     Primitive cell                                     

  volume of cell :    1484.4589

  direct lattice vectors                    reciprocal lattice vectors
     8.791366577  0.000000000  0.000000000     0.113747958 -0.065672414  0.000000000
     4.395683289  7.613546790  0.000000000     0.000000000  0.131344829  0.000000000
     0.000000000  0.000000000 22.178121567     0.000000000  0.000000000  0.045089481

  length of vectors
     8.791366577  8.791366577 22.178121567     0.131344829  0.131344829  0.045089481

  position of ions in fractional coordinates (direct lattice)
     0.000000000  0.000000000  0.238171124
     0.333333313  0.000000000  0.238171124
     0.666666627  0.000000000  0.238171124
     0.000000000  0.333333343  0.238171124
     0.333333313  0.333333343  0.238171124
     0.666666687  0.333333343  0.238171124
     0.000000000  0.666666687  0.238171124
     0.333333313  0.666666687  0.238171124
     0.666666627  0.666666687  0.238171124
     0.111111104  0.111111112  0.346057051
     0.444444448  0.111111112  0.346057051
     0.777777791  0.111111112  0.346057051
     0.111111097  0.444444448  0.346057051
     0.444444418  0.444444448  0.346057051
     0.777777791  0.444444448  0.346057051
     0.111111104  0.777777791  0.346057051
     0.444444448  0.777777791  0.346057051
     0.777777791  0.777777791  0.346057051
     0.888999251  0.222001514  0.453117813
     0.222276674  0.222276689  0.452809142
     0.555446592  0.222276689  0.452809142
     0.888861266  0.555569397  0.453971523
     0.222276689  0.555446652  0.452809142
     0.555569397  0.555569397  0.453971523
     0.888999251  0.888999251  0.453117813
     0.222001484  0.888999251  0.453117813
     0.555569337  0.888861266  0.453971523
     0.000000000  0.000000000  0.561223855
     0.333557519  0.000155156  0.562875279
     0.666287264  0.000155156  0.562875279
     0.000155156  0.333557549  0.562875279
     0.666287324  0.333557549  0.562875279
     0.000155156  0.666287324  0.562875279
     0.333557519  0.666287324  0.562875279
     0.666666627  0.666666687  0.562514478
     0.333333313  0.333333343  0.560297282
     0.333333313  0.333333343  0.640716398

  ion indices of the primitive-cell ions
   primitive index   ion index
                 1           1
                 2           2
                 3           3
                 4           4
                 5           5
                 6           6
                 7           7
                 8           8
                 9           9
                10          10
                11          11
                12          12
                13          13
                14          14
                15          15
                16          16
                17          17
                18          18
                19          19
                20          20
                21          21
                22          22
                23          23
                24          24
                25          25
                26          26
                27          27
                28          28
                29          29
                30          30
                31          31
                32          32
                33          33
                34          34
                35          35
                36          36
                37          37

----------------------------------------------------------------------------------------

 
 
 KPOINTS: Automatic mesh                          

Automatic generation of k-mesh.
 Grid dimensions read from file:
 generate k-points for:    8    8    1

 Generating k-lattice:

  Cartesian coordinates                     Fractional coordinates (reciprocal lattice)
     0.014218495 -0.008209052  0.000000000     0.125000000  0.000000000  0.000000000
     0.000000000  0.016418104  0.000000000     0.000000000  0.125000000  0.000000000
     0.000000000  0.000000000  0.045089481     0.000000000  0.000000000  1.000000000

  Length of vectors
     0.016418104  0.016418104  0.045089481

  Shift w.r.t. Gamma in fractional coordinates (k-lattice)
     0.000000000  0.000000000  0.000000000

 TETIRR: Found     36 inequivalent tetrahedra from      384
 
 Subroutine IBZKPT returns following result:
 ===========================================
 
 Found     10 irreducible k-points:
 
 Following reciprocal coordinates:
            Coordinates               Weight
  0.000000  0.000000  0.000000      1.000000
  0.125000 -0.000000  0.000000      6.000000
  0.250000 -0.000000  0.000000      6.000000
  0.375000 -0.000000  0.000000      6.000000
  0.500000 -0.000000  0.000000      3.000000
  0.250000  0.125000  0.000000      6.000000
  0.375000  0.125000  0.000000     12.000000
  0.500000  0.125000  0.000000     12.000000
  0.500000  0.250000  0.000000      6.000000
 -0.375000  0.250000  0.000000      6.000000
 
 Following cartesian coordinates:
            Coordinates               Weight
  0.000000  0.000000  0.000000      1.000000
  0.014218 -0.008209  0.000000      6.000000
  0.028437 -0.016418  0.000000      6.000000
  0.042655 -0.024627  0.000000      6.000000
  0.056874 -0.032836  0.000000      3.000000
  0.028437 -0.000000  0.000000      6.000000
  0.042655 -0.008209  0.000000     12.000000
  0.056874 -0.016418  0.000000     12.000000
  0.056874 -0.000000  0.000000      6.000000
 -0.042655  0.057463  0.000000      6.000000
 


--------------------------------------------------------------------------------------------------------




 Dimension of arrays:
   k-points           NKPTS =     10   k-points in BZ     NKDIM =     10   number of bands    NBANDS=    252
   number of dos      NEDOS =    301   number of ions     NIONS =     37
   non local maximal  LDIM  =      6   non local SUM 2l+1 LMDIM =     18
   total plane-waves  NPLWV = 290304
   max r-space proj   IRMAX =   2675   max aug-charges    IRDMAX=   9814
   dimension x,y,z NGX =    48 NGY =   48 NGZ =  126
   dimension x,y,z NGXF=    96 NGYF=   96 NGZF=  252
   support grid    NGXF=    96 NGYF=   96 NGZF=  252
   ions per type =              35   1   1
   NGX,Y,Z   is equivalent  to a cutoff of   9.08,  9.08,  9.44 a.u.
   NGXF,Y,Z  is equivalent  to a cutoff of  18.15, 18.15, 18.89 a.u.

 SYSTEM =  unknown system                          
 POSCAR =  Ag-Zr-N                                 

 Startparameter for this run:
   NWRITE =      2    write-flag & timer
   PREC   = normal    normal or accurate (medium, high low for compatibility)
   ISTART =      0    job   : 0-new  1-cont  2-samecut
   ICHARG =     11    charge: 1-file 2-atom 10-const
   ISPIN  =      1    spin polarized calculation?
   LNONCOLLINEAR =      F non collinear calculations
   LSORBIT =      F    spin-orbit coupling
   INIWAV =      1    electr: 0-lowe 1-rand  2-diag
   LASPH  =      F    aspherical Exc in radial PAW
   METAGGA=      F    non-selfconsistent MetaGGA calc.

 Electronic Relaxation 1
   ENCUT  =  500.0 eV  36.75 Ry    6.06 a.u.  16.03 16.03 40.44*2*pi/ulx,y,z
   ENINI  =  500.0     initial cutoff
   ENAUG  =  627.1 eV  augmentation charge cutoff
   NELM   =    150;   NELMIN=  2; NELMDL= -5     # of ELM steps 
   EDIFF  = 0.1E-04   stopping-criterion for ELM
   LREAL  =      T    real-space projection
   NLSPLINE    = F    spline interpolate recip. space projectors
   LCOMPAT=      F    compatible to vasp.4.4
   GGA_COMPAT  = T    GGA compatible to vasp.4.4-vasp.4.6
   LMAXPAW     = -100 max onsite density
   LMAXMIX     =    2 max onsite mixed and CHGCAR
   VOSKOWN=      0    Vosko Wilk Nusair interpolation
   ROPT   =   -0.00050  -0.00050  -0.00050
 Ionic relaxation
   EDIFFG = -.1E-01   stopping-criterion for IOM
   NSW    =      0    number of steps for IOM
   NBLOCK =      1;   KBLOCK =      1    inner block; outer block 
   IBRION =     -1    ionic relax: 0-MD 1-quasi-New 2-CG
   NFREE  =      1    steps in history (QN), initial steepest desc. (CG)
   ISIF   =      2    stress and relaxation
   IWAVPR =     10    prediction:  0-non 1-charg 2-wave 3-comb
   ISYM   =      2    0-nonsym 1-usesym 2-fastsym
   LCORR  =      T    Harris-Foulkes like correction to forces

   POTIM  = 0.5000    time-step for ionic-motion
   TEIN   =    0.0    initial temperature
   TEBEG  =    0.0;   TEEND  =   0.0 temperature during run
   SMASS  =  -3.00    Nose mass-parameter (am)
   estimated Nose-frequenzy (Omega)   =  0.10E-29 period in steps = 0.13E+47 mass=  -0.177E-26a.u.
   SCALEE = 1.0000    scale energy and forces
   NPACO  =    256;   APACO  = 16.0  distance and # of slots for P.C.
   PSTRESS=    0.0 pullay stress

  Mass of Ions in am
   POMASS = 107.87 91.22 14.00
  Ionic Valenz
   ZVAL   =  11.00 12.00  5.00
  Atomic Wigner-Seitz radii
   RWIGS  =  -1.00 -1.00 -1.00
  virtual crystal weights 
   VCA    =   1.00  1.00  1.00
   NELECT =     402.0000    total number of electrons
   NUPDOWN=      -1.0000    fix difference up-down

 DOS related values:
   EMIN   =  10.00;   EMAX   =-10.00  energy-range for DOS
   EFERMI =   0.00
   ISMEAR =    -5;   SIGMA  =   0.10  broadening in eV -4-tet -1-fermi 0-gaus

 Electronic relaxation 2 (details)
   IALGO  =     68    algorithm
   LDIAG  =      T    sub-space diagonalisation (order eigenvalues)
   LSUBROT=      F    optimize rotation matrix (better conditioning)
   TURBO    =      0    0=normal 1=particle mesh
   IRESTART =      0    0=no restart 2=restart with 2 vectors
   NREBOOT  =      0    no. of reboots
   NMIN     =      0    reboot dimension
   EREF     =   0.00    reference energy to select bands
   IMIX   =      4    mixing-type and parameters
     AMIX     =   0.40;   BMIX     =  1.00
     AMIX_MAG =   1.60;   BMIX_MAG =  1.00
     AMIN     =   0.10
     WC   =   100.;   INIMIX=   1;  MIXPRE=   1;  MAXMIX= -45

 Intra band minimization:
   WEIMIN = 0.0000     energy-eigenvalue tresh-hold
   EBREAK =  0.99E-08  absolut break condition
   DEPER  =   0.30     relativ break condition  

   TIME   =   0.40     timestep for ELM

  volume/ion in A,a.u.               =      40.12       270.75
  Fermi-wavevector in a.u.,A,eV,Ry     =   1.059158  2.001519 15.263232  1.121816
  Thomas-Fermi vector in A             =   2.194493
 
 Write flags
   LWAVE        =      F    write WAVECAR
   LDOWNSAMPLE  =      F    k-point downsampling of WAVECAR
   LCHARG       =      F    write CHGCAR
   LVTOT        =      F    write LOCPOT, total local potential
   LVHAR        =      F    write LOCPOT, Hartree potential only
   LELF         =      F    write electronic localiz. function (ELF)
   LORBIT       =     10    0 simple, 1 ext, 2 COOP (PROOUT), +10 PAW based schemes


 Dipole corrections
   LMONO  =      F    monopole corrections only (constant potential shift)
   LDIPOL =      F    correct potential (dipole corrections)
   IDIPOL =      0    1-x, 2-y, 3-z, 4-all directions 
   EPSILON=  1.0000000 bulk dielectric constant

 Exchange correlation treatment:
   GGA     =    --    GGA type
   LEXCH   =     8    internal setting for exchange type
   VOSKOWN=      0    Vosko Wilk Nusair interpolation
   LHFCALC =     F    Hartree Fock is set to
   LHFONE  =     F    Hartree Fock one center treatment
   AEXX    =    0.0000 exact exchange contribution

 Linear response parameters
   LEPSILON=     F    determine dielectric tensor
   LRPA    =     F    only Hartree local field effects (RPA)
   LNABLA  =     F    use nabla operator in PAW spheres
   LVEL    =     F    velocity operator in full k-point grid
   LINTERFAST=   F  fast interpolation
   KINTER  =     0    interpolate to denser k-point grid
   CSHIFT  =0.1000    complex shift for real part using Kramers Kronig
   OMEGAMAX=  -1.0    maximum frequency
   DEG_THRESHOLD= 0.2000000E-02 threshold for treating states as degnerate
   RTIME   =   -0.100 relaxation time in fs
  (WPLASMAI=    0.000 imaginary part of plasma frequency in eV, 0.658/RTIME)
   DFIELD  = 0.0000000 0.0000000 0.0000000 field for delta impulse in time
 
 Orbital magnetization related:
   ORBITALMAG=     F  switch on orbital magnetization
   LCHIMAG   =     F  perturbation theory with respect to B field
   DQ        =  0.001000  dq finite difference perturbation B field
   LLRAUG    =     F  two centre corrections for induced B field



--------------------------------------------------------------------------------------------------------


 Static calculation
 charge density and potential remain constant during run
 non-spin polarized calculation
 RMM-DIIS sequential band-by-band and
  variant of blocked Davidson during initial phase
 perform sub-space diagonalisation
    before iterative eigenvector-optimisation
 no mixing
 using additional bands           51
 real space projection scheme for non local part
 use partial core corrections
 calculate Harris-corrections to forces 
   (improved forces if not selfconsistent)
 use gradient corrections 
 WARNING: stress and forces are not correct
  (second derivative of E(xc) not defined)
 use of overlap-Matrix (Vanderbilt PP)
 Fermi weights with tetrahedron method with Bloechl corrections


--------------------------------------------------------------------------------------------------------


  energy-cutoff  :      500.00
  volume of cell :     1484.46
      direct lattice vectors                 reciprocal lattice vectors
     8.791366577  0.000000000  0.000000000     0.113747958 -0.065672414  0.000000000
     4.395683289  7.613546790  0.000000000     0.000000000  0.131344829  0.000000000
     0.000000000  0.000000000 22.178121567     0.000000000  0.000000000  0.045089481

  length of vectors
     8.791366577  8.791366577 22.178121567     0.131344829  0.131344829  0.045089481


 
 k-points in units of 2pi/SCALE and weight: Automatic mesh                          
   0.00000000  0.00000000  0.00000000       0.016
   0.01421849 -0.00820905  0.00000000       0.094
   0.02843699 -0.01641810  0.00000000       0.094
   0.04265548 -0.02462716  0.00000000       0.094
   0.05687398 -0.03283621  0.00000000       0.047
   0.02843699 -0.00000000  0.00000000       0.094
   0.04265548 -0.00820905  0.00000000       0.188
   0.05687398 -0.01641810  0.00000000       0.188
   0.05687398 -0.00000000  0.00000000       0.094
  -0.04265548  0.05746336  0.00000000       0.094
 
 k-points in reciprocal lattice and weights: Automatic mesh                          
   0.00000000  0.00000000  0.00000000       0.016
   0.12500000 -0.00000000  0.00000000       0.094
   0.25000000 -0.00000000  0.00000000       0.094
   0.37500000 -0.00000000  0.00000000       0.094
   0.50000000 -0.00000000  0.00000000       0.047
   0.25000000  0.12500000  0.00000000       0.094
   0.37500000  0.12500000  0.00000000       0.188
   0.50000000  0.12500000  0.00000000       0.188
   0.50000000  0.25000000  0.00000000       0.094
  -0.37500000  0.25000000  0.00000000       0.094
 
 position of ions in fractional coordinates (direct lattice) 
   0.00000000  0.00000000  0.23817112
   0.33333331  0.00000000  0.23817112
   0.66666663  0.00000000  0.23817112
   0.00000000  0.33333334  0.23817112
   0.33333331  0.33333334  0.23817112
   0.66666669  0.33333334  0.23817112
   0.00000000  0.66666669  0.23817112
   0.33333331  0.66666669  0.23817112
   0.66666663  0.66666669  0.23817112
   0.11111110  0.11111111  0.34605705
   0.44444445  0.11111111  0.34605705
   0.77777779  0.11111111  0.34605705
   0.11111110  0.44444445  0.34605705
   0.44444442  0.44444445  0.34605705
   0.77777779  0.44444445  0.34605705
   0.11111110  0.77777779  0.34605705
   0.44444445  0.77777779  0.34605705
   0.77777779  0.77777779  0.34605705
   0.88899925  0.22200151  0.45311781
   0.22227667  0.22227669  0.45280914
   0.55544659  0.22227669  0.45280914
   0.88886127  0.55556940  0.45397152
   0.22227669  0.55544665  0.45280914
   0.55556940  0.55556940  0.45397152
   0.88899925  0.88899925  0.45311781
   0.22200148  0.88899925  0.45311781
   0.55556934  0.88886127  0.45397152
   0.00000000  0.00000000  0.56122385
   0.33355752  0.00015516  0.56287528
   0.66628726  0.00015516  0.56287528
   0.00015516  0.33355755  0.56287528
   0.66628732  0.33355755  0.56287528
   0.00015516  0.66628732  0.56287528
   0.33355752  0.66628732  0.56287528
   0.66666663  0.66666669  0.56251448
   0.33333331  0.33333334  0.56029728
   0.33333331  0.33333334  0.64071640
 
 position of ions in cartesian coordinates  (Angst):
   0.00000000  0.00000000  5.28218814
   2.93045535  0.00000000  5.28218814
   5.86091070  0.00000000  5.28218814
   1.46522781  2.53784900  5.28218814
   4.39568315  2.53784900  5.28218814
   7.32613904  2.53784900  5.28218814
   2.93045562  5.07569801  5.28218814
   5.86091096  5.07569801  5.28218814
   8.79136632  5.07569801  5.28218814
   1.46522770  0.84594965  7.67489535
   4.39568332  0.84594965  7.67489535
   7.32613893  0.84594965  7.67489535
   2.93045542  3.38379860  7.67489535
   5.86091083  3.38379860  7.67489535
   8.79136671  3.38379860  7.67489535
   4.39568328  5.92164760  7.67489535
   7.32613890  5.92164760  7.67489535
  10.25659451  5.92164760  7.67489535
   8.79136665  1.69021891 10.04930193
   2.93117365  1.69231397 10.04245621
   5.86019253  1.69231397 10.04245621
  10.25641234  4.22985360 10.06823562
   4.39568342  4.22891908 10.04245621
   7.32632134  4.22985360 10.06823562
  11.72327746  6.76843739 10.04930193
   5.85945558  6.76843739 10.04930193
   8.79136631  6.76738684 10.06823562
   0.00000000  0.00000000 12.44689088
   2.93310845  0.00118129 12.48351635
   5.85825760  0.00118129 12.48351635
   1.46757738  2.53955601 12.48351635
   7.32378946  2.53955601 12.48351635
   2.93015209  5.07280972 12.48351635
   5.86121449  5.07280972 12.48351635
   8.79136632  5.07569801 12.47551447
   4.39568315  2.53784900 12.42634123
   4.39568315  2.53784900 14.20988617
 


--------------------------------------------------------------------------------------------------------


 k-point   1 :   0.0000 0.0000 0.0000  plane waves:   37683
 k-point   2 :   0.1250-0.0000 0.0000  plane waves:   37658
 k-point   3 :   0.2500-0.0000 0.0000  plane waves:   37682
 k-point   4 :   0.3750-0.0000 0.0000  plane waves:   37686
 k-point   5 :   0.5000-0.0000 0.0000  plane waves:   37668
 k-point   6 :   0.2500 0.1250 0.0000  plane waves:   37666
 k-point   7 :   0.3750 0.1250 0.0000  plane waves:   37708
 k-point   8 :   0.5000 0.1250 0.0000  plane waves:   37726
 k-point   9 :   0.5000 0.2500 0.0000  plane waves:   37706
 k-point  10 :  -0.3750 0.2500 0.0000  plane waves:   37686

 maximum and minimum number of plane-waves per node :     37726    37658

 maximum number of plane-waves:     37726
 maximum index in each direction: 
   IXMAX=   16   IYMAX=   16   IZMAX=   40
   IXMIN=  -16   IYMIN=  -16   IZMIN=  -40


 serial   3D FFT for wavefunctions
 parallel 3D FFT for charge:
    minimum data exchange during FFTs selected (reduces bandwidth)


 total amount of memory used by VASP MPI-rank0   123130. kBytes
=======================================================================

   base      :      30000. kBytes
   nonlr-proj:      15027. kBytes
   fftplans  :       4330. kBytes
   grid      :      17879. kBytes
   one-center:        575. kBytes
   wavefun   :      55319. kBytes
 
     INWAV:  cpu time    0.0000: real time    0.0000
 initial charge density was supplied:
 number of electron     402.0000013 magnetization 
 keeping initial charge density in first step


--------------------------------------------------------------------------------------------------------


 Maximum index for non-local projection operator         2554
 Maximum index for augmentation-charges          707 (set IRDMAX)


--------------------------------------------------------------------------------------------------------


 First call to EWALD:  gamma=   0.155
 Maximum number of real-space cells 4x 4x 2
 Maximum number of reciprocal cells 2x 2x 5

    FEWALD:  cpu time    0.0013: real time    0.0014


--------------------------------------- Iteration      1(   1)  ---------------------------------------


    POTLOK:  cpu time    0.0418: real time    0.0422
    SETDIJ:  cpu time    0.0047: real time    0.0048
     EDDAV:  cpu time    7.1604: real time    7.1620
 BZINTS: Fermi energy:    9.639610;  402.000000 electrons
         Band energy: 0.105172E+04;  BLOECHL correction:   -0.010308
       DOS:  cpu time    0.0104: real time    0.0105
    --------------------------------------------
      LOOP:  cpu time    7.2174: real time    7.2195

 eigenvalue-minimisations  :  5040
 total energy-change (2. order) : 0.2538261E+04  (-0.1880313E+05)
 number of electron     402.0000013 magnetization 
 augmentation part      402.0000013 magnetization 

 Free energy of the ion-electron system (eV)
  ---------------------------------------------------
  alpha Z        PSCENC =       768.72437268
  Ewald energy   TEWEN  =     98034.12592067
  -Hartree energ DENC   =   -136403.55613537
  -exchange      EXHF   =         0.00000000
  -V(xc)+E(xc)   XCENC  =      -319.97988306
  PAW double counting   =     40991.02480085   -39436.73306987
  entropy T*S    EENTRO =         0.00000000
  eigenvalues    EBANDS =      1051.72204621
  atomic energy  EATOM  =     37852.93271809
  Solvation  Ediel_sol  =         0.00000000
  ---------------------------------------------------
  free energy    TOTEN  =      2538.26077020 eV

  energy without entropy =     2538.26077020  energy(sigma->0) =     2538.26077020


--------------------------------------------------------------------------------------------------------




--------------------------------------- Iteration      1(   2)  ---------------------------------------


     EDDAV:  cpu time    7.5209: real time    7.5240
 BZINTS: Fermi energy:    1.414959;  402.000000 electrons
         Band energy:-0.149563E+04;  BLOECHL correction:   -0.039633
       DOS:  cpu time    0.0101: real time    0.0101
    --------------------------------------------
      LOOP:  cpu time    7.5310: real time    7.5341

 eigenvalue-minimisations  :  5320
 total energy-change (2. order) :-0.2547353E+04  (-0.2446587E+04)
 number of electron     402.0000013 magnetization 
 augmentation part      402.0000013 magnetization 

 Free energy of the ion-electron system (eV)
  ---------------------------------------------------
  alpha Z        PSCENC =       768.72437268
  Ewald energy   TEWEN  =     98034.12592067
  -Hartree energ DENC   =   -136403.55613537
  -exchange      EXHF   =         0.00000000
  -V(xc)+E(xc)   XCENC  =      -319.97988306
  PAW double counting   =     40991.02480085   -39436.73306987
  entropy T*S    EENTRO =         0.00000000
  eigenvalues    EBANDS =     -1495.63082015
  atomic energy  EATOM  =     37852.93271809
  Solvation  Ediel_sol  =         0.00000000
  ---------------------------------------------------
  free energy    TOTEN  =        -9.09209617 eV

  energy without entropy =       -9.09209617  energy(sigma->0) =       -9.09209617


--------------------------------------------------------------------------------------------------------




--------------------------------------- Iteration      1(   3)  ---------------------------------------


     EDDAV:  cpu time    8.8291: real time    8.8294
 BZINTS: Fermi energy:    0.770684;  402.000000 electrons
         Band energy:-0.158789E+04;  BLOECHL correction:   -0.069074
       DOS:  cpu time    0.0098: real time    0.0098
    --------------------------------------------
      LOOP:  cpu time    8.8389: real time    8.8393

 eigenvalue-minimisations  :  6468
 total energy-change (2. order) :-0.9225471E+02  (-0.9024548E+02)
 number of electron     402.0000013 magnetization 
 augmentation part      402.0000013 magnetization 

 Free energy of the ion-electron system (eV)
  ---------------------------------------------------
  alpha Z        PSCENC =       768.72437268
  Ewald energy   TEWEN  =     98034.12592067
  -Hartree energ DENC   =   -136403.55613537
  -exchange      EXHF   =         0.00000000
  -V(xc)+E(xc)   XCENC  =      -319.97988306
  PAW double counting   =     40991.02480085   -39436.73306987
  entropy T*S    EENTRO =         0.00000000
  eigenvalues    EBANDS =     -1587.88552916
  atomic energy  EATOM  =     37852.93271809
  Solvation  Ediel_sol  =         0.00000000
  ---------------------------------------------------
  free energy    TOTEN  =      -101.34680518 eV

  energy without entropy =     -101.34680518  energy(sigma->0) =     -101.34680518


--------------------------------------------------------------------------------------------------------




--------------------------------------- Iteration      1(   4)  ---------------------------------------


     EDDAV:  cpu time   10.0895: real time   10.0896
 BZINTS: Fermi energy:    0.743526;  402.000000 electrons
         Band energy:-0.159078E+04;  BLOECHL correction:   -0.084850
       DOS:  cpu time    0.0097: real time    0.0097
    --------------------------------------------
      LOOP:  cpu time   10.0991: real time   10.0993

 eigenvalue-minimisations  :  7644
 total energy-change (2. order) :-0.2893994E+01  (-0.2850532E+01)
 number of electron     402.0000013 magnetization 
 augmentation part      402.0000013 magnetization 

 Free energy of the ion-electron system (eV)
  ---------------------------------------------------
  alpha Z        PSCENC =       768.72437268
  Ewald energy   TEWEN  =     98034.12592067
  -Hartree energ DENC   =   -136403.55613537
  -exchange      EXHF   =         0.00000000
  -V(xc)+E(xc)   XCENC  =      -319.97988306
  PAW double counting   =     40991.02480085   -39436.73306987
  entropy T*S    EENTRO =         0.00000000
  eigenvalues    EBANDS =     -1590.77952304
  atomic energy  EATOM  =     37852.93271809
  Solvation  Ediel_sol  =         0.00000000
  ---------------------------------------------------
  free energy    TOTEN  =      -104.24079906 eV

  energy without entropy =     -104.24079906  energy(sigma->0) =     -104.24079906


--------------------------------------------------------------------------------------------------------




--------------------------------------- Iteration      1(   5)  ---------------------------------------


     EDDAV:  cpu time    7.8338: real time    7.8340
 BZINTS: Fermi energy:    0.742567;  402.000000 electrons
         Band energy:-0.159083E+04;  BLOECHL correction:   -0.084975
       DOS:  cpu time    0.0101: real time    0.0101
    --------------------------------------------
      LOOP:  cpu time    7.8440: real time    7.8441

 eigenvalue-minimisations  :  5600
 total energy-change (2. order) :-0.4847024E-01  (-0.4853601E-01)
 number of electron     402.0000013 magnetization 
 augmentation part      402.0000013 magnetization 

 Free energy of the ion-electron system (eV)
  ---------------------------------------------------
  alpha Z        PSCENC =       768.72437268
  Ewald energy   TEWEN  =     98034.12592067
  -Hartree energ DENC   =   -136403.55613537
  -exchange      EXHF   =         0.00000000
  -V(xc)+E(xc)   XCENC  =      -319.97988306
  PAW double counting   =     40991.02480085   -39436.73306987
  entropy T*S    EENTRO =         0.00000000
  eigenvalues    EBANDS =     -1590.82799328
  atomic energy  EATOM  =     37852.93271809
  Solvation  Ediel_sol  =         0.00000000
  ---------------------------------------------------
  free energy    TOTEN  =      -104.28926930 eV

  energy without entropy =     -104.28926930  energy(sigma->0) =     -104.28926930


--------------------------------------------------------------------------------------------------------




--------------------------------------- Iteration      1(   6)  ---------------------------------------


    EDDIAG:  cpu time    1.4379: real time    1.4382
  RMM-DIIS:  cpu time    5.1166: real time    5.1167
    ORTHCH:  cpu time    0.2616: real time    0.2616
 BZINTS: Fermi energy:    0.742550;  402.000000 electrons
         Band energy:-0.159083E+04;  BLOECHL correction:   -0.084983
       DOS:  cpu time    0.0101: real time    0.0101
    --------------------------------------------
      LOOP:  cpu time    6.8263: real time    6.8266

 eigenvalue-minimisations  :  6489
 total energy-change (2. order) :-0.1519878E-02  (-0.1517882E-02)
 number of electron     402.0000013 magnetization 
 augmentation part      402.0000013 magnetization 

 Free energy of the ion-electron system (eV)
  ---------------------------------------------------
  alpha Z        PSCENC =       768.72437268
  Ewald energy   TEWEN  =     98034.12592067
  -Hartree energ DENC   =   -136403.55613537
  -exchange      EXHF   =         0.00000000
  -V(xc)+E(xc)   XCENC  =      -319.97988306
  PAW double counting   =     40991.02480085   -39436.73306987
  entropy T*S    EENTRO =         0.00000000
  eigenvalues    EBANDS =     -1590.82951316
  atomic energy  EATOM  =     37852.93271809
  Solvation  Ediel_sol  =         0.00000000
  ---------------------------------------------------
  free energy    TOTEN  =      -104.29078918 eV

  energy without entropy =     -104.29078918  energy(sigma->0) =     -104.29078918


--------------------------------------------------------------------------------------------------------




--------------------------------------- Iteration      1(   7)  ---------------------------------------


    EDDIAG:  cpu time    1.4298: real time    1.4300
  RMM-DIIS:  cpu time    7.7318: real time    7.7318
    ORTHCH:  cpu time    0.2616: real time    0.2616
 BZINTS: Fermi energy:    0.742542;  402.000000 electrons
         Band energy:-0.159083E+04;  BLOECHL correction:   -0.084988
       DOS:  cpu time    0.0094: real time    0.0094
    --------------------------------------------
      LOOP:  cpu time    9.4326: real time    9.4329

 eigenvalue-minimisations  :  9690
 total energy-change (2. order) :-0.1249562E-02  (-0.1226689E-02)
 number of electron     402.0000013 magnetization 
 augmentation part      402.0000013 magnetization 

 Free energy of the ion-electron system (eV)
  ---------------------------------------------------
  alpha Z        PSCENC =       768.72437268
  Ewald energy   TEWEN  =     98034.12592067
  -Hartree energ DENC   =   -136403.55613537
  -exchange      EXHF   =         0.00000000
  -V(xc)+E(xc)   XCENC  =      -319.97988306
  PAW double counting   =     40991.02480085   -39436.73306987
  entropy T*S    EENTRO =         0.00000000
  eigenvalues    EBANDS =     -1590.83076272
  atomic energy  EATOM  =     37852.93271809
  Solvation  Ediel_sol  =         0.00000000
  ---------------------------------------------------
  free energy    TOTEN  =      -104.29203874 eV

  energy without entropy =     -104.29203874  energy(sigma->0) =     -104.29203874


--------------------------------------------------------------------------------------------------------




--------------------------------------- Iteration      1(   8)  ---------------------------------------


    EDDIAG:  cpu time    1.4368: real time    1.4369
  RMM-DIIS:  cpu time    5.7086: real time    5.7087
    ORTHCH:  cpu time    0.2622: real time    0.2622
 BZINTS: Fermi energy:    0.742540;  402.000000 electrons
         Band energy:-0.159083E+04;  BLOECHL correction:   -0.084990
       DOS:  cpu time    0.0103: real time    0.0103
    --------------------------------------------
      LOOP:  cpu time    7.4179: real time    7.4180

 eigenvalue-minimisations  :  6849
 total energy-change (2. order) :-0.1660872E-03  (-0.1624154E-03)
 number of electron     402.0000013 magnetization 
 augmentation part      402.0000013 magnetization 

 Free energy of the ion-electron system (eV)
  ---------------------------------------------------
  alpha Z        PSCENC =       768.72437268
  Ewald energy   TEWEN  =     98034.12592067
  -Hartree energ DENC   =   -136403.55613537
  -exchange      EXHF   =         0.00000000
  -V(xc)+E(xc)   XCENC  =      -319.97988306
  PAW double counting   =     40991.02480085   -39436.73306987
  entropy T*S    EENTRO =         0.00000000
  eigenvalues    EBANDS =     -1590.83092881
  atomic energy  EATOM  =     37852.93271809
  Solvation  Ediel_sol  =         0.00000000
  ---------------------------------------------------
  free energy    TOTEN  =      -104.29220483 eV

  energy without entropy =     -104.29220483  energy(sigma->0) =     -104.29220483


--------------------------------------------------------------------------------------------------------




--------------------------------------- Iteration      1(   9)  ---------------------------------------


    EDDIAG:  cpu time    1.4412: real time    1.4413
  RMM-DIIS:  cpu time    4.9905: real time    4.9905
    ORTHCH:  cpu time    0.2618: real time    0.2618
 BZINTS: Fermi energy:    0.742539;  402.000000 electrons
         Band energy:-0.159083E+04;  BLOECHL correction:   -0.084990
       DOS:  cpu time    0.0103: real time    0.0103
    --------------------------------------------
      LOOP:  cpu time    6.7037: real time    6.7038

 eigenvalue-minimisations  :  5748
 total energy-change (2. order) :-0.4666633E-04  (-0.4721386E-04)
 number of electron     402.0000013 magnetization 
 augmentation part      402.0000013 magnetization 

 Free energy of the ion-electron system (eV)
  ---------------------------------------------------
  alpha Z        PSCENC =       768.72437268
  Ewald energy   TEWEN  =     98034.12592067
  -Hartree energ DENC   =   -136403.55613537
  -exchange      EXHF   =         0.00000000
  -V(xc)+E(xc)   XCENC  =      -319.97988306
  PAW double counting   =     40991.02480085   -39436.73306987
  entropy T*S    EENTRO =         0.00000000
  eigenvalues    EBANDS =     -1590.83097548
  atomic energy  EATOM  =     37852.93271809
  Solvation  Ediel_sol  =         0.00000000
  ---------------------------------------------------
  free energy    TOTEN  =      -104.29225149 eV

  energy without entropy =     -104.29225149  energy(sigma->0) =     -104.29225149


--------------------------------------------------------------------------------------------------------




--------------------------------------- Iteration      1(  10)  ---------------------------------------


    EDDIAG:  cpu time    1.4349: real time    1.4350
  RMM-DIIS:  cpu time    4.7704: real time    4.7705
    ORTHCH:  cpu time    0.2619: real time    0.2619
 BZINTS: Fermi energy:    0.742539;  402.000000 electrons
         Band energy:-0.159083E+04;  BLOECHL correction:   -0.084991
       DOS:  cpu time    0.0103: real time    0.0103
    --------------------------------------------
      LOOP:  cpu time    6.4775: real time    6.4777

 eigenvalue-minimisations  :  5534
 total energy-change (2. order) :-0.1666849E-04  (-0.1737290E-04)
 number of electron     402.0000013 magnetization 
 augmentation part      402.0000013 magnetization 

 Free energy of the ion-electron system (eV)
  ---------------------------------------------------
  alpha Z        PSCENC =       768.72437268
  Ewald energy   TEWEN  =     98034.12592067
  -Hartree energ DENC   =   -136403.55613537
  -exchange      EXHF   =         0.00000000
  -V(xc)+E(xc)   XCENC  =      -319.97988306
  PAW double counting   =     40991.02480085   -39436.73306987
  entropy T*S    EENTRO =         0.00000000
  eigenvalues    EBANDS =     -1590.83099215
  atomic energy  EATOM  =     37852.93271809
  Solvation  Ediel_sol  =         0.00000000
  ---------------------------------------------------
  free energy    TOTEN  =      -104.29226816 eV

  energy without entropy =     -104.29226816  energy(sigma->0) =     -104.29226816


--------------------------------------------------------------------------------------------------------




--------------------------------------- Iteration      1(  11)  ---------------------------------------


    EDDIAG:  cpu time    1.4381: real time    1.4383
  RMM-DIIS:  cpu time    4.0960: real time    4.0960
    ORTHCH:  cpu time    0.2616: real time    0.2616
 BZINTS: Fermi energy:    0.742539;  402.000000 electrons
         Band energy:-0.159083E+04;  BLOECHL correction:   -0.084991
       DOS:  cpu time    0.0101: real time    0.0101
    --------------------------------------------
      LOOP:  cpu time    5.8058: real time    5.8061

 eigenvalue-minimisations  :  4523
 total energy-change (2. order) :-0.7021881E-05  (-0.7649734E-05)
 number of electron     402.0000013 magnetization 
 augmentation part      402.0000013 magnetization 

 Free energy of the ion-electron system (eV)
  ---------------------------------------------------
  alpha Z        PSCENC =       768.72437268
  Ewald energy   TEWEN  =     98034.12592067
  -Hartree energ DENC   =   -136403.55613537
  -exchange      EXHF   =         0.00000000
  -V(xc)+E(xc)   XCENC  =      -319.97988306
  PAW double counting   =     40991.02480085   -39436.73306987
  entropy T*S    EENTRO =         0.00000000
  eigenvalues    EBANDS =     -1590.83099917
  atomic energy  EATOM  =     37852.93271809
  Solvation  Ediel_sol  =         0.00000000
  ---------------------------------------------------
  free energy    TOTEN  =      -104.29227518 eV

  energy without entropy =     -104.29227518  energy(sigma->0) =     -104.29227518


--------------------------------------------------------------------------------------------------------




 average (electrostatic) potential at core
  the test charge radii are     1.1249  1.0638  0.7089
  (the norm of the test charge is              1.0000)
       1 -78.1665       2 -78.1607       3 -78.1607       4 -78.1608       5 -78.1646
       6 -78.1605       7 -78.1607       8 -78.1605       9 -78.1667      10 -78.4042
      11 -78.4015      12 -78.4041      13 -78.4016      14 -78.4014      15 -78.3929
      16 -78.4041      17 -78.3928      18 -78.3928      19 -78.3925      20 -78.5833
      21 -78.5834      22 -78.3870      23 -78.5835      24 -78.3872      25 -78.3923
      26 -78.3924      27 -78.3869      28 -78.2034      29 -78.3162      30 -78.3162
      31 -78.3163      32 -78.3162      33 -78.3162      34 -78.3162      35 -78.1822
      36 -82.0921      37 -66.7725
 
 
 
 E-fermi :   0.7425     XC(G=0):  -5.9720     alpha+bet : -5.7204

 Fermi energy:         0.7425389429

 k-point     1 :       0.0000    0.0000    0.0000
  band No.  band energies     occupation 
      1     -47.3391      2.00000
      2     -25.7149      2.00000
      3     -25.5965      2.00000
      4     -25.5965      2.00000
      5     -10.3294      2.00000
      6      -6.3962      2.00000
      7      -5.5381      2.00000
      8      -5.2724      2.00000
      9      -5.1530      2.00000
     10      -5.1496      2.00000
     11      -5.1496      2.00000
     12      -5.1338      2.00000
     13      -5.1338      2.00000
     14      -5.1328      2.00000
     15      -5.1171      2.00000
     16      -5.1106      2.00000
     17      -5.0970      2.00000
     18      -5.0970      2.00000
     19      -5.0878      2.00000
     20      -5.0878      2.00000
     21      -5.0766      2.00000
     22      -4.9410      2.00000
     23      -4.9406      2.00000
     24      -4.9406      2.00000
     25      -4.9158      2.00000
     26      -4.9133      2.00000
     27      -4.9133      2.00000
     28      -4.8074      2.00000
     29      -4.7632      2.00000
     30      -4.7632      2.00000
     31      -4.7390      2.00000
     32      -4.7249      2.00000
     33      -4.7249      2.00000
     34      -4.7142      2.00000
     35      -4.7018      2.00000
     36      -4.6862      2.00000
     37      -4.6862      2.00000
     38      -4.6705      2.00000
     39      -4.6705      2.00000
     40      -4.6216      2.00000
     41      -4.6105      2.00000
     42      -4.6105      2.00000
     43      -4.5893      2.00000
     44      -4.5536      2.00000
     45      -4.5536      2.00000
     46      -4.3632      2.00000
     47      -4.3619      2.00000
     48      -4.3619      2.00000
     49      -4.3450      2.00000
     50      -4.3450      2.00000
     51      -4.3378      2.00000
     52      -4.3354      2.00000
     53      -4.3354      2.00000
     54      -4.3169      2.00000
     55      -4.3168      2.00000
     56      -4.1827      2.00000
     57      -4.1805      2.00000
     58      -4.1574      2.00000
     59      -4.1549      2.00000
     60      -4.0163      2.00000
     61      -3.9974      2.00000
     62      -3.9974      2.00000
     63      -3.9797      2.00000
     64      -3.9751      2.00000
     65      -3.9751      2.00000
     66      -3.9557      2.00000
     67      -3.9401      2.00000
     68      -3.9401      2.00000
     69      -3.8909      2.00000
     70      -3.8909      2.00000
     71      -3.8097      2.00000
     72      -3.8097      2.00000
     73      -3.8067      2.00000
     74      -3.8067      2.00000
     75      -3.8061      2.00000
     76      -3.8017      2.00000
     77      -3.8017      2.00000
     78      -3.7958      2.00000
     79      -3.7763      2.00000
     80      -3.7763      2.00000
     81      -3.7528      2.00000
     82      -3.7484      2.00000
     83      -3.7186      2.00000
     84      -3.7186      2.00000
     85      -3.7152      2.00000
     86      -3.7152      2.00000
     87      -3.6889      2.00000
     88      -3.6889      2.00000
     89      -3.6821      2.00000
     90      -3.6114      2.00000
     91      -3.6114      2.00000
     92      -3.5886      2.00000
     93      -3.5886      2.00000
     94      -3.5856      2.00000
     95      -3.5697      2.00000
     96      -3.5697      2.00000
     97      -3.5167      2.00000
     98      -3.5167      2.00000
     99      -3.4792      2.00000
    100      -3.4653      2.00000
    101      -3.4653      2.00000
    102      -3.4445      2.00000
    103      -3.4445      2.00000
    104      -3.3047      2.00000
    105      -3.3047      2.00000
    106      -3.2745      2.00000
    107      -3.2462      2.00000
    108      -3.2462      2.00000
    109      -3.2317      2.00000
    110      -3.2279      2.00000
    111      -3.2279      2.00000
    112      -3.1992      2.00000
    113      -3.1882      2.00000
    114      -3.1882      2.00000
    115      -3.1308      2.00000
    116      -3.1187      2.00000
    117      -3.1060      2.00000
    118      -3.1060      2.00000
    119      -3.0460      2.00000
    120      -3.0282      2.00000
    121      -3.0282      2.00000
    122      -2.9855      2.00000
    123      -2.9855      2.00000
    124      -2.9434      2.00000
    125      -2.9434      2.00000
    126      -2.9074      2.00000
    127      -2.9074      2.00000
    128      -2.9027      2.00000
    129      -2.8862      2.00000
    130      -2.8862      2.00000
    131      -2.8851      2.00000
    132      -2.8638      2.00000
    133      -2.8614      2.00000
    134      -2.8614      2.00000
    135      -2.8530      2.00000
    136      -2.8530      2.00000
    137      -2.8421      2.00000
    138      -2.7590      2.00000
    139      -2.7590      2.00000
    140      -2.7056      2.00000
    141      -2.7046      2.00000
    142      -2.7046      2.00000
    143      -2.6794      2.00000
    144      -2.6786      2.00000
    145      -2.6786      2.00000
    146      -2.6709      2.00000
    147      -2.6464      2.00000
    148      -2.6439      2.00000
    149      -2.6439      2.00000
    150      -2.6196      2.00000
    151      -2.6196      2.00000
    152      -2.6166      2.00000
    153      -2.6017      2.00000
    154      -2.5914      2.00000
    155      -2.5672      2.00000
    156      -2.5607      2.00000
    157      -2.5607      2.00000
    158      -2.5540      2.00000
    159      -2.5539      2.00000
    160      -2.5236      2.00000
    161      -2.5101      2.00000
    162      -2.5101      2.00000
    163      -2.5099      2.00000
    164      -2.4577      2.00000
    165      -2.4577      2.00000
    166      -2.4491      2.00000
    167      -2.4407      2.00000
    168      -2.4341      2.00000
    169      -2.4341      2.00000
    170      -2.4313      2.00000
    171      -2.4300      2.00000
    172      -2.4276      2.00000
    173      -2.4276      2.00000
    174      -2.3792      2.00000
    175      -2.3792      2.00000
    176      -2.3534      2.00000
    177      -2.3534      2.00000
    178      -2.2881      2.00000
    179      -2.2881      2.00000
    180      -2.2861      2.00000
    181      -2.2639      2.00000
    182      -2.2639      2.00000
    183      -2.2605      2.00000
    184      -2.1696      2.00000
    185      -2.1682      2.00000
    186      -2.1681      2.00000
    187      -2.1558      2.00000
    188      -2.1558      2.00000
    189      -2.1118      2.00000
    190      -1.4206      2.00000
    191      -1.4206      2.00000
    192      -1.3859      2.00000
    193      -1.3859      2.00000
    194      -1.3840      2.00000
    195      -1.1557      2.00000
    196      -0.6968      2.00000
    197      -0.6968      2.00000
    198      -0.3592      2.00000
    199       0.0169      2.00000
    200       0.2931      2.00000
    201       0.2931      2.00000
    202       0.3433      2.00000
    203       0.5547      2.89638
    204       0.5547      2.67541
    205       0.5798      0.96973
    206       1.2521      0.00000
    207       2.0465      0.00000
    208       2.0465      0.00000
    209       2.5821      0.00000
    210       2.5958      0.00000
    211       2.5959      0.00000
    212       2.6049      0.00000
    213       2.7565      0.00000
    214       2.7566      0.00000
    215       3.8726      0.00000
    216       3.8726      0.00000
    217       3.9202      0.00000
    218       4.0755      0.00000
    219       4.2434      0.00000
    220       4.2434      0.00000
    221       4.6181      0.00000
    222       4.6181      0.00000
    223       4.9114      0.00000
    224       4.9758      0.00000
    225       4.9758      0.00000
    226       4.9956      0.00000
    227       5.1624      0.00000
    228       5.1670      0.00000
    229       5.1670      0.00000
    230       5.1691      0.00000
    231       5.3421      0.00000
    232       5.3421      0.00000
    233       5.5277      0.00000
    234       5.5730      0.00000
    235       5.9859      0.00000
    236       5.9859      0.00000
    237       6.6275      0.00000
    238       6.6275      0.00000
    239       6.6602      0.00000
    240       6.6966      0.00000
    241       6.7437      0.00000
    242       6.7795      0.00000
    243       6.8418      0.00000
    244       6.8420      0.00000
    245       7.0789      0.00000
    246       7.0793      0.00000
    247       7.0826      0.00000
    248       7.1580      0.00000
    249       7.2021      0.00000
    250       7.2026      0.00000
    251       7.3414      0.00000
    252       7.4025      0.00000

 k-point     2 :       0.1250   -0.0000    0.0000
  band No.  band energies     occupation 
      1     -47.3391      2.00000
      2     -25.7149      2.00000
      3     -25.5965      2.00000
      4     -25.5965      2.00000
      5     -10.3294      2.00000
      6      -6.3503      2.00000
      7      -5.4978      2.00000
      8      -5.2398      2.00000
      9      -5.2064      2.00000
     10      -5.1654      2.00000
     11      -5.1448      2.00000
     12      -5.1440      2.00000
     13      -5.1288      2.00000
     14      -5.1166      2.00000
     15      -5.1161      2.00000
     16      -5.0949      2.00000
     17      -5.0905      2.00000
     18      -5.0764      2.00000
     19      -5.0339      2.00000
     20      -5.0262      2.00000
     21      -5.0257      2.00000
     22      -5.0086      2.00000
     23      -4.9756      2.00000
     24      -4.9752      2.00000
     25      -4.8658      2.00000
     26      -4.8637      2.00000
     27      -4.8340      2.00000
     28      -4.8139      2.00000
     29      -4.7957      2.00000
     30      -4.7953      2.00000
     31      -4.7846      2.00000
     32      -4.7636      2.00000
     33      -4.7072      2.00000
     34      -4.7027      2.00000
     35      -4.6913      2.00000
     36      -4.6804      2.00000
     37      -4.6802      2.00000
     38      -4.6459      2.00000
     39      -4.6134      2.00000
     40      -4.6071      2.00000
     41      -4.5942      2.00000
     42      -4.5911      2.00000
     43      -4.5241      2.00000
     44      -4.5041      2.00000
     45      -4.4974      2.00000
     46      -4.4213      2.00000
     47      -4.4161      2.00000
     48      -4.4111      2.00000
     49      -4.3846      2.00000
     50      -4.3774      2.00000
     51      -4.3725      2.00000
     52      -4.3604      2.00000
     53      -4.3097      2.00000
     54      -4.2990      2.00000
     55      -4.2663      2.00000
     56      -4.1730      2.00000
     57      -4.1721      2.00000
     58      -4.1547      2.00000
     59      -4.1409      2.00000
     60      -4.0270      2.00000
     61      -4.0208      2.00000
     62      -4.0148      2.00000
     63      -3.9994      2.00000
     64      -3.9781      2.00000
     65      -3.9661      2.00000
     66      -3.9589      2.00000
     67      -3.9505      2.00000
     68      -3.9296      2.00000
     69      -3.9233      2.00000
     70      -3.8767      2.00000
     71      -3.8708      2.00000
     72      -3.8453      2.00000
     73      -3.8404      2.00000
     74      -3.8362      2.00000
     75      -3.8263      2.00000
     76      -3.7900      2.00000
     77      -3.7863      2.00000
     78      -3.7817      2.00000
     79      -3.7759      2.00000
     80      -3.7576      2.00000
     81      -3.7559      2.00000
     82      -3.7389      2.00000
     83      -3.7327      2.00000
[...]
  0.000   0.000   0.000   0.000   0.000   0.000   0.000   0.000   0.000   0.000   0.000   0.000   0.000   0.000   0.000   0.000
  0.000   0.000   0.000   0.000   0.000   0.000   0.000   0.000   0.000   0.000   0.000   0.000   0.000   0.000   0.000   0.000
  0.000   0.000   0.000   0.000   0.000   0.000   0.000   0.000   0.000   0.000   0.000   0.000   0.000   0.000   0.000   0.000
  0.000   0.000   0.000   0.000   0.000   0.000   0.000   0.000   0.000   0.000   0.000   0.000   0.000   0.000   0.000   0.000
  0.000   0.000   0.000   0.000   0.000   0.000   0.000   0.000   0.000   0.000   0.000   0.000   0.000   0.000   0.000   0.000
  0.000   0.000   0.000   0.000   0.000   0.000   0.000   0.000   0.000   0.000   1.000   0.000   0.000   0.000   0.000   0.000
  0.000   0.000   0.000   0.000   0.000   0.000   0.000   0.000   0.000   0.000   0.000   0.000   0.000   0.000   0.000   0.000
  0.000   0.000   0.000   0.000   0.000   0.000   0.000   0.000   0.000   0.000   0.000   0.000   0.000   0.000   0.000   0.000
  0.000   0.000   0.000   0.000   0.000   0.000   0.000   0.000   0.000   0.000   0.000   0.000   0.000   0.000   0.000   0.000
  0.000   0.000   0.000   0.000   0.000   0.000   0.000   0.000   0.000   0.000   0.000   0.000   0.000   0.000   0.000   0.000
  0.000   0.000   0.000   0.000   0.000   0.000   0.000   0.000   0.000   0.000   0.000   0.000   0.000   0.000   0.000   0.000
  0.000   0.000   0.000   0.000   0.000   0.000   0.000   0.000   0.000   0.000   0.000   0.000   0.000   0.000   0.000   0.000
  0.000   0.000   0.000   0.000   0.000   0.000   0.000   0.000   0.000   0.000   0.000   0.000   0.000   0.000   0.000   0.000


------------------------ aborting loop because EDIFF is reached ----------------------------------------





 total charge

# of ion       s       p       d       tot
------------------------------------------
    1        0.414   0.204   9.177   9.795
    2        0.417   0.203   9.177   9.796
    3        0.417   0.203   9.177   9.796
    4        0.417   0.203   9.177   9.796
    5        0.417   0.202   9.177   9.796
    6        0.417   0.203   9.177   9.796
    7        0.417   0.203   9.177   9.796
    8        0.417   0.203   9.177   9.796
    9        0.414   0.203   9.177   9.794
   10        0.405   0.271   9.164   9.841
   11        0.407   0.268   9.166   9.841
   12        0.405   0.271   9.164   9.841
   13        0.407   0.268   9.166   9.841
   14        0.407   0.268   9.166   9.841
   15        0.402   0.270   9.163   9.836
   16        0.405   0.271   9.164   9.841
   17        0.402   0.270   9.163   9.836
   18        0.402   0.270   9.163   9.836
   19        0.402   0.266   9.168   9.835
   20        0.422   0.287   9.153   9.862
   21        0.422   0.287   9.153   9.862
   22        0.395   0.271   9.164   9.830
   23        0.422   0.287   9.153   9.862
   24        0.395   0.271   9.164   9.830
   25        0.402   0.266   9.168   9.835
   26        0.402   0.266   9.168   9.835
   27        0.395   0.271   9.164   9.830
   28        0.414   0.205   9.174   9.793
   29        0.438   0.207   9.166   9.812
   30        0.438   0.207   9.166   9.812
   31        0.438   0.207   9.166   9.812
   32        0.438   0.207   9.166   9.812
   33        0.438   0.207   9.166   9.812
   34        0.438   0.207   9.166   9.812
   35        0.414   0.204   9.174   9.792
   36        2.207   5.976   2.015  10.198
   37        1.338   2.235   0.000   3.573
--------------------------------------------------
tot         18.047  16.594 322.884 357.525
 
    CHARGE:  cpu time    0.3364: real time    0.3365
    FORLOC:  cpu time    0.0101: real time    0.0101
    FORNL :  cpu time    1.4823: real time    1.4825
    STRESS:  cpu time    4.4294: real time    4.4296
    FORCOR:  cpu time    0.0981: real time    0.0982
    FORHAR:  cpu time    0.0165: real time    0.0165
    OFIELD:  cpu time    0.0002: real time    0.0002

  FORCE on cell =-STRESS in cart. coord.  units (eV):
  Direction    XX          YY          ZZ          XY          YZ          ZX
  --------------------------------------------------------------------------------------
  Alpha Z   768.72437   768.72437   768.72437
  Ewald  121101.36885121101.36895************     0.00003     0.00000     0.00004
  Hartree131443.40376131443.40379************     0.00001     0.00000     0.00001
  E(xc)   -2101.89772 -2101.89772 -2106.65882     0.00000     0.00000     0.00000
  Local  ************************263967.51610     0.00044    -0.00006    -0.00016
  n-local  -340.37097  -323.34661  -352.82556    10.64569    -0.55692     0.56281
  augment  3220.03913  3220.03936  3238.98569    -0.00021    -0.00003    -0.00002
  Kinetic  5080.45470  5081.51694  5136.49882     3.43594     0.92032    -0.31653
  Fock        0.00000     0.00000     0.00000     0.00000     0.00000     0.00000
  -------------------------------------------------------------------------------------
  Total      -4.57313    -4.57313    -0.39213    -0.00000     0.00000     0.00000
  in kB      -4.93579    -4.93579    -0.42323    -0.00000     0.00000     0.00000
  external pressure =       -3.43 kB  Pullay stress =        0.00 kB


 VOLUME and BASIS-vectors are now :
 -----------------------------------------------------------------------------
  energy-cutoff  :      500.00
  volume of cell :     1484.46
      direct lattice vectors                 reciprocal lattice vectors
     8.791366577  0.000000000  0.000000000     0.113747958 -0.065672414  0.000000000
     4.395683289  7.613546790  0.000000000     0.000000000  0.131344829  0.000000000
     0.000000000  0.000000000 22.178121567     0.000000000  0.000000000  0.045089481

  length of vectors
     8.791366577  8.791366577 22.178121567     0.131344829  0.131344829  0.045089481


 FORCES acting on ions
    electron-ion (+dipol)            ewald-force                    non-local-force                 convergence-correction
 -----------------------------------------------------------------------------------------------
   0.461E-04 -.281E-04 0.252E+04   -.953E-04 0.593E-04 -.252E+04   -.194E-17 -.422E-17 -.186E+01   -.913E-04 -.161E-03 -.630E-01
   -.921E-01 0.607E+00 0.252E+04   0.191E-01 -.581E+00 -.252E+04   0.310E-01 0.387E-01 -.163E+01   0.356E-01 -.665E-01 0.138E-01
   0.922E-01 0.607E+00 0.252E+04   -.190E-01 -.581E+00 -.252E+04   -.310E-01 0.387E-01 -.163E+01   -.362E-01 -.647E-01 0.145E-01
   0.480E+00 -.383E+00 0.252E+04   -.494E+00 0.307E+00 -.252E+04   0.490E-01 0.756E-02 -.163E+01   -.396E-01 0.643E-01 0.137E-01
   -.622E-05 -.191E-04 0.252E+04   0.981E-04 -.201E-05 -.252E+04   -.991E-18 0.359E-18 -.159E+01   0.616E-02 0.374E-02 0.478E-01
   -.480E+00 -.383E+00 0.252E+04   0.494E+00 0.307E+00 -.252E+04   -.490E-01 0.756E-02 -.163E+01   0.383E-01 0.652E-01 0.144E-01
   0.572E+00 -.224E+00 0.252E+04   -.513E+00 0.274E+00 -.252E+04   0.180E-01 -.462E-01 -.163E+01   -.737E-01 0.154E-02 0.144E-01
   -.572E+00 -.224E+00 0.252E+04   0.513E+00 0.274E+00 -.252E+04   -.180E-01 -.462E-01 -.163E+01   0.752E-01 0.603E-03 0.144E-01
   0.364E-04 -.129E-04 0.252E+04   0.792E-04 -.643E-04 -.252E+04   -.137E-17 0.190E-17 -.181E+01   -.660E-02 -.336E-02 -.417E-02
   0.169E+01 0.976E+00 0.877E+03   -.152E+01 -.875E+00 -.876E+03   -.148E+00 -.852E-01 -.569E+00   -.362E-01 -.212E-01 0.170E+00
   -.286E-04 0.542E+01 0.879E+03   0.410E-04 -.551E+01 -.879E+03   0.439E-12 0.668E-01 -.587E+00   0.619E-02 -.673E-02 0.178E+00
   -.169E+01 0.976E+00 0.877E+03   0.152E+01 -.875E+00 -.876E+03   0.148E+00 -.852E-01 -.569E+00   0.351E-01 -.207E-01 0.169E+00
   0.469E+01 -.271E+01 0.879E+03   -.477E+01 0.275E+01 -.879E+03   0.579E-01 -.334E-01 -.587E+00   -.264E-02 0.868E-02 0.178E+00
   -.469E+01 -.271E+01 0.879E+03   0.477E+01 0.275E+01 -.879E+03   -.579E-01 -.334E-01 -.587E+00   0.127E-01 0.754E-02 0.176E+00
   0.156E-04 -.310E+01 0.872E+03   -.109E-03 0.302E+01 -.872E+03   0.244E-12 0.371E-01 -.599E+00   -.122E-02 0.552E-01 0.156E+00
   -.803E-05 -.195E+01 0.877E+03   0.208E-04 0.175E+01 -.876E+03   0.112E-11 0.170E+00 -.569E+00   -.387E-03 0.407E-01 0.168E+00
   -.269E+01 0.155E+01 0.872E+03   0.261E+01 -.151E+01 -.872E+03   0.321E-01 -.186E-01 -.599E+00   0.472E-01 -.283E-01 0.157E+00
   0.269E+01 0.155E+01 0.872E+03   -.261E+01 -.151E+01 -.872E+03   -.321E-01 -.186E-01 -.599E+00   -.469E-01 -.269E-01 0.158E+00
   0.398E-04 -.221E+01 -.794E+03   -.130E-03 0.202E+01 0.793E+03   0.101E-11 0.154E+00 0.104E+01   0.928E-03 0.373E-01 0.823E-01
   0.197E+02 0.114E+02 -.765E+03   -.196E+02 -.113E+02 0.765E+03   -.361E+00 -.208E+00 0.298E-02   0.107E-01 0.545E-02 0.851E-01
   -.197E+02 0.114E+02 -.765E+03   0.196E+02 -.113E+02 0.765E+03   0.361E+00 -.208E+00 0.298E-02   -.220E-01 0.430E-02 0.849E-01
   0.949E+01 -.548E+01 -.797E+03   -.962E+01 0.555E+01 0.797E+03   0.160E+00 -.926E-01 0.580E+00   -.211E-02 0.852E-02 0.487E-01
   -.550E-04 -.228E+02 -.765E+03   0.458E-04 0.226E+02 0.765E+03   0.273E-11 0.416E+00 0.298E-02   -.676E-02 -.211E-01 0.849E-01
   -.949E+01 -.548E+01 -.797E+03   0.962E+01 0.555E+01 0.797E+03   -.160E+00 -.926E-01 0.580E+00   0.142E-01 0.904E-02 0.489E-01
   0.192E+01 0.111E+01 -.794E+03   -.175E+01 -.101E+01 0.793E+03   -.134E+00 -.772E-01 0.104E+01   -.344E-01 -.193E-01 0.819E-01
   -.192E+01 0.111E+01 -.794E+03   0.175E+01 -.101E+01 0.793E+03   0.134E+00 -.772E-01 0.104E+01   0.438E-01 -.176E-01 0.823E-01
   0.208E-04 0.110E+02 -.797E+03   0.109E-03 -.111E+02 0.797E+03   0.122E-11 0.185E+00 0.580E+00   0.449E-02 -.589E-02 0.487E-01
   0.558E-04 -.353E-04 -.245E+04   -.119E-03 0.786E-04 0.245E+04   -.207E-17 0.129E-17 0.164E+01   0.536E-04 0.983E-04 0.785E-01
   0.310E+02 0.468E+02 -.245E+04   -.307E+02 -.463E+02 0.245E+04   -.412E+00 -.583E+00 0.213E+01   -.111E-03 -.519E-01 0.245E-01
   -.310E+02 0.468E+02 -.245E+04   0.307E+02 -.463E+02 0.245E+04   0.412E+00 -.583E+00 0.213E+01   -.845E-03 -.506E-01 0.247E-01
   0.560E+02 0.345E+01 -.245E+04   -.555E+02 -.343E+01 0.245E+04   -.711E+00 -.651E-01 0.213E+01   -.445E-01 0.259E-01 0.252E-01
   -.560E+02 0.345E+01 -.245E+04   0.555E+02 -.343E+01 0.245E+04   0.711E+00 -.651E-01 0.213E+01   0.439E-01 0.266E-01 0.263E-01
   0.250E+02 -.502E+02 -.245E+04   -.248E+02 0.497E+02 0.245E+04   -.299E+00 0.648E+00 0.213E+01   -.438E-01 0.252E-01 0.249E-01
   -.250E+02 -.502E+02 -.245E+04   0.248E+02 0.497E+02 0.245E+04   0.299E+00 0.648E+00 0.213E+01   0.450E-01 0.249E-01 0.262E-01
   0.194E-04 -.954E-05 -.247E+04   0.106E-03 -.673E-04 0.246E+04   -.715E-17 -.636E-17 0.171E+01   -.630E-02 -.293E-02 0.118E+00
   0.243E-03 -.147E-03 -.241E+04   0.112E-03 0.106E-04 0.242E+04   0.507E-18 0.691E-18 -.338E+01   0.521E-02 0.306E-02 -.598E-01
   0.118E-03 -.642E-04 -.144E+04   0.199E-04 0.248E-06 0.146E+04   -.248E-18 -.408E-18 -.130E+02   0.177E-02 0.107E-02 -.463E-01
 -----------------------------------------------------------------------------------------------
   0.749E-03 -.865E-03 0.133E+02   -.506E-13 0.763E-13 -.159E-11   0.160E-15 0.216E-15 -.157E+02   0.222E-01 0.110E-01 0.247E+01
 
 
 POSITION                                       TOTAL-FORCE (eV/Angst)
 -----------------------------------------------------------------------------------
      0.00000      0.00000      5.28219         0.000000      0.000000      0.018006
      2.93046      0.00000      5.28219        -0.005743     -0.001375      0.024144
      5.86091      0.00000      5.28219         0.005743     -0.001375      0.024144
      1.46523      2.53785      5.28219        -0.004062     -0.004286      0.024144
      4.39568      2.53785      5.28219         0.000000      0.000000     -0.012488
      7.32614      2.53785      5.28219         0.004062     -0.004286      0.024144
      2.93046      5.07570      5.28219         0.001681      0.005661      0.024144
      5.86091      5.07570      5.28219        -0.001681      0.005661      0.024144
      8.79137      5.07570      5.28219         0.000000      0.000000      0.028988
      1.46523      0.84595      7.67490        -0.007659     -0.004422     -0.041857
      4.39568      0.84595      7.67490        -0.000000     -0.030842     -0.043024
      7.32614      0.84595      7.67490         0.007659     -0.004422     -0.041857
      2.93046      3.38380      7.67490        -0.026710      0.015421     -0.043024
      5.86091      3.38380      7.67490         0.026710      0.015421     -0.043024
      8.79137      3.38380      7.67490         0.000000      0.009928      0.035621
      4.39568      5.92165      7.67490         0.000000      0.008844     -0.041857
      7.32614      5.92165      7.67490         0.008598     -0.004964      0.035621
     10.25659      5.92165      7.67490        -0.008598     -0.004964      0.035621
      8.79137      1.69022     10.04930         0.000000      0.003752      0.077189
      2.93117      1.69231     10.04246        -0.243223     -0.140425     -0.187874
      5.86019      1.69231     10.04246         0.243223     -0.140425     -0.187874
     10.25641      4.22985     10.06824         0.029539     -0.017054      0.050092
      4.39568      4.22892     10.04246         0.000000      0.280849     -0.187874
      7.32632      4.22985     10.06824        -0.029539     -0.017054      0.050092
     11.72328      6.76844     10.04930        -0.003249     -0.001876      0.077189
      5.85946      6.76844     10.04930         0.003249     -0.001876      0.077189
      8.79137      6.76739     10.06824         0.000000      0.034109      0.050092
      0.00000      0.00000     12.44689         0.000000      0.000000     -0.053961
      2.93311      0.00118     12.48352        -0.123291     -0.183329     -0.036064
      5.85826      0.00118     12.48352         0.123291     -0.183329     -0.036064
      1.46758      2.53956     12.48352        -0.220413     -0.015109     -0.036064
      7.32379      2.53956     12.48352         0.220413     -0.015109     -0.036064
      2.93015      5.07281     12.48352        -0.097122      0.198438     -0.036064
      5.86121      5.07281     12.48352         0.097122      0.198438     -0.036064
      8.79137      5.07570     12.47551         0.000000      0.000000     -0.083664
      4.39568      2.53785     12.42634         0.000000      0.000000      0.516929
      4.39568      2.53785     14.20989         0.000000      0.000000     -0.012735
 -----------------------------------------------------------------------------------
    total drift:                                0.022938      0.010174      0.059337


--------------------------------------------------------------------------------------------------------



  FREE ENERGIE OF THE ION-ELECTRON SYSTEM (eV)
  ---------------------------------------------------
  free  energy   TOTEN  =      -104.29227518 eV

  energy  without entropy=     -104.29227518  energy(sigma->0) =     -104.29227518
 


--------------------------------------------------------------------------------------------------------


    POTLOK:  cpu time    0.0441: real time    0.0441


--------------------------------------------------------------------------------------------------------


 stress matrix after NEB project (eV)
     -4.57313     -0.00000      0.00000
     -0.00000     -4.57313      0.00000
     -0.00000      0.00000     -0.39213
  FORCES: max atom, RMS     0.012735    0.002094
  FORCE total and by dimension    0.012735    0.012735
  Stress total and by dimension    6.479265    4.573134
     LOOP+:  cpu time   90.6810: real time   90.6929
 -----------------------------------------------------------------------------
|                                                                             |
|           W    W    AA    RRRRR   N    N  II  N    N   GGGG   !!!           |
|           W    W   A  A   R    R  NN   N  II  NN   N  G    G  !!!           |
|           W    W  A    A  R    R  N N  N  II  N N  N  G       !!!           |
|           W WW W  AAAAAA  RRRRR   N  N N  II  N  N N  G  GGG   !            |
|           WW  WW  A    A  R   R   N   NN  II  N   NN  G    G                |
|           W    W  A    A  R    R  N    N  II  N    N   GGGG   !!!           |
|                                                                             |
|     Tetrahedron method does not include variations of the Fermi             |
|     occupations, so forces and stress will be inaccurate. We suggest        |
|     using a different smearing scheme ISMEAR = 1 or 2 for metals in         |
|     relaxations.                                                            |
|                                                                             |
 -----------------------------------------------------------------------------

    4ORBIT:  cpu time    0.0000: real time    0.0000



 total charge

# of ion       s       p       d       tot
------------------------------------------
    1        0.414   0.204   9.177   9.795
    2        0.417   0.203   9.177   9.796
    3        0.417   0.203   9.177   9.796
    4        0.417   0.203   9.177   9.796
    5        0.417   0.202   9.177   9.796
    6        0.417   0.203   9.177   9.796
    7        0.417   0.203   9.177   9.796
    8        0.417   0.203   9.177   9.796
    9        0.414   0.203   9.177   9.794
   10        0.405   0.271   9.164   9.841
   11        0.407   0.268   9.166   9.841
   12        0.405   0.271   9.164   9.841
   13        0.407   0.268   9.166   9.841
   14        0.407   0.268   9.166   9.841
   15        0.402   0.270   9.163   9.836
   16        0.405   0.271   9.164   9.841
   17        0.402   0.270   9.163   9.836
   18        0.402   0.270   9.163   9.836
   19        0.402   0.266   9.168   9.835
   20        0.422   0.287   9.153   9.862
   21        0.422   0.287   9.153   9.862
   22        0.395   0.271   9.164   9.830
   23        0.422   0.287   9.153   9.862
   24        0.395   0.271   9.164   9.830
   25        0.402   0.266   9.168   9.835
   26        0.402   0.266   9.168   9.835
   27        0.395   0.271   9.164   9.830
   28        0.414   0.205   9.174   9.793
   29        0.438   0.207   9.166   9.812
   30        0.438   0.207   9.166   9.812
   31        0.438   0.207   9.166   9.812
   32        0.438   0.207   9.166   9.812
   33        0.438   0.207   9.166   9.812
   34        0.438   0.207   9.166   9.812
   35        0.414   0.204   9.174   9.792
   36        2.207   5.976   2.015  10.198
   37        1.338   2.235   0.000   3.573
--------------------------------------------------
tot         18.047  16.594 322.884 357.525
 
 BZINTS: Fermi energy:    0.742539;  402.000000 electrons
         Band energy:-0.159083E+04;  BLOECHL correction:   -0.084991

 total amount of memory used by VASP MPI-rank0   123130. kBytes
=======================================================================

   base      :      30000. kBytes
   nonlr-proj:      15027. kBytes
   fftplans  :       4330. kBytes
   grid      :      17879. kBytes
   one-center:        575. kBytes
   wavefun   :      55319. kBytes
 
  
  
 General timing and accounting informations for this job:
 ========================================================
  
                  Total CPU time used (sec):       97.997
                            User time (sec):       94.733
                          System time (sec):        3.264
                         Elapsed time (sec):       98.401
  
                   Maximum memory used (kb):      381156.
                   Average memory used (kb):          N/A
  
                          Minor page faults:        78533
                          Major page faults:            0
                 Voluntary context switches:         5134
