PROCAR new format
# of k-points:   10         # of bands:  252         # of ions:   37

 k-point     1 :    0.00000000 0.00000000 0.00000000     weight = 0.01562500

band     1 # energy  -47.33911407 # occ.  2.00000000
 
ion      s      p      d    tot
    1  0.000  0.000  0.000  0.000
    2  0.000  0.000  0.000  0.000
    3  0.000  0.000  0.000  0.000
    4  0.000  0.000  0.000  0.000
    5  0.000  0.000  0.000  0.000
    6  0.000  0.000  0.000  0.000
    7  0.000  0.000  0.000  0.000
    8  0.000  0.000  0.000  0.000
    9  0.000  0.000  0.000  0.000
   10  0.000  0.000  0.000  0.000
   11  0.000  0.000  0.000  0.000
   12  0.000  0.000  0.000  0.000
   13  0.000  0.000  0.000  0.000
   14  0.000  0.000  0.000  0.000
   15  0.000  0.000  0.000  0.000
   16  0.000  0.000  0.000  0.000
   17  0.000  0.000  0.000  0.000
   18  0.000  0.000  0.000  0.000
   19  0.000  0.000  0.000  0.000
   20  0.000  0.000  0.000  0.000
   21  0.000  0.000  0.000  0.000
   22  0.000  0.000  0.000  0.000
   23  0.000  0.000  0.000  0.000
   24  0.000  0.000  0.000  0.000
   25  0.000  0.000  0.000  0.000
   26  0.000  0.000  0.000  0.000
   27  0.000  0.000  0.000  0.000
   28  0.000  0.000  0.000  0.000
   29  0.000  0.000  0.000  0.000
   30  0.000  0.000  0.000  0.000
   31  0.000  0.000  0.000  0.000
   32  0.000  0.000  0.000  0.000
   33  0.000  0.000  0.000  0.000
   34  0.000  0.000  0.000  0.000
   35  0.000  0.000  0.000  0.000
   36  0.992  0.000  0.000  0.992
   37  0.001  0.002  0.000  0.003
tot    0.993  0.002  0.000  0.995
 
band     2 # energy  -25.71490139 # occ.  2.00000000
 
ion      s      p      d    tot
    1  0.000  0.000  0.000  0.000
    2  0.000  0.000  0.000  0.000
    3  0.000  0.000  0.000  0.000
    4  0.000  0.000  0.000  0.000
    5  0.000  0.000  0.000  0.000
    6  0.000  0.000  0.000  0.000
    7  0.000  0.000  0.000  0.000
    8  0.000  0.000  0.000  0.000
    9  0.000  0.000  0.000  0.000
   10  0.000  0.000  0.000  0.000
   11  0.000  0.000  0.000  0.000
   12  0.000  0.000  0.000  0.000
   13  0.000  0.000  0.000  0.000
   14  0.000  0.000  0.000  0.000
   15  0.000  0.000  0.000  0.000
   16  0.000  0.000  0.000  0.000
   17  0.000  0.000  0.000  0.000
   18  0.000  0.000  0.000  0.000
   19  0.000  0.000  0.000  0.000
   20  0.000  0.000  0.000  0.000
   21  0.000  0.000  0.000  0.000
   22  0.000  0.000  0.000  0.000
   23  0.000  0.000  0.000  0.000
   24  0.000  0.000  0.000  0.000
   25  0.000  0.000  0.000  0.000
   26  0.000  0.000  0.000  0.000
   27  0.000  0.000  0.000  0.000
   28  0.000  0.000  0.000  0.000
   29  0.000  0.000  0.000  0.000
   30  0.000  0.000  0.000  0.000
   31  0.000  0.000  0.000  0.000
   32  0.000  0.000  0.000  0.000
   33  0.000  0.000  0.000  0.000
   34  0.000  0.000  0.000  0.000
   35  0.000  0.000  0.000  0.000
   36  0.000  0.932  0.002  0.935
   37  0.027  0.017  0.000  0.043
tot    0.027  0.950  0.002  0.980
 
band     3 # energy  -25.59650814 # occ.  2.00000000
 
ion      s      p      d    tot
    1  0.000  0.000  0.000  0.000
    2  0.000  0.000  0.000  0.000
    3  0.000  0.000  0.000  0.000
    4  0.000  0.000  0.000  0.000
    5  0.000  0.000  0.000  0.000
    6  0.000  0.000  0.000  0.000
    7  0.000  0.000  0.000  0.000
    8  0.000  0.000  0.000  0.000
    9  0.000  0.000  0.000  0.000
   10  0.000  0.000  0.000  0.000
   11  0.000  0.000  0.000  0.000
   12  0.000  0.000  0.000  0.000
   13  0.000  0.000  0.000  0.000
   14  0.000  0.000  0.000  0.000
   15  0.000  0.000  0.000  0.000
   16  0.000  0.000  0.000  0.000
   17  0.000  0.000  0.000  0.000
   18  0.000  0.000  0.000  0.000
   19  0.000  0.000  0.000  0.000
   20  0.000  0.000  0.000  0.000
   21  0.000  0.000  0.000  0.000
   22  0.000  0.000  0.000  0.000
   23  0.000  0.000  0.000  0.000
   24  0.000  0.000  0.000  0.000
   25  0.000  0.000  0.000  0.000
   26  0.000  0.000  0.000  0.000
   27  0.000  0.000  0.000  0.000
   28  0.000  0.000  0.000  0.000
   29  0.000  0.000  0.000  0.000
   30  0.000  0.000  0.000  0.000
   31  0.000  0.000  0.000  0.000
   32  0.000  0.000  0.000  0.000
   33  0.000  0.000  0.000  0.000
   34  0.000  0.000  0.000  0.000
   35  0.000  0.000  0.000  0.000
   36  0.000  0.969  0.000  0.969
   37  0.000  0.001  0.000  0.001
tot    0.001  0.971  0.001  0.972
 
band     4 # energy  -25.59650021 # occ.  2.00000000
 
ion      s      p      d    tot
    1  0.000  0.000  0.000  0.000
    2  0.000  0.000  0.000  0.000
    3  0.000  0.000  0.000  0.000
    4  0.000  0.000  0.000  0.000
    5  0.000  0.000  0.000  0.000
    6  0.000  0.000  0.000  0.000
    7  0.000  0.000  0.000  0.000
    8  0.000  0.000  0.000  0.000
    9  0.000  0.000  0.000  0.000
   10  0.000  0.000  0.000  0.000
   11  0.000  0.000  0.000  0.000
   12  0.000  0.000  0.000  0.000
   13  0.000  0.000  0.000  0.000
   14  0.000  0.000  0.000  0.000
   15  0.000  0.000  0.000  0.000
   16  0.000  0.000  0.000  0.000
   17  0.000  0.000  0.000  0.000
   18  0.000  0.000  0.000  0.000
   19  0.000  0.000  0.000  0.000
   20  0.000  0.000  0.000  0.000
   21  0.000  0.000  0.000  0.000
   22  0.000  0.000  0.000  0.000
   23  0.000  0.000  0.000  0.000
   24  0.000  0.000  0.000  0.000
   25  0.000  0.000  0.000  0.000
   26  0.000  0.000  0.000  0.000
   27  0.000  0.000  0.000  0.000
   28  0.000  0.000  0.000  0.000
   29  0.000  0.000  0.000  0.000
   30  0.000  0.000  0.000  0.001
   31  0.000  0.000  0.000  0.000
   32  0.000  0.000  0.000  0.000
   33  0.000  0.000  0.000  0.001
   34  0.000  0.000  0.000  0.000
   35  0.000  0.000  0.000  0.000
   36  0.000  0.969  0.000  0.969
   37  0.000  0.001  0.000  0.001
tot    0.001  0.971  0.001  0.972
 
band     5 # energy  -10.32942499 # occ.  2.00000000
 
ion      s      p      d    tot
    1  0.000  0.000  0.000  0.000
    2  0.000  0.000  0.000  0.000
    3  0.000  0.000  0.000  0.000
    4  0.000  0.000  0.000  0.000
    5  0.000  0.000  0.000  0.000
    6  0.000  0.000  0.000  0.000
    7  0.000  0.000  0.000  0.000
    8  0.000  0.000  0.000  0.000
    9  0.000  0.000  0.000  0.000
   10  0.000  0.000  0.000  0.000
   11  0.000  0.000  0.000  0.000
   12  0.000  0.000  0.000  0.000
   13  0.000  0.000  0.000  0.000
   14  0.000  0.000  0.000  0.000
   15  0.000  0.000  0.000  0.000
   16  0.000  0.000  0.000  0.000
   17  0.000  0.000  0.000  0.000
   18  0.000  0.000  0.000  0.000
   19  0.000  0.000  0.000  0.000
   20  0.000  0.000  0.001  0.001
   21  0.000  0.000  0.001  0.001
   22  0.000  0.000  0.000  0.000
   23  0.000  0.000  0.001  0.001
   24  0.000  0.000  0.000  0.000
   25  0.000  0.000  0.000  0.000
   26  0.000  0.000  0.000  0.000
   27  0.000  0.000  0.000  0.000
   28  0.000  0.000  0.000  0.000
   29  0.000  0.000  0.000  0.000
   30  0.000  0.000  0.000  0.000
   31  0.000  0.000  0.000  0.000
   32  0.000  0.000  0.000  0.000
   33  0.000  0.000  0.000  0.000
   34  0.000  0.000  0.000  0.000
   35  0.000  0.000  0.000  0.000
   36  0.026  0.045  0.080  0.151
   37  0.620  0.003  0.000  0.623
tot    0.648  0.049  0.082  0.779
 
band     6 # energy   -6.39623338 # occ.  2.00000000
 
ion      s      p      d    tot
    1  0.006  0.001  0.000  0.007
    2  0.006  0.001  0.000  0.007
    3  0.006  0.001  0.000  0.007
    4  0.006  0.001  0.000  0.007
    5  0.006  0.001  0.000  0.007
    6  0.006  0.001  0.000  0.007
    7  0.006  0.001  0.000  0.007
    8  0.006  0.001  0.000  0.007
    9  0.006  0.001  0.000  0.007
   10  0.024  0.000  0.000  0.024
   11  0.024  0.000  0.000  0.025
   12  0.024  0.000  0.000  0.024
   13  0.024  0.000  0.000  0.025
   14  0.024  0.000  0.000  0.025
   15  0.023  0.000  0.000  0.024
   16  0.024  0.000  0.000  0.024
   17  0.023  0.000  0.000  0.024
   18  0.023  0.000  0.000  0.024
   19  0.023  0.000  0.000  0.024
   20  0.023  0.000  0.000  0.024
   21  0.023  0.000  0.000  0.024
   22  0.023  0.000  0.000  0.023
   23  0.023  0.000  0.000  0.024
   24  0.023  0.000  0.000  0.023
   25  0.023  0.000  0.000  0.024
   26  0.023  0.000  0.000  0.024
   27  0.023  0.000  0.000  0.023
   28  0.006  0.001  0.000  0.006
   29  0.005  0.001  0.000  0.006
   30  0.005  0.001  0.000  0.006
   31  0.005  0.001  0.000  0.006
   32  0.005  0.001  0.000  0.006
   33  0.005  0.001  0.000  0.006
   34  0.005  0.001  0.000  0.006
   35  0.006  0.001  0.000  0.006
   36  0.002  0.001  0.000  0.003
   37  0.001  0.000  0.000  0.001
tot    0.520  0.013  0.007  0.540
 
band     7 # energy   -5.53805381 # occ.  2.00000000
 
ion      s      p      d    tot
    1  0.008  0.000  0.000  0.008
    2  0.007  0.000  0.000  0.008
    3  0.007  0.000  0.000  0.008
    4  0.007  0.000  0.000  0.008
    5  0.007  0.000  0.000  0.008
    6  0.007  0.000  0.000  0.008
    7  0.007  0.000  0.000  0.008
    8  0.007  0.000  0.000  0.008
    9  0.007  0.000  0.000  0.008
   10  0.012  0.001  0.015  0.028
   11  0.011  0.001  0.016  0.028
   12  0.012  0.001  0.015  0.028
   13  0.011  0.001  0.016  0.028
   14  0.011  0.001  0.016  0.028
   15  0.010  0.001  0.014  0.025
   16  0.012  0.001  0.015  0.028
   17  0.010  0.001  0.014  0.025
   18  0.010  0.001  0.014  0.025
   19  0.012  0.001  0.016  0.029
   20  0.011  0.001  0.024  0.036
   21  0.011  0.001  0.024  0.036
   22  0.013  0.001  0.015  0.028
   23  0.011  0.001  0.024  0.036
   24  0.013  0.001  0.015  0.028
   25  0.012  0.001  0.016  0.029
   26  0.012  0.001  0.016  0.029
   27  0.013  0.001  0.015  0.028
   28  0.008  0.000  0.000  0.008
   29  0.007  0.000  0.000  0.007
   30  0.007  0.000  0.000  0.007
   31  0.007  0.000  0.000  0.007
   32  0.007  0.000  0.000  0.007
   33  0.007  0.000  0.000  0.007
   34  0.007  0.000  0.000  0.007
   35  0.008  0.000  0.000  0.008
   36  0.002  0.000  0.000  0.002
   37  0.001  0.000  0.000  0.001
tot    0.329  0.024  0.305  0.658
 
band     8 # energy   -5.27239234 # occ.  2.00000000
 
ion      s      p      d    tot
    1  0.011  0.000  0.015  0.026
    2  0.010  0.000  0.014  0.025
    3  0.010  0.000  0.014  0.025
    4  0.010  0.000  0.014  0.025
    5  0.010  0.000  0.014  0.024
    6  0.010  0.000  0.014  0.025
    7  0.010  0.000  0.014  0.025
    8  0.010  0.000  0.014  0.025
    9  0.010  0.000  0.014  0.024
   10  0.000  0.000  0.018  0.018
   11  0.000  0.000  0.014  0.014
   12  0.000  0.000  0.018  0.018
   13  0.000  0.000  0.014  0.014
   14  0.000  0.000  0.014  0.014
   15  0.000  0.000  0.011  0.012
   16  0.000  0.000  0.018  0.018
   17  0.000  0.000  0.011  0.012
   18  0.000  0.000  0.011  0.012
   19  0.000  0.000  0.016  0.016
   20  0.001  0.000  0.022  0.023
   21  0.001  0.000  0.022  0.023
   22  0.000  0.000  0.014  0.014
   23  0.001  0.000  0.022  0.023
   24  0.000  0.000  0.014  0.014
   25  0.000  0.000  0.016  0.016
   26  0.000  0.000  0.016  0.016
   27  0.000  0.000  0.014  0.014
   28  0.013  0.000  0.015  0.028
   29  0.012  0.000  0.017  0.029
   30  0.012  0.000  0.017  0.029
   31  0.012  0.000  0.017  0.029
   32  0.012  0.000  0.017  0.029
   33  0.012  0.000  0.017  0.029
   34  0.012  0.000  0.017  0.029
   35  0.014  0.000  0.017  0.032
   36  0.003  0.000  0.004  0.008
   37  0.000  0.000  0.000  0.000
tot    0.197  0.006  0.554  0.757
 
band     9 # energy   -5.15303946 # occ.  2.00000000
 
ion      s      p      d    tot
    1  0.000  0.000  0.003  0.004
    2  0.001  0.000  0.006  0.007
    3  0.001  0.000  0.006  0.007
    4  0.001  0.000  0.006  0.007
    5  0.005  0.000  0.002  0.007
    6  0.001  0.000  0.006  0.007
    7  0.001  0.000  0.006  0.007
    8  0.001  0.000  0.006  0.007
    9  0.002  0.000  0.000  0.002
   10  0.003  0.000  0.013  0.017
   11  0.000  0.000  0.023  0.024
   12  0.003  0.000  0.013  0.017
   13  0.000  0.000  0.023  0.024
   14  0.000  0.000  0.023  0.024
   15  0.002  0.000  0.012  0.015
   16  0.003  0.000  0.013  0.017
   17  0.002  0.000  0.012  0.015
   18  0.002  0.000  0.012  0.015
   19  0.004  0.001  0.028  0.033
   20  0.005  0.000  0.112  0.117
   21  0.005  0.000  0.112  0.117
   22  0.013  0.001  0.021  0.034
   23  0.005  0.000  0.112  0.118
   24  0.013  0.001  0.021  0.034
   25  0.004  0.001  0.028  0.032
   26  0.004  0.001  0.028  0.033
   27  0.013  0.001  0.021  0.034
   28  0.000  0.000  0.000  0.000
   29  0.000  0.000  0.005  0.005
   30  0.000  0.000  0.005  0.005
   31  0.000  0.000  0.005  0.005
   32  0.000  0.000  0.005  0.005
   33  0.000  0.000  0.005  0.005
   34  0.000  0.000  0.005  0.005
   35  0.004  0.001  0.003  0.007
   36  0.000  0.001  0.002  0.003
   37  0.001  0.000  0.000  0.001
tot    0.101  0.013  0.705  0.818
 
band    10 # energy   -5.14960833 # occ.  2.00000000
 
ion      s      p      d    tot
    1  0.000  0.000  0.008  0.008
    2  0.001  0.000  0.002  0.003
    3  0.001  0.000  0.002  0.003
    4  0.000  0.000  0.002  0.002
    5  0.000  0.000  0.003  0.003
    6  0.000  0.000  0.002  0.002
    7  0.001  0.000  0.003  0.003
    8  0.001  0.000  0.003  0.003
    9  0.000  0.000  0.002  0.002
   10  0.002  0.001  0.019  0.022
   11  0.001  0.000  0.026  0.026
   12  0.003  0.001  0.019  0.023
   13  0.000  0.000  0.024  0.025
   14  0.000  0.000  0.024  0.024
   15  0.006  0.001  0.008  0.015
   16  0.010  0.001  0.018  0.028
   17  0.002  0.000  0.017  0.019
   18  0.001  0.000  0.019  0.020
   19  0.025  0.000  0.035  0.060
   20  0.004  0.000  0.132  0.136
   21  0.006  0.000  0.117  0.123
   22  0.000  0.001  0.035  0.036
   23  0.020  0.001  0.009  0.030
   24  0.000  0.001  0.035  0.036
   25  0.005  0.001  0.034  0.040
   26  0.007  0.001  0.034  0.042
   27  0.000  0.000  0.036  0.036
   28  0.000  0.000  0.006  0.006
   29  0.000  0.000  0.005  0.005
   30  0.000  0.000  0.004  0.004
   31  0.001  0.001  0.008  0.009
   32  0.001  0.001  0.007  0.009
   33  0.000  0.000  0.002  0.003
   34  0.001  0.000  0.003  0.004
   35  0.000  0.000  0.000  0.000
   36  0.000  0.000  0.001  0.002
   37  0.000  0.000  0.000  0.000
tot    0.099  0.013  0.705  0.817
 
band    11 # energy   -5.14959601 # occ.  2.00000000
 
ion      s      p      d    tot
    1  0.000  0.000  0.008  0.008
    2  0.000  0.000  0.003  0.003
    3  0.000  0.000  0.003  0.003
    4  0.001  0.000  0.002  0.004
    5  0.000  0.000  0.003  0.003
    6  0.001  0.000  0.002  0.004
    7  0.000  0.000  0.002  0.003
    8  0.001  0.000  0.002  0.003
    9  0.000  0.000  0.002  0.002
   10  0.008  0.001  0.018  0.027
   11  0.000  0.001  0.023  0.024
   12  0.007  0.001  0.018  0.026
   13  0.000  0.000  0.025  0.026
   14  0.000  0.000  0.025  0.026
   15  0.000  0.000  0.021  0.022
   16  0.000  0.001  0.020  0.020
   17  0.004  0.000  0.012  0.017
   18  0.005  0.000  0.011  0.016
   19  0.000  0.001  0.034  0.035
   20  0.016  0.000  0.040  0.057
   21  0.014  0.000  0.055  0.070
   22  0.000  0.001  0.036  0.036
   23  0.000  0.000  0.163  0.163
   24  0.000  0.000  0.036  0.036
   25  0.020  0.001  0.035  0.055
   26  0.017  0.001  0.035  0.053
   27  0.000  0.001  0.035  0.036
   28  0.000  0.000  0.006  0.006
   29  0.001  0.001  0.005  0.006
   30  0.001  0.001  0.005  0.007
   31  0.000  0.000  0.002  0.002
   32  0.000  0.000  0.002  0.003
   33  0.001  0.000  0.007  0.008
   34  0.000  0.000  0.007  0.008
   35  0.000  0.000  0.000  0.000
   36  0.000  0.000  0.001  0.002
   37  0.000  0.000  0.000  0.000
tot    0.099  0.013  0.705  0.817
 
band    12 # energy   -5.13381513 # occ.  2.00000000
 
ion      s      p      d    tot
    1  0.000  0.000  0.003  0.003
    2  0.000  0.000  0.002  0.002
    3  0.001  0.000  0.006  0.007
    4  0.000  0.000  0.002  0.002
    5  0.000  0.000  0.009  0.010
    6  0.001  0.001  0.005  0.007
    7  0.001  0.000  0.005  0.006
    8  0.001  0.001  0.004  0.006
    9  0.000  0.000  0.002  0.002
   10  0.006  0.001  0.016  0.022
   11  0.010  0.001  0.056  0.067
   12  0.001  0.000  0.072  0.073
   13  0.005  0.001  0.066  0.072
   14  0.030  0.001  0.014  0.045
   15  0.003  0.001  0.017  0.021
   16  0.002  0.000  0.062  0.064
   17  0.001  0.001  0.013  0.015
   18  0.008  0.000  0.036  0.044
   19  0.000  0.000  0.031  0.032
   20  0.012  0.001  0.037  0.049
   21  0.002  0.001  0.026  0.030
   22  0.003  0.000  0.038  0.042
   23  0.004  0.001  0.028  0.033
   24  0.016  0.001  0.008  0.025
   25  0.001  0.000  0.016  0.018
   26  0.000  0.000  0.034  0.035
   27  0.005  0.000  0.033  0.039
   28  0.000  0.000  0.001  0.001
   29  0.001  0.000  0.004  0.006
   30  0.000  0.000  0.003  0.003
   31  0.001  0.000  0.004  0.006
   32  0.000  0.000  0.003  0.003
   33  0.001  0.000  0.003  0.004
   34  0.000  0.000  0.003  0.003
   35  0.000  0.000  0.007  0.007
   36  0.000  0.000  0.001  0.001
   37  0.000  0.000  0.000  0.000
tot    0.119  0.016  0.669  0.805
 
band    13 # energy   -5.13380643 # occ.  2.00000000
 
ion      s      p      d    tot
    1  0.000  0.000  0.003  0.003
    2  0.001  0.001  0.006  0.008
    3  0.000  0.000  0.003  0.003
    4  0.002  0.001  0.006  0.008
    5  0.000  0.000  0.009  0.010
    6  0.000  0.000  0.003  0.004
    7  0.001  0.000  0.003  0.004
    8  0.000  0.000  0.004  0.004
    9  0.000  0.000  0.002  0.002
   10  0.000  0.000  0.084  0.084
   11  0.020  0.001  0.034  0.055
   12  0.005  0.001  0.028  0.033
   13  0.025  0.001  0.025  0.051
   14  0.000  0.001  0.077  0.078
   15  0.005  0.001  0.027  0.033
   16  0.004  0.000  0.038  0.042
   17  0.007  0.000  0.031  0.038
   18  0.000  0.002  0.008  0.010
   19  0.001  0.000  0.023  0.024
   20  0.000  0.001  0.024  0.026
   21  0.010  0.001  0.035  0.045
   22  0.014  0.001  0.014  0.029
   23  0.008  0.001  0.033  0.042
   24  0.000  0.000  0.045  0.045
   25  0.000  0.000  0.038  0.038
   26  0.001  0.000  0.020  0.021
   27  0.011  0.001  0.020  0.032
   28  0.000  0.000  0.001  0.001
   29  0.000  0.000  0.003  0.003
   30  0.001  0.000  0.004  0.005
   31  0.000  0.000  0.002  0.003
   32  0.001  0.000  0.004  0.006
   33  0.001  0.000  0.003  0.005
   34  0.001  0.000  0.004  0.005
   35  0.000  0.000  0.007  0.007
   36  0.000  0.000  0.001  0.001
   37  0.000  0.000  0.000  0.000
tot    0.119  0.016  0.669  0.805
 
band    14 # energy   -5.13278151 # occ.  2.00000000
 
ion      s      p      d    tot
    1  0.002  0.000  0.000  0.002
    2  0.000  0.000  0.006  0.006
    3  0.000  0.000  0.006  0.006
    4  0.000  0.000  0.006  0.006
    5  0.002  0.001  0.008  0.010
    6  0.000  0.000  0.006  0.006
    7  0.000  0.000  0.006  0.006
    8  0.000  0.000  0.006  0.006
    9  0.002  0.000  0.001  0.003
   10  0.008  0.001  0.005  0.014
   11  0.014  0.001  0.046  0.060
   12  0.008  0.001  0.005  0.014
   13  0.014  0.001  0.046  0.060
   14  0.014  0.001  0.046  0.060
   15  0.000  0.000  0.048  0.049
   16  0.008  0.001  0.005  0.014
   17  0.000  0.000  0.048  0.049
   18  0.000  0.000  0.048  0.049
   19  0.011  0.001  0.030  0.041
   20  0.006  0.001  0.020  0.027
   21  0.006  0.001  0.020  0.027
   22  0.001  0.000  0.041  0.042
   23  0.006  0.001  0.020  0.027
   24  0.001  0.000  0.041  0.041
   25  0.011  0.001  0.030  0.041
   26  0.011  0.001  0.030  0.041
   27  0.001  0.000  0.041  0.042
   28  0.004  0.001  0.001  0.006
   29  0.000  0.000  0.006  0.006
   30  0.000  0.000  0.006  0.006
   31  0.000  0.000  0.006  0.006
   32  0.000  0.000  0.006  0.006
   33  0.000  0.000  0.006  0.006
   34  0.000  0.000  0.006  0.006
   35  0.001  0.000  0.003  0.004
   36  0.000  0.000  0.000  0.000
   37  0.000  0.000  0.000  0.000
tot    0.129  0.017  0.652  0.798
 
band    15 # energy   -5.11705113 # occ.  2.00000000
 
ion      s      p      d    tot
    1  0.004  0.000  0.032  0.036
    2  0.006  0.000  0.016  0.023
    3  0.006  0.000  0.016  0.023
    4  0.006  0.000  0.016  0.023
    5  0.003  0.000  0.007  0.010
    6  0.006  0.000  0.016  0.023
    7  0.006  0.000  0.016  0.023
    8  0.006  0.000  0.016  0.023
    9  0.014  0.000  0.011  0.025
   10  0.005  0.000  0.032  0.037
   11  0.001  0.000  0.023  0.025
   12  0.005  0.000  0.032  0.037
   13  0.001  0.000  0.023  0.025
   14  0.001  0.000  0.023  0.024
   15  0.000  0.001  0.006  0.007
   16  0.005  0.000  0.032  0.037
   17  0.000  0.001  0.006  0.007
   18  0.000  0.001  0.006  0.007
   19  0.000  0.001  0.012  0.012
   20  0.002  0.000  0.014  0.016
   21  0.002  0.000  0.014  0.016
   22  0.002  0.000  0.022  0.024
   23  0.002  0.000  0.014  0.016
   24  0.002  0.000  0.022  0.024
   25  0.000  0.001  0.012  0.012
   26  0.000  0.001  0.012  0.012
   27  0.002  0.000  0.022  0.024
   28  0.015  0.000  0.016  0.031
   29  0.006  0.000  0.020  0.026
   30  0.006  0.000  0.020  0.026
   31  0.006  0.000  0.020  0.026
   32  0.006  0.000  0.020  0.026
   33  0.006  0.000  0.020  0.026
   34  0.006  0.000  0.020  0.026
   35  0.006  0.000  0.025  0.031
   36  0.000  0.000  0.001  0.002
   37  0.000  0.000  0.000  0.000
tot    0.148  0.008  0.637  0.792
 
band    16 # energy   -5.11062984 # occ.  2.00000000
 
ion      s      p      d    tot
    1  0.002  0.000  0.001  0.003
    2  0.002  0.000  0.009  0.011
    3  0.002  0.000  0.009  0.011
    4  0.002  0.000  0.009  0.011
    5  0.007  0.000  0.007  0.014
    6  0.002  0.000  0.009  0.011
    7  0.002  0.000  0.009  0.011
    8  0.002  0.000  0.009  0.011
    9  0.000  0.001  0.022  0.023
   10  0.000  0.000  0.078  0.078
   11  0.002  0.001  0.015  0.017
   12  0.000  0.000  0.078  0.078
   13  0.002  0.001  0.015  0.017
   14  0.002  0.001  0.015  0.017
   15  0.015  0.000  0.039  0.054
   16  0.000  0.000  0.078  0.078
   17  0.015  0.000  0.039  0.054
   18  0.015  0.000  0.039  0.054
   19  0.001  0.000  0.016  0.017
   20  0.000  0.000  0.028  0.028
   21  0.000  0.000  0.028  0.028
   22  0.000  0.001  0.008  0.009
   23  0.000  0.000  0.028  0.028
   24  0.000  0.001  0.008  0.009
   25  0.001  0.000  0.016  0.017
   26  0.001  0.000  0.016  0.017
   27  0.000  0.001  0.008  0.009
   28  0.000  0.000  0.000  0.001
   29  0.002  0.000  0.014  0.016
   30  0.002  0.000  0.014  0.016
   31  0.002  0.000  0.014  0.016
   32  0.002  0.000  0.014  0.016
   33  0.002  0.000  0.014  0.016
   34  0.002  0.000  0.014  0.016
   35  0.006  0.000  0.005  0.012
   36  0.002  0.000  0.002  0.004
   37  0.000  0.000  0.000  0.000
tot    0.089  0.008  0.729  0.827
 
band    17 # energy   -5.09700315 # occ.  2.00000000
 
ion      s      p      d    tot
    1  0.000  0.001  0.010  0.010
    2  0.004  0.001  0.006  0.011
    3  0.004  0.001  0.005  0.009
    4  0.001  0.001  0.009  0.011
    5  0.000  0.000  0.010  0.010
    6  0.000  0.000  0.010  0.010
    7  0.002  0.000  0.005  0.007
    8  0.001  0.000  0.007  0.008
    9  0.000  0.000  0.008  0.009
   10  0.017  0.000  0.021  0.038
   11  0.000  0.001  0.012  0.013
   12  0.012  0.000  0.034  0.046
   13  0.000  0.000  0.029  0.029
   14  0.000  0.000  0.036  0.037
   15  0.000  0.000  0.084  0.084
   16  0.000  0.000  0.063  0.063
   17  0.008  0.000  0.039  0.047
   18  0.011  0.000  0.019  0.030
   19  0.000  0.000  0.034  0.034
   20  0.003  0.000  0.023  0.026
   21  0.002  0.000  0.024  0.026
   22  0.006  0.000  0.023  0.029
   23  0.000  0.000  0.026  0.027
   24  0.009  0.000  0.015  0.024
   25  0.002  0.000  0.026  0.029
   26  0.001  0.000  0.029  0.031
   27  0.000  0.000  0.040  0.040
   28  0.000  0.000  0.017  0.017
   29  0.000  0.000  0.008  0.008
   30  0.000  0.000  0.008  0.008
   31  0.003  0.001  0.007  0.010
   32  0.004  0.001  0.006  0.011
   33  0.002  0.000  0.006  0.009
   34  0.004  0.000  0.006  0.010
   35  0.000  0.000  0.005  0.006
   36  0.000  0.000  0.001  0.001
   37  0.000  0.000  0.000  0.000
tot    0.098  0.011  0.712  0.821
 
band    18 # energy   -5.09699983 # occ.  2.00000000
 
ion      s      p      d    tot
    1  0.000  0.001  0.010  0.010
    2  0.000  0.000  0.008  0.008
    3  0.000  0.000  0.009  0.010
    4  0.002  0.000  0.005  0.008
    5  0.000  0.000  0.010  0.010
    6  0.004  0.001  0.004  0.009
    7  0.002  0.001  0.008  0.012
    8  0.003  0.001  0.007  0.011
    9  0.000  0.000  0.008  0.009
   10  0.003  0.000  0.057  0.060
   11  0.000  0.000  0.039  0.040
   12  0.008  0.000  0.044  0.053
   13  0.000  0.000  0.023  0.023
   14  0.000  0.000  0.015  0.016
   15  0.013  0.000  0.011  0.024
   16  0.019  0.000  0.016  0.035
   17  0.005  0.000  0.055  0.061
   18  0.002  0.000  0.076  0.078
   19  0.002  0.000  0.025  0.028
   20  0.000  0.000  0.026  0.027
   21  0.001  0.000  0.025  0.026
   22  0.004  0.000  0.029  0.033
   23  0.003  0.000  0.022  0.026
   24  0.001  0.000  0.037  0.038
   25  0.000  0.000  0.033  0.034
   26  0.001  0.000  0.031  0.032
   27  0.010  0.000  0.012  0.022
   28  0.000  0.000  0.017  0.017
   29  0.004  0.001  0.006  0.010
   30  0.004  0.001  0.006  0.011
   31  0.001  0.000  0.007  0.008
   32  0.000  0.000  0.007  0.008
   33  0.002  0.001  0.008  0.010
   34  0.001  0.000  0.008  0.009
   35  0.000  0.000  0.005  0.006
   36  0.000  0.000  0.001  0.001
   37  0.000  0.000  0.000  0.000
tot    0.098  0.011  0.712  0.821
 
band    19 # energy   -5.08779283 # occ.  2.00000000
 
ion      s      p      d    tot
    1  0.000  0.000  0.006  0.006
    2  0.001  0.000  0.007  0.008
    3  0.000  0.000  0.007  0.008
    4  0.001  0.000  0.008  0.008
    5  0.000  0.000  0.004  0.004
    6  0.002  0.000  0.004  0.007
    7  0.000  0.000  0.008  0.008
    8  0.002  0.000  0.004  0.007
    9  0.000  0.000  0.015  0.016
   10  0.000  0.000  0.039  0.039
   11  0.002  0.000  0.048  0.049
   12  0.000  0.000  0.012  0.012
   13  0.001  0.000  0.060  0.060
   14  0.005  0.000  0.009  0.014
   15  0.002  0.000  0.047  0.049
   16  0.000  0.000  0.019  0.019
   17  0.001  0.000  0.053  0.054
   18  0.006  0.000  0.028  0.034
   19  0.002  0.000  0.055  0.057
   20  0.000  0.000  0.046  0.046
   21  0.000  0.000  0.017  0.018
   22  0.001  0.000  0.051  0.052
   23  0.000  0.000  0.024  0.024
   24  0.006  0.000  0.032  0.038
   25  0.005  0.000  0.008  0.014
   26  0.001  0.000  0.070  0.071
   27  0.002  0.000  0.046  0.049
   28  0.000  0.000  0.006  0.007
   29  0.001  0.000  0.009  0.010
   30  0.002  0.000  0.005  0.007
   31  0.001  0.000  0.008  0.010
   32  0.000  0.000  0.009  0.009
   33  0.002  0.000  0.005  0.007
   34  0.000  0.000  0.010  0.010
   35  0.000  0.000  0.017  0.017
   36  0.000  0.000  0.001  0.001
   37  0.000  0.000  0.000  0.000
tot    0.045  0.006  0.797  0.849
 
band    20 # energy   -5.08777777 # occ.  2.00000000
 
ion      s      p      d    tot
    1  0.000  0.000  0.006  0.006
    2  0.001  0.000  0.006  0.007
    3  0.002  0.000  0.006  0.008
    4  0.001  0.000  0.005  0.007
    5  0.000  0.000  0.004  0.004
    6  0.000  0.000  0.008  0.009
    7  0.002  0.000  0.005  0.007
    8  0.000  0.000  0.008  0.008
    9  0.000  0.000  0.015  0.016
   10  0.000  0.000  0.007  0.008
   11  0.003  0.000  0.030  0.033
   12  0.000  0.000  0.035  0.035
   13  0.004  0.000  0.018  0.022
   14  0.000  0.000  0.068  0.069
   15  0.004  0.000  0.038  0.042
   16  0.000  0.000  0.028  0.028
   17  0.005  0.000  0.032  0.037
   18  0.000  0.000  0.058  0.058
   19  0.004  0.000  0.033  0.037
   20  0.000  0.000  0.012  0.013
   21  0.000  0.000  0.041  0.041
   22  0.005  0.000  0.035  0.041
   23  0.000  0.000  0.034  0.034
   24  0.000  0.000  0.054  0.054
   25  0.000  0.000  0.080  0.080
   26  0.005  0.000  0.019  0.024
   27  0.004  0.000  0.040  0.044
   28  0.000  0.000  0.006  0.007
   29  0.001  0.000  0.006  0.007
   30  0.000  0.000  0.010  0.011
   31  0.001  0.000  0.007  0.008
   32  0.002  0.000  0.007  0.009
   33  0.000  0.000  0.010  0.010
   34  0.002  0.000  0.006  0.008
   35  0.000  0.000  0.017  0.017
   36  0.000  0.000  0.001  0.001
   37  0.000  0.000  0.000  0.000
tot    0.045  0.006  0.797  0.849
 
band    21 # energy   -5.07661064 # occ.  2.00000000
 
ion      s      p      d    tot
    1  0.009  0.001  0.000  0.010
    2  0.000  0.000  0.010  0.011
    3  0.000  0.000  0.010  0.011
    4  0.000  0.000  0.010  0.011
    5  0.000  0.000  0.012  0.012
    6  0.000  0.000  0.010  0.011
    7  0.000  0.000  0.010  0.011
    8  0.000  0.000  0.010  0.011
    9  0.002  0.000  0.000  0.002
   10  0.002  0.000  0.013  0.016
   11  0.001  0.000  0.038  0.039
   12  0.002  0.000  0.013  0.016
   13  0.001  0.000  0.038  0.039
   14  0.001  0.000  0.038  0.039
   15  0.002  0.000  0.029  0.031
   16  0.002  0.000  0.013  0.016
   17  0.002  0.000  0.029  0.031
   18  0.002  0.000  0.029  0.031
   19  0.004  0.000  0.058  0.061
   20  0.005  0.000  0.008  0.013
   21  0.005  0.000  0.008  0.013
   22  0.001  0.000  0.045  0.047
   23  0.005  0.000  0.008  0.013
   24  0.001  0.000  0.045  0.046
   25  0.004  0.000  0.058  0.061
   26  0.004  0.000  0.058  0.061
   27  0.001  0.000  0.045  0.047
   28  0.000  0.001  0.026  0.027
   29  0.001  0.000  0.014  0.015
   30  0.001  0.000  0.014  0.015
   31  0.001  0.000  0.014  0.015
   32  0.001  0.000  0.014  0.015
   33  0.001  0.000  0.014  0.015
   34  0.001  0.000  0.014  0.015
   35  0.000  0.000  0.000  0.001
   36  0.004  0.001  0.000  0.005