PROCAR new format
# of k-points:   10         # of bands:  252         # of ions:   37

 k-point     1 :    0.00000000 0.00000000 0.00000000     weight = 0.01562500

band     1 # energy   -9.03428455 # occ.  2.00000000
 
ion      s      p      d    tot
    1  0.001  0.000  0.000  0.001
    2  0.001  0.000  0.000  0.001
    3  0.001  0.000  0.000  0.001
    4  0.001  0.000  0.000  0.001
    5  0.001  0.000  0.000  0.001
    6  0.001  0.000  0.000  0.001
    7  0.001  0.000  0.000  0.001
    8  0.001  0.000  0.000  0.001
    9  0.001  0.000  0.000  0.001
   10  0.006  0.000  0.000  0.006
   11  0.006  0.000  0.000  0.007
   12  0.006  0.000  0.000  0.006
   13  0.006  0.000  0.000  0.007
   14  0.006  0.000  0.000  0.007
   15  0.005  0.000  0.000  0.005
   16  0.006  0.000  0.000  0.006
   17  0.005  0.000  0.000  0.005
   18  0.005  0.000  0.000  0.005
   19  0.008  0.000  0.000  0.008
   20  0.021  0.001  0.003  0.025
   21  0.021  0.001  0.003  0.025
   22  0.009  0.000  0.000  0.009
   23  0.021  0.001  0.003  0.025
   24  0.009  0.000  0.000  0.009
   25  0.008  0.000  0.000  0.008
   26  0.008  0.000  0.000  0.008
   27  0.009  0.000  0.000  0.009
   28  0.003  0.000  0.000  0.003
   29  0.008  0.001  0.001  0.009
   30  0.008  0.001  0.001  0.009
   31  0.008  0.001  0.001  0.009
   32  0.008  0.001  0.001  0.009
   33  0.008  0.001  0.001  0.009
   34  0.008  0.001  0.001  0.009
   35  0.003  0.000  0.000  0.003
   36  0.133  0.018  0.081  0.232
   37  0.227  0.013  0.000  0.240
tot    0.587  0.039  0.099  0.725
 
band     2 # energy   -8.51478265 # occ.  2.00000000
 
ion      s      p      d    tot
    1  0.007  0.000  0.000  0.007
    2  0.007  0.000  0.000  0.007
    3  0.007  0.000  0.000  0.007
    4  0.007  0.000  0.000  0.007
    5  0.007  0.001  0.000  0.007
    6  0.007  0.000  0.000  0.007
    7  0.007  0.000  0.000  0.007
    8  0.007  0.000  0.000  0.007
    9  0.007  0.001  0.000  0.007
   10  0.022  0.000  0.000  0.022
   11  0.023  0.000  0.000  0.024
   12  0.022  0.000  0.000  0.022
   13  0.023  0.000  0.000  0.024
   14  0.023  0.000  0.000  0.024
   15  0.024  0.000  0.000  0.024
   16  0.022  0.000  0.000  0.022
   17  0.024  0.000  0.000  0.024
   18  0.024  0.000  0.000  0.024
   19  0.013  0.000  0.000  0.013
   20  0.009  0.001  0.002  0.011
   21  0.009  0.001  0.002  0.011
   22  0.015  0.000  0.000  0.015
   23  0.009  0.001  0.002  0.011
   24  0.015  0.000  0.000  0.015
   25  0.013  0.000  0.000  0.013
   26  0.013  0.000  0.000  0.013
   27  0.015  0.000  0.000  0.015
   28  0.001  0.000  0.000  0.002
   29  0.000  0.001  0.001  0.002
   30  0.000  0.001  0.001  0.002
   31  0.000  0.001  0.001  0.002
   32  0.000  0.001  0.001  0.002
   33  0.000  0.001  0.001  0.002
   34  0.000  0.001  0.001  0.002
   35  0.001  0.000  0.000  0.002
   36  0.029  0.022  0.050  0.100
   37  0.136  0.006  0.000  0.142
tot    0.545  0.041  0.065  0.651
 
band     3 # energy   -7.45039370 # occ.  2.00000000
 
ion      s      p      d    tot
    1  0.017  0.000  0.001  0.018
    2  0.016  0.000  0.001  0.017
    3  0.016  0.000  0.001  0.017
    4  0.016  0.000  0.001  0.017
    5  0.015  0.000  0.001  0.017
    6  0.016  0.000  0.001  0.017
    7  0.016  0.000  0.001  0.017
    8  0.016  0.000  0.001  0.017
    9  0.015  0.000  0.001  0.017
   10  0.009  0.001  0.002  0.013
   11  0.008  0.002  0.003  0.012
   12  0.009  0.001  0.002  0.013
   13  0.008  0.002  0.003  0.012
   14  0.008  0.002  0.003  0.012
   15  0.007  0.002  0.002  0.011
   16  0.009  0.001  0.002  0.013
   17  0.007  0.002  0.002  0.011
   18  0.007  0.002  0.002  0.011
   19  0.014  0.001  0.004  0.019
   20  0.014  0.001  0.004  0.019
   21  0.014  0.001  0.004  0.019
   22  0.018  0.001  0.004  0.023
   23  0.014  0.001  0.004  0.019
   24  0.018  0.001  0.004  0.023
   25  0.014  0.001  0.004  0.019
   26  0.014  0.001  0.004  0.019
   27  0.018  0.001  0.004  0.023
   28  0.013  0.000  0.000  0.014
   29  0.011  0.001  0.001  0.013
   30  0.011  0.001  0.001  0.013
   31  0.011  0.001  0.001  0.013
   32  0.011  0.001  0.001  0.013
   33  0.011  0.001  0.001  0.013
   34  0.011  0.001  0.001  0.013
   35  0.014  0.001  0.000  0.014
   36  0.001  0.009  0.022  0.032
   37  0.033  0.001  0.000  0.034
tot    0.480  0.040  0.098  0.618
 
band     4 # energy   -6.59883627 # occ.  2.00000000
 
ion      s      p      d    tot
    1  0.000  0.000  0.007  0.008
    2  0.003  0.001  0.003  0.006
    3  0.005  0.001  0.002  0.008
    4  0.004  0.001  0.003  0.008
    5  0.000  0.001  0.006  0.007
    6  0.001  0.000  0.002  0.003
    7  0.006  0.001  0.003  0.009
    8  0.000  0.000  0.002  0.003
    9  0.000  0.000  0.001  0.001
   10  0.001  0.000  0.029  0.030
   11  0.030  0.002  0.016  0.048
   12  0.028  0.002  0.009  0.039
   13  0.040  0.001  0.013  0.054
   14  0.001  0.004  0.025  0.029
   15  0.001  0.001  0.008  0.010
   16  0.021  0.002  0.015  0.037
   17  0.001  0.001  0.009  0.011
   18  0.000  0.003  0.004  0.007
   19  0.006  0.002  0.009  0.017
   20  0.001  0.002  0.037  0.040
   21  0.059  0.001  0.017  0.078
   22  0.014  0.001  0.008  0.024
   23  0.045  0.001  0.022  0.069
   24  0.000  0.000  0.027  0.028
   25  0.000  0.004  0.003  0.007
   26  0.008  0.001  0.011  0.020
   27  0.011  0.001  0.013  0.025
   28  0.000  0.000  0.001  0.001
   29  0.000  0.000  0.002  0.003
   30  0.006  0.001  0.005  0.012
   31  0.000  0.000  0.002  0.003
   32  0.006  0.001  0.005  0.012
   33  0.005  0.001  0.004  0.010
   34  0.004  0.001  0.004  0.010
   35  0.000  0.000  0.004  0.004
   36  0.000  0.004  0.011  0.015
   37  0.000  0.000  0.000  0.000
tot    0.307  0.044  0.346  0.697
 
band     5 # energy   -6.59883517 # occ.  2.00000000
 
ion      s      p      d    tot
    1  0.000  0.000  0.007  0.008
    2  0.003  0.001  0.002  0.006
    3  0.001  0.000  0.003  0.004
    4  0.002  0.000  0.002  0.004
    5  0.000  0.001  0.006  0.007
    6  0.006  0.001  0.003  0.009
    7  0.000  0.000  0.003  0.003
    8  0.006  0.001  0.003  0.010
    9  0.000  0.000  0.001  0.001
   10  0.034  0.002  0.007  0.043
   11  0.018  0.003  0.020  0.041
   12  0.004  0.000  0.026  0.031
   13  0.008  0.003  0.023  0.034
   14  0.045  0.001  0.011  0.056
   15  0.001  0.002  0.006  0.009
   16  0.011  0.001  0.021  0.033
   17  0.000  0.003  0.005  0.008
   18  0.001  0.000  0.011  0.012
   19  0.004  0.003  0.007  0.013
   20  0.073  0.001  0.013  0.087
   21  0.009  0.002  0.034  0.046
   22  0.002  0.001  0.024  0.027
   23  0.023  0.002  0.029  0.055
   24  0.017  0.001  0.005  0.024
   25  0.009  0.000  0.012  0.021
   26  0.002  0.003  0.004  0.009
   27  0.006  0.001  0.019  0.026
   28  0.000  0.000  0.001  0.001
   29  0.006  0.001  0.005  0.013
   30  0.001  0.000  0.003  0.004
   31  0.006  0.001  0.006  0.013
   32  0.002  0.000  0.003  0.005
   33  0.003  0.001  0.003  0.007
   34  0.003  0.001  0.003  0.007
   35  0.000  0.000  0.004  0.004
   36  0.000  0.004  0.011  0.015
   37  0.000  0.000  0.000  0.000
tot    0.307  0.044  0.346  0.697
 
band     6 # energy   -6.59839438 # occ.  2.00000000
 
ion      s      p      d    tot
    1  0.001  0.000  0.008  0.010
    2  0.006  0.000  0.006  0.012
    3  0.006  0.000  0.006  0.012
    4  0.006  0.000  0.006  0.012
    5  0.003  0.000  0.004  0.007
    6  0.005  0.000  0.006  0.012
    7  0.006  0.000  0.006  0.012
    8  0.005  0.000  0.006  0.012
    9  0.022  0.001  0.002  0.025
   10  0.007  0.001  0.011  0.018
   11  0.006  0.002  0.006  0.014
   12  0.009  0.001  0.011  0.021
   13  0.006  0.002  0.006  0.014
   14  0.009  0.002  0.006  0.017
   15  0.006  0.001  0.007  0.014
   16  0.009  0.001  0.011  0.021
   17  0.006  0.001  0.007  0.014
   18  0.007  0.001  0.007  0.014
   19  0.001  0.001  0.016  0.018
   20  0.020  0.002  0.020  0.042
   21  0.026  0.002  0.019  0.046
   22  0.004  0.001  0.007  0.013
   23  0.026  0.002  0.019  0.046
   24  0.003  0.002  0.007  0.012
   25  0.001  0.001  0.017  0.020
   26  0.001  0.001  0.016  0.018
   27  0.004  0.001  0.007  0.013
   28  0.013  0.000  0.004  0.017
   29  0.013  0.000  0.010  0.023
   30  0.012  0.000  0.011  0.023
   31  0.013  0.000  0.010  0.023
   32  0.012  0.000  0.010  0.022
   33  0.012  0.000  0.011  0.023
   34  0.012  0.000  0.010  0.022
   35  0.025  0.000  0.005  0.030
   36  0.000  0.004  0.016  0.020
   37  0.000  0.000  0.000  0.001
tot    0.325  0.032  0.336  0.693
 
band     7 # energy   -6.54916072 # occ.  2.00000000
 
ion      s      p      d    tot
    1  0.013  0.000  0.011  0.024
    2  0.009  0.000  0.011  0.020
    3  0.009  0.000  0.011  0.020
    4  0.009  0.000  0.011  0.020
    5  0.004  0.000  0.012  0.017
    6  0.009  0.000  0.011  0.020
    7  0.009  0.000  0.011  0.020
    8  0.009  0.000  0.011  0.020
    9  0.012  0.000  0.008  0.021
   10  0.002  0.000  0.026  0.028
   11  0.014  0.000  0.019  0.033
   12  0.002  0.000  0.026  0.028
   13  0.014  0.000  0.019  0.033
   14  0.014  0.000  0.019  0.033
   15  0.003  0.000  0.023  0.026
   16  0.002  0.000  0.026  0.028
   17  0.003  0.000  0.023  0.026
   18  0.003  0.000  0.023  0.026
   19  0.010  0.000  0.011  0.021
   20  0.001  0.000  0.032  0.033
   21  0.001  0.000  0.032  0.033
   22  0.001  0.000  0.017  0.018
   23  0.001  0.000  0.032  0.033
   24  0.001  0.000  0.017  0.018
   25  0.010  0.000  0.011  0.021
   26  0.010  0.000  0.011  0.021
   27  0.001  0.000  0.017  0.018
   28  0.001  0.000  0.005  0.006
   29  0.005  0.000  0.006  0.011
   30  0.005  0.000  0.006  0.011
   31  0.005  0.000  0.006  0.011
   32  0.005  0.000  0.006  0.011
   33  0.005  0.000  0.006  0.011
   34  0.005  0.000  0.006  0.011
   35  0.005  0.000  0.003  0.009
   36  0.004  0.000  0.014  0.017
   37  0.001  0.000  0.000  0.001
tot    0.219  0.004  0.541  0.765
 
band     8 # energy   -6.53628003 # occ.  2.00000000
 
ion      s      p      d    tot
    1  0.010  0.000  0.003  0.012
    2  0.006  0.000  0.009  0.016
    3  0.006  0.000  0.009  0.016
    4  0.006  0.000  0.009  0.016
    5  0.022  0.000  0.004  0.027
    6  0.006  0.000  0.009  0.016
    7  0.006  0.000  0.009  0.016
    8  0.006  0.000  0.009  0.016
    9  0.000  0.001  0.012  0.013
   10  0.002  0.001  0.020  0.022
   11  0.005  0.002  0.009  0.016
   12  0.002  0.001  0.020  0.022
   13  0.005  0.002  0.009  0.016
   14  0.005  0.002  0.009  0.016
   15  0.027  0.001  0.011  0.039
   16  0.002  0.001  0.020  0.022
   17  0.027  0.001  0.011  0.039
   18  0.027  0.001  0.011  0.039
   19  0.009  0.001  0.012  0.021
   20  0.010  0.001  0.010  0.021
   21  0.010  0.001  0.010  0.021
   22  0.007  0.002  0.007  0.017
   23  0.010  0.001  0.010  0.021
   24  0.007  0.002  0.007  0.017
   25  0.009  0.001  0.012  0.021
   26  0.009  0.001  0.012  0.021
   27  0.007  0.002  0.007  0.017
   28  0.000  0.000  0.007  0.008
   29  0.006  0.000  0.009  0.015
   30  0.006  0.000  0.009  0.015
   31  0.006  0.000  0.009  0.015
   32  0.006  0.000  0.009  0.015
   33  0.006  0.000  0.009  0.015
   34  0.006  0.000  0.009  0.015
   35  0.002  0.000  0.003  0.005
   36  0.014  0.006  0.019  0.038
   37  0.013  0.000  0.000  0.014
tot    0.314  0.037  0.360  0.711
 
band     9 # energy   -6.49188945 # occ.  2.00000000
 
ion      s      p      d    tot
    1  0.014  0.002  0.001  0.017
    2  0.000  0.001  0.005  0.006
    3  0.000  0.001  0.005  0.006
    4  0.000  0.001  0.005  0.006
    5  0.008  0.001  0.002  0.011
    6  0.000  0.001  0.005  0.006
    7  0.000  0.001  0.005  0.006
    8  0.000  0.001  0.005  0.006
    9  0.000  0.000  0.000  0.000
   10  0.026  0.002  0.002  0.031
   11  0.013  0.000  0.027  0.039
   12  0.026  0.002  0.002  0.030
   13  0.013  0.000  0.027  0.039
   14  0.012  0.000  0.026  0.039
   15  0.002  0.002  0.014  0.018
   16  0.026  0.002  0.002  0.030
   17  0.002  0.002  0.014  0.018
   18  0.002  0.002  0.014  0.018
   19  0.014  0.002  0.006  0.022
   20  0.002  0.002  0.024  0.028
   21  0.002  0.002  0.024  0.028
   22  0.019  0.001  0.021  0.040
   23  0.002  0.002  0.024  0.028
   24  0.019  0.001  0.021  0.040
   25  0.014  0.002  0.006  0.022
   26  0.014  0.002  0.006  0.022
   27  0.019  0.001  0.021  0.040
   28  0.021  0.001  0.001  0.023
   29  0.004  0.000  0.006  0.010
   30  0.004  0.000  0.006  0.010
   31  0.004  0.000  0.006  0.010
   32  0.004  0.000  0.006  0.010
   33  0.004  0.000  0.006  0.010
   34  0.004  0.000  0.006  0.010
   35  0.000  0.001  0.009  0.011
   36  0.001  0.001  0.005  0.006
   37  0.004  0.000  0.000  0.004
tot    0.297  0.037  0.365  0.699
 
band    10 # energy   -6.48189113 # occ.  2.00000000
 
ion      s      p      d    tot
    1  0.000  0.001  0.004  0.004
    2  0.004  0.001  0.004  0.009
    3  0.008  0.001  0.004  0.013
    4  0.004  0.001  0.004  0.010
    5  0.000  0.000  0.005  0.005
    6  0.001  0.000  0.003  0.004
    7  0.008  0.001  0.004  0.013
    8  0.000  0.000  0.003  0.004
    9  0.000  0.001  0.011  0.012
   10  0.025  0.000  0.016  0.042
   11  0.002  0.001  0.021  0.024
   12  0.006  0.004  0.007  0.016
   13  0.002  0.001  0.021  0.024
   14  0.008  0.001  0.008  0.017
   15  0.016  0.001  0.033  0.051
   16  0.007  0.003  0.007  0.017
   17  0.015  0.001  0.034  0.050
   18  0.063  0.002  0.006  0.070
   19  0.010  0.001  0.027  0.038
   20  0.001  0.001  0.015  0.016
   21  0.000  0.002  0.013  0.015
   22  0.008  0.003  0.015  0.027
   23  0.000  0.002  0.013  0.015
   24  0.035  0.001  0.012  0.047
   25  0.039  0.002  0.003  0.044
   26  0.009  0.001  0.028  0.038
   27  0.009  0.003  0.015  0.027
   28  0.000  0.000  0.006  0.006
   29  0.000  0.000  0.002  0.002
   30  0.002  0.000  0.001  0.004
   31  0.000  0.000  0.002  0.002
   32  0.004  0.001  0.003  0.007
   33  0.002  0.000  0.001  0.004
   34  0.004  0.001  0.003  0.007
   35  0.000  0.001  0.004  0.004
   36  0.000  0.000  0.001  0.001
   37  0.000  0.000  0.000  0.000
tot    0.296  0.041  0.356  0.693
 
band    11 # energy   -6.48186062 # occ.  2.00000000
 
ion      s      p      d    tot
    1  0.000  0.001  0.004  0.004
    2  0.004  0.001  0.003  0.008
    3  0.001  0.000  0.004  0.005
    4  0.004  0.001  0.003  0.008
    5  0.000  0.000  0.005  0.005
    6  0.008  0.001  0.004  0.014
    7  0.001  0.000  0.004  0.005
    8  0.008  0.001  0.004  0.014
    9  0.000  0.001  0.011  0.012
   10  0.000  0.005  0.003  0.008
   11  0.006  0.001  0.012  0.020
   12  0.019  0.001  0.013  0.034
   13  0.006  0.001  0.012  0.019
   14  0.000  0.002  0.025  0.027
   15  0.047  0.001  0.015  0.063
   16  0.019  0.001  0.013  0.033
   17  0.048  0.001  0.015  0.064
   18  0.000  0.001  0.043  0.044
   19  0.029  0.002  0.011  0.042
   20  0.000  0.002  0.012  0.014
   21  0.001  0.001  0.014  0.016
   22  0.026  0.001  0.013  0.041
   23  0.001  0.001  0.014  0.016
   24  0.000  0.004  0.016  0.020
   25  0.000  0.000  0.035  0.036
   26  0.030  0.002  0.011  0.042
   27  0.026  0.001  0.013  0.040
   28  0.000  0.000  0.006  0.006
   29  0.004  0.001  0.002  0.007
   30  0.002  0.000  0.002  0.005
   31  0.004  0.001  0.002  0.007
   32  0.000  0.000  0.001  0.002
   33  0.002  0.000  0.002  0.005
   34  0.000  0.000  0.001  0.002
   35  0.000  0.001  0.004  0.004
   36  0.000  0.000  0.001  0.001
   37  0.000  0.000  0.000  0.000
tot    0.296  0.041  0.356  0.693
 
band    12 # energy   -6.10819452 # occ.  2.00000000
 
ion      s      p      d    tot
    1  0.000  0.001  0.004  0.005
    2  0.001  0.001  0.005  0.007
    3  0.009  0.001  0.004  0.015
    4  0.001  0.001  0.005  0.007
    5  0.000  0.001  0.009  0.011
    6  0.004  0.001  0.003  0.008
    7  0.009  0.001  0.004  0.015
    8  0.004  0.001  0.003  0.008
    9  0.000  0.000  0.008  0.008
   10  0.000  0.001  0.049  0.049
   11  0.019  0.001  0.019  0.039
   12  0.007  0.001  0.018  0.026
   13  0.019  0.001  0.019  0.039
   14  0.000  0.000  0.048  0.048
   15  0.002  0.000  0.018  0.021
   16  0.007  0.001  0.018  0.027
   17  0.002  0.000  0.018  0.021
   18  0.000  0.001  0.011  0.013
   19  0.003  0.000  0.016  0.019
   20  0.000  0.000  0.087  0.087
   21  0.014  0.001  0.027  0.042
   22  0.004  0.001  0.019  0.024
   23  0.014  0.001  0.027  0.042
   24  0.000  0.001  0.031  0.032
   25  0.000  0.001  0.009  0.010
   26  0.003  0.000  0.016  0.019
   27  0.004  0.001  0.019  0.024
   28  0.000  0.000  0.007  0.008
   29  0.005  0.001  0.006  0.011
   30  0.009  0.001  0.006  0.016
   31  0.005  0.001  0.006  0.011
   32  0.001  0.000  0.003  0.005
   33  0.009  0.001  0.006  0.016
   34  0.001  0.000  0.003  0.005
   35  0.000  0.000  0.002  0.003
   36  0.000  0.004  0.010  0.014
   37  0.000  0.000  0.000  0.000
tot    0.153  0.032  0.567  0.752
 
band    13 # energy   -6.10815855 # occ.  2.00000000
 
ion      s      p      d    tot
    1  0.000  0.001  0.004  0.005
    2  0.008  0.001  0.004  0.013
    3  0.000  0.000  0.004  0.005
    4  0.008  0.001  0.004  0.013
    5  0.000  0.001  0.009  0.011
    6  0.006  0.001  0.005  0.012
    7  0.000  0.000  0.004  0.005
    8  0.006  0.001  0.005  0.012
    9  0.000  0.000  0.008  0.008
   10  0.009  0.002  0.008  0.019
   11  0.006  0.000  0.038  0.045
   12  0.002  0.001  0.039  0.042
   13  0.006  0.000  0.038  0.045
   14  0.025  0.001  0.010  0.036
   15  0.001  0.001  0.014  0.015
   16  0.002  0.001  0.038  0.042
   17  0.001  0.001  0.014  0.015
   18  0.003  0.000  0.021  0.024
   19  0.001  0.001  0.012  0.013
   20  0.018  0.001  0.007  0.027
   21  0.005  0.000  0.067  0.072
   22  0.001  0.001  0.027  0.029
   23  0.005  0.000  0.067  0.072
   24  0.005  0.002  0.014  0.021
   25  0.003  0.000  0.019  0.022
   26  0.001  0.001  0.012  0.013
   27  0.001  0.001  0.027  0.029
   28  0.000  0.000  0.007  0.008
   29  0.005  0.001  0.004  0.010
   30  0.001  0.000  0.004  0.005
   31  0.005  0.001  0.004  0.010
   32  0.009  0.001  0.007  0.017
   33  0.001  0.000  0.004  0.005
   34  0.009  0.001  0.007  0.017
   35  0.000  0.000  0.002  0.003
   36  0.000  0.004  0.010  0.014
   37  0.000  0.000  0.000  0.000
tot    0.153  0.032  0.567  0.752
 
band    14 # energy   -6.09435433 # occ.  2.00000000
 
ion      s      p      d    tot
    1  0.016  0.002  0.001  0.019
    2  0.000  0.001  0.006  0.007
    3  0.000  0.001  0.006  0.007
    4  0.000  0.001  0.006  0.007
    5  0.002  0.000  0.002  0.004
    6  0.000  0.001  0.006  0.007
    7  0.000  0.001  0.006  0.007
    8  0.000  0.001  0.006  0.007
    9  0.006  0.000  0.000  0.007
   10  0.008  0.001  0.010  0.019
   11  0.007  0.001  0.032  0.040
   12  0.007  0.001  0.010  0.019
   13  0.007  0.001  0.032  0.040
   14  0.007  0.001  0.032  0.040
   15  0.000  0.000  0.029  0.030
   16  0.007  0.001  0.010  0.019
   17  0.000  0.000  0.029  0.030
   18  0.000  0.000  0.029  0.030
   19  0.008  0.001  0.004  0.013
   20  0.000  0.000  0.054  0.054
   21  0.000  0.000  0.054  0.054
   22  0.009  0.001  0.031  0.041
   23  0.000  0.000  0.054  0.054
   24  0.009  0.001  0.031  0.041
   25  0.008  0.001  0.004  0.013
   26  0.008  0.001  0.004  0.013
   27  0.009  0.001  0.031  0.041
   28  0.018  0.001  0.000  0.020
   29  0.000  0.001  0.010  0.011
   30  0.000  0.001  0.010  0.011
   31  0.000  0.001  0.010  0.011
   32  0.000  0.001  0.010  0.011
   33  0.000  0.001  0.010  0.011
   34  0.000  0.001  0.010  0.011
   35  0.001  0.000  0.004  0.005
   36  0.006  0.001  0.003  0.010
   37  0.001  0.000  0.000  0.001
tot    0.143  0.027  0.590  0.760
 
band    15 # energy   -6.03074477 # occ.  2.00000000
 
ion      s      p      d    tot
    1  0.000  0.000  0.002  0.002
    2  0.000  0.001  0.009  0.010
    3  0.000  0.001  0.009  0.010
    4  0.000  0.001  0.009  0.010
    5  0.017  0.001  0.000  0.019
    6  0.000  0.001  0.009  0.010
    7  0.000  0.001  0.009  0.010
    8  0.000  0.001  0.009  0.010
    9  0.013  0.002  0.002  0.016
   10  0.003  0.000  0.041  0.044
   11  0.004  0.001  0.022  0.027
   12  0.002  0.000  0.042  0.044
   13  0.004  0.001  0.022  0.027
   14  0.004  0.001  0.022  0.027
   15  0.012  0.002  0.012  0.026
   16  0.002  0.000  0.042  0.044
   17  0.012  0.002  0.012  0.026
   18  0.012  0.002  0.012  0.026
   19  0.005  0.000  0.035  0.039
   20  0.009  0.002  0.015  0.026
   21  0.009  0.002  0.015  0.026
   22  0.003  0.001  0.024  0.027
   23  0.009  0.002  0.015  0.026
   24  0.003  0.001  0.024  0.027
   25  0.005  0.000  0.035  0.039
   26  0.005  0.000  0.035  0.039
   27  0.003  0.001  0.024  0.027
   28  0.000  0.000  0.003  0.003
   29  0.000  0.000  0.008  0.008
   30  0.000  0.000  0.008  0.008
   31  0.000  0.000  0.008  0.008
   32  0.000  0.000  0.008  0.008
   33  0.000  0.000  0.008  0.008
   34  0.000  0.000  0.008  0.008
   35  0.008  0.001  0.001  0.010
   36  0.011  0.008  0.001  0.021
   37  0.008  0.000  0.000  0.008
tot    0.163  0.038  0.553  0.755
 
band    16 # energy   -6.00619852 # occ.  2.00000000
 
ion      s      p      d    tot
    1  0.000  0.001  0.014  0.015
    2  0.009  0.001  0.004  0.014
    3  0.001  0.000  0.005  0.006
    4  0.009  0.001  0.004  0.014
    5  0.000  0.000  0.006  0.006
    6  0.005  0.001  0.005  0.010
    7  0.001  0.000  0.005  0.006
    8  0.005  0.001  0.005  0.010
    9  0.000  0.001  0.005  0.007
   10  0.000  0.001  0.033  0.034
   11  0.000  0.001  0.020  0.021
   12  0.009  0.000  0.021  0.031
   13  0.000  0.001  0.020  0.021
   14  0.000  0.001  0.015  0.017
   15  0.009  0.002  0.020  0.031
   16  0.009  0.000  0.021  0.031
   17  0.009  0.002  0.019  0.031
   18  0.000  0.000  0.060  0.060
   19  0.015  0.001  0.020  0.035
   20  0.000  0.002  0.023  0.025
   21  0.000  0.001  0.026  0.027
   22  0.017  0.001  0.020  0.037
   23  0.000  0.001  0.026  0.027
   24  0.000  0.001  0.028  0.028
   25  0.000  0.000  0.067  0.068
   26  0.015  0.001  0.020  0.035
   27  0.016  0.001  0.020  0.037
   28  0.000  0.001  0.005  0.006
   29  0.005  0.001  0.004  0.009
   30  0.000  0.000  0.006  0.007
   31  0.005  0.001  0.004  0.009
   32  0.005  0.001  0.003  0.009
   33  0.000  0.000  0.006  0.007
   34  0.005  0.001  0.003  0.009
   35  0.000  0.001  0.008  0.009
   36  0.000  0.000  0.003  0.003
   37  0.000  0.000  0.000  0.000
tot    0.147  0.028  0.575  0.751
 
band    17 # energy   -6.00617260 # occ.  2.00000000
 
ion      s      p      d    tot
    1  0.000  0.001  0.014  0.015
    2  0.001  0.001  0.005  0.006
    3  0.009  0.001  0.004  0.014
    4  0.001  0.001  0.005  0.006
    5  0.000  0.000  0.006  0.006
    6  0.005  0.001  0.004  0.010
    7  0.009  0.001  0.004  0.014
    8  0.005  0.001  0.004  0.010
    9  0.000  0.001  0.005  0.007
   10  0.012  0.000  0.017  0.029
   11  0.000  0.001  0.017  0.018
   12  0.003  0.000  0.029  0.033
   13  0.000  0.001  0.017  0.018
   14  0.000  0.001  0.022  0.023
   15  0.003  0.001  0.046  0.050
   16  0.003  0.000  0.029  0.033
   17  0.003  0.001  0.046  0.050
   18  0.012  0.002  0.006  0.021
   19  0.005  0.001  0.051  0.057
   20  0.000  0.000  0.027  0.027
   21  0.000  0.001  0.024  0.026
   22  0.005  0.001  0.025  0.031
   23  0.000  0.001  0.024  0.026
   24  0.022  0.001  0.018  0.040
   25  0.019  0.001  0.004  0.024
   26  0.005  0.001  0.051  0.057
   27  0.006  0.001  0.025  0.031
   28  0.000  0.001  0.005  0.006
   29  0.002  0.000  0.005  0.007
   30  0.007  0.001  0.002  0.010
   31  0.002  0.000  0.005  0.007
   32  0.002  0.001  0.005  0.008
   33  0.007  0.001  0.002  0.010
   34  0.002  0.001  0.005  0.008
   35  0.000  0.001  0.008  0.009
   36  0.000  0.000  0.003  0.003
   37  0.000  0.000  0.000  0.000
tot    0.147  0.028  0.575  0.751
 
band    18 # energy   -5.74111962 # occ.  2.00000000
 
ion      s      p      d    tot
    1  0.000  0.000  0.019  0.019
    2  0.003  0.001  0.007  0.010
    3  0.002  0.000  0.010  0.012
    4  0.003  0.001  0.007  0.010
    5  0.000  0.001  0.015  0.016
    6  0.009  0.001  0.007  0.017
    7  0.002  0.000  0.010  0.012
    8  0.009  0.001  0.007  0.017
    9  0.000  0.001  0.004  0.005
   10  0.000  0.001  0.023  0.024
   11  0.000  0.000  0.046  0.047
   12  0.000  0.000  0.011  0.012
   13  0.000  0.000  0.046  0.047
   14  0.001  0.000  0.044  0.046
   15  0.000  0.000  0.009  0.009
   16  0.000  0.000  0.011  0.012
   17  0.000  0.000  0.009  0.009
   18  0.000  0.000  0.015  0.015
   19  0.000  0.000  0.008  0.008
   20  0.001  0.000  0.103  0.105
   21  0.000  0.001  0.061  0.062
   22  0.000  0.000  0.022  0.022
   23  0.000  0.001  0.061  0.062
   24  0.001  0.000  0.014  0.016
   25  0.000  0.000  0.015  0.015
   26  0.000  0.000  0.008  0.008
   27  0.000  0.000  0.022  0.022
   28  0.000  0.001  0.003  0.003
   29  0.011  0.001  0.023  0.035
   30  0.002  0.000  0.013  0.016
   31  0.011  0.001  0.023  0.035
   32  0.003  0.001  0.009  0.012
   33  0.002  0.000  0.013  0.016
   34  0.003  0.001  0.009  0.012
   35  0.000  0.000  0.019  0.019
   36  0.000  0.004  0.018  0.022
   37  0.000  0.000  0.000  0.000
tot    0.067  0.019  0.745  0.831
 
band    19 # energy   -5.74109286 # occ.  2.00000000
 
ion      s      p      d    tot
    1  0.000  0.000  0.019  0.019
    2  0.006  0.000  0.009  0.016
    3  0.008  0.001  0.006  0.015
    4  0.006  0.000  0.009  0.016
    5  0.000  0.001  0.015  0.016
    6  0.000  0.000  0.008  0.009
    7  0.008  0.001  0.006  0.015
    8  0.000  0.000  0.008  0.009
    9  0.000  0.001  0.004  0.005
   10  0.000  0.000  0.008  0.008
   11  0.001  0.000  0.045  0.047
   12  0.000  0.000  0.019  0.020
   13  0.001  0.000  0.045  0.047
   14  0.000  0.000  0.047  0.047
   15  0.000  0.000  0.013  0.013
   16  0.000  0.000  0.019  0.020
   17  0.000  0.000  0.013  0.013
   18  0.000  0.000  0.007  0.007
   19  0.000  0.000  0.012  0.013
   20  0.000  0.001  0.048  0.049
   21  0.001  0.000  0.089  0.091
   22  0.001  0.000  0.017  0.018
   23  0.001  0.000  0.089  0.090
   24  0.000  0.000  0.024  0.024
   25  0.000  0.000  0.005  0.005
   26  0.000  0.000  0.012  0.013
   27  0.001  0.000  0.017  0.018
   28  0.000  0.001  0.003  0.003
   29  0.000  0.000  0.007  0.007
   30  0.008  0.001  0.017  0.026
   31  0.000  0.000  0.007  0.007
   32  0.008  0.001  0.021  0.030
   33  0.008  0.001  0.017  0.026
   34  0.008  0.001  0.021  0.030
   35  0.000  0.000  0.019  0.019
   36  0.000  0.004  0.018  0.022
   37  0.000  0.000  0.000  0.000
tot    0.067  0.019  0.745  0.831
 
band    20 # energy   -5.73616585 # occ.  2.00000000
 
ion      s      p      d    tot
    1  0.010  0.000  0.006  0.016
    2  0.000  0.001  0.016  0.017
    3  0.000  0.001  0.016  0.017
    4  0.000  0.001  0.016  0.017
    5  0.002  0.000  0.002  0.004
    6  0.000  0.001  0.016  0.017
    7  0.000  0.001  0.016  0.017
    8  0.000  0.001  0.016  0.017
    9  0.023  0.001  0.002  0.026
   10  0.001  0.000  0.017  0.019
   11  0.000  0.000  0.020  0.020
   12  0.001  0.000  0.017  0.019
   13  0.000  0.000  0.020  0.020
   14  0.000  0.000  0.020  0.020
   15  0.000  0.000  0.030  0.031
   16  0.001  0.000  0.017  0.019
   17  0.000  0.000  0.030  0.031
   18  0.000  0.000  0.030  0.031
   19  0.000  0.000  0.027  0.027
   20  0.000  0.000  0.037  0.038
   21  0.000  0.000  0.038  0.038
   22  0.000  0.000  0.028  0.028
   23  0.000  0.000  0.038  0.038
   24  0.000  0.000  0.028  0.028
   25  0.000  0.000  0.027  0.027
   26  0.000  0.000  0.027  0.027
   27  0.000  0.000  0.028  0.028
   28  0.001  0.000  0.011  0.011
   29  0.000  0.001  0.022  0.023
   30  0.000  0.001  0.022  0.023
   31  0.000  0.001  0.022  0.023
   32  0.000  0.001  0.022  0.023
   33  0.000  0.001  0.022  0.023
   34  0.000  0.001  0.022  0.023
   35  0.016  0.001  0.000  0.017
   36  0.012  0.000  0.013  0.024
   37  0.000  0.000  0.000  0.000
tot    0.070  0.017  0.739  0.826
 
band    21 # energy   -5.66896054 # occ.  2.00000000
 
ion      s      p      d    tot
    1  0.008  0.001  0.000  0.008
    2  0.000  0.001  0.014  0.014
    3  0.000  0.001  0.014  0.014
    4  0.000  0.001  0.014  0.014
    5  0.013  0.000  0.009  0.021
    6  0.000  0.001  0.013  0.014
    7  0.000  0.001  0.014  0.014
    8  0.000  0.001  0.013  0.014
    9  0.001  0.000  0.009  0.010
   10  0.000  0.000  0.024  0.025
   11  0.000  0.000  0.027  0.028
   12  0.000  0.000  0.024  0.025
   13  0.000  0.000  0.027  0.028
   14  0.000  0.000  0.027  0.028
   15  0.000  0.000  0.031  0.032
   16  0.000  0.000  0.024  0.025
   17  0.000  0.000  0.031  0.032
   18  0.000  0.000  0.031  0.032
   19  0.000  0.000  0.024  0.024
   20  0.000  0.000  0.028  0.028
   21  0.000  0.000  0.028  0.028
   22  0.001  0.000  0.027  0.028
   23  0.000  0.000  0.028  0.028
   24  0.001  0.000  0.027  0.028
   25  0.000  0.000  0.024  0.024
   26  0.000  0.000  0.024  0.024
   27  0.001  0.000  0.027  0.028
   28  0.021  0.000  0.005  0.026
   29  0.000  0.000  0.026  0.026
   30  0.000  0.000  0.026  0.026
   31  0.000  0.000  0.026  0.026
   32  0.000  0.000  0.026  0.026
   33  0.000  0.000  0.026  0.026
   34  0.000  0.000  0.026  0.026
   35  0.014  0.000  0.008  0.021
   36  0.001  0.002  0.000  0.003