 vasp.6.2.0 18Jan21 (build Jun 12 2021 23:27:24) complex                        
  
 executed on             LinuxIFC date 2022.05.30  18:30:07
 running on   28 total cores
 distrk:  each k-point on   28 cores,    1 groups
 distr:  one band on NCORE=   1 cores,   28 groups


--------------------------------------------------------------------------------------------------------


 INCAR:
   ISMEAR = -5
   SIGMA = 0.1
   ISPIN = 1
   EDIFF = 1.d-5
   EDIFFG = -0.01
   NSW = 0
   NELM = 150
   ENCUT = 500
   ISIF = 2
   IBRION = 2
   LREAL = Auto
   ALGO = Fast
   ICHARG = 11
   LORBIT = 10
   LCHARG = .F.
   LWAVE = .F.

 POTCAR:    PAW_PBE Cu 22Jun2005                  
 POTCAR:    PAW_PBE Hf 20Jan2003                  
 POTCAR:    PAW_PBE C 08Apr2002                   
 POTCAR:    PAW_PBE O 08Apr2002                   
 POTCAR:    PAW_PBE H 15Jun2001                   
 -----------------------------------------------------------------------------
|                                                                             |
|           W    W    AA    RRRRR   N    N  II  N    N   GGGG   !!!           |
|           W    W   A  A   R    R  NN   N  II  NN   N  G    G  !!!           |
|           W    W  A    A  R    R  N N  N  II  N N  N  G       !!!           |
|           W WW W  AAAAAA  RRRRR   N  N N  II  N  N N  G  GGG   !            |
|           WW  WW  A    A  R   R   N   NN  II  N   NN  G    G                |
|           W    W  A    A  R    R  N    N  II  N    N   GGGG   !!!           |
|                                                                             |
|     For optimal performance we recommend to set                             |
|       NCORE = 2 up to number-of-cores-per-socket                            |
|     NCORE specifies how many cores store one orbital (NPAR=cpu/NCORE).      |
|     This setting can greatly improve the performance of VASP for DFT.       |
|     The default, NCORE=1 might be grossly inefficient on modern             |
|     multi-core architectures or massively parallel machines. Do your        |
|     own testing! More info at https://www.vasp.at/wiki/index.php/NCORE      |
|     Unfortunately you need to use the default for GW and RPA                |
|     calculations (for HF NCORE is supported but not extensively tested      |
|     yet).                                                                   |
|                                                                             |
 -----------------------------------------------------------------------------

 POTCAR:    PAW_PBE Cu 22Jun2005                  
   VRHFIN =Cu: d10 p1                                                                               
   LEXCH  = PE                                                                                      
   EATOM  =  1390.9808 eV,  102.2342 Ry                                                             
                                                                                                    
   TITEL  = PAW_PBE Cu 22Jun2005                                                                    
   LULTRA =        F    use ultrasoft PP ?                                                          
   IUNSCR =        1    unscreen: 0-lin 1-nonlin 2-no                                               
   RPACOR =    2.000    partial core radius                                                         
   POMASS =   63.546; ZVAL   =   11.000    mass and valenz                                          
   RCORE  =    2.300    outmost cutoff radius                                                       
   RWIGS  =    2.200; RWIGS  =    1.164    wigner-seitz radius (au A)                               
   ENMAX  =  295.446; ENMIN  =  221.585 eV                                                          
   ICORE  =        3    local potential                                                             
   LCOR   =        T    correct aug charges                                                         
   LPAW   =        T    paw PP                                                                      
   EAUG   =  586.980                                                                                
   DEXC   =    0.000                                                                                
   RMAX   =    2.344    core radius for proj-oper                                                   
   RAUG   =    1.300    factor for augmentation sphere                                              
   RDEP   =    2.302    radius for radial grids                                                     
   RDEPT  =    1.771    core radius for aug-charge                                                  
                                                                                                    
   Atomic configuration                                                                             
    9 entries                                                                                       
     n  l   j            E        occ.                                                              
     1  0  0.50     -8850.2468   2.0000                                                             
     2  0  0.50     -1062.3498   2.0000                                                             
     2  1  1.50      -916.8226   6.0000                                                             
     3  0  0.50      -114.6929   2.0000                                                             
     3  1  1.50       -72.1325   6.0000                                                             
     3  2  2.50        -5.0394  10.0000                                                             
     4  0  0.50        -4.6097   1.0000                                                             
     4  1  0.50        -4.0817   0.0000                                                             
     4  3  2.50        -1.3606   0.0000                                                             
   Description                                                                                      
     l       E           TYP  RCUT    TYP  RCUT                                                     
     2     -5.0393973     23  2.200                                                                 
     2     10.8846608     23  2.200                                                                 
     0     -4.6097109     23  2.200                                                                 
     0      8.2520465     23  2.200                                                                 
     1     -2.7211652     23  2.200                                                                 
     1     21.7055443     23  2.200                                                                 
     3      2.7211652     23  2.300                                                                 
  local pseudopotential read in
  partial core-charges read in
  partial kinetic energy density read in
  atomic valenz-charges read in
  non local Contribution for L=           2  read in
    real space projection operators read in
  non local Contribution for L=           2  read in
    real space projection operators read in
  non local Contribution for L=           0  read in
    real space projection operators read in
  non local Contribution for L=           0  read in
    real space projection operators read in
  non local Contribution for L=           1  read in
    real space projection operators read in
  non local Contribution for L=           1  read in
    real space projection operators read in
    PAW grid and wavefunctions read in
 
   number of l-projection  operators is LMAX  =           6
   number of lm-projection operators is LMMAX =          18
 
 POTCAR:    PAW_PBE Hf 20Jan2003                  
   VRHFIN =Hf: 6s5d                                                                                 
   LEXCH  = PE                                                                                      
   EATOM  =    75.9011 eV,    5.5786 Ry                                                             
                                                                                                    
   TITEL  = PAW_PBE Hf 20Jan2003                                                                    
   LULTRA =        F    use ultrasoft PP ?                                                          
   IUNSCR =        1    unscreen: 0-lin 1-nonlin 2-no                                               
   RPACOR =    2.500    partial core radius                                                         
   POMASS =  178.490; ZVAL   =    4.000    mass and valenz                                          
   RCORE  =    3.000    outmost cutoff radius                                                       
   RWIGS  =    3.050; RWIGS  =    1.614    wigner-seitz radius (au A)                               
   ENMAX  =  220.334; ENMIN  =  165.250 eV                                                          
   RCLOC  =    2.212    cutoff for local pot                                                        
   LCOR   =        T    correct aug charges                                                         
   LPAW   =        T    paw PP                                                                      
   EAUG   =  335.116                                                                                
   DEXC   =    0.000                                                                                
   RMAX   =    3.077    core radius for proj-oper                                                   
   RAUG   =    1.300    factor for augmentation sphere                                              
   RDEP   =    3.047    radius for radial grids                                                     
   RDEPT  =    2.344    core radius for aug-charge                                                  
                                                                                                    
   Atomic configuration                                                                             
   16 entries                                                                                       
     n  l   j            E        occ.                                                              
     1  0  0.50    -65259.4397   2.0000                                                             
     2  0  0.50    -11157.9882   2.0000                                                             
     2  1  1.50     -9795.2113   6.0000                                                             
     3  0  0.50     -2541.4058   2.0000                                                             
     3  1  1.50     -2134.4770   6.0000                                                             
     3  2  2.50     -1653.5418  10.0000                                                             
     4  0  0.50      -510.9575   2.0000                                                             
     4  1  1.50      -377.5023   6.0000                                                             
     4  2  2.50      -205.2085  10.0000                                                             
     4  3  3.50       -15.4905  14.0000                                                             
     5  0  0.50       -65.6020   2.0000                                                             
     5  1  1.50       -34.2798   6.0000                                                             
     5  2  2.50        -1.9877   3.0000                                                             
     6  0  0.50        -4.7357   1.0000                                                             
     6  1  1.50        -1.3606   0.0000                                                             
     5  3  2.50        -1.3606   0.0000                                                             
   Description                                                                                      
     l       E           TYP  RCUT    TYP  RCUT                                                     
     2     -1.9876627     23  2.500                                                                 
     2      0.0744703     23  2.500                                                                 
     0     -4.7356889     23  2.600                                                                 
     0      3.2364747     23  2.600                                                                 
     1     -1.3605826     23  3.000                                                                 
     1     27.2116520     23  3.000                                                                 
  local pseudopotential read in
  partial core-charges read in
  partial kinetic energy density read in
  atomic valenz-charges read in
  non local Contribution for L=           2  read in
    real space projection operators read in
  non local Contribution for L=           2  read in
    real space projection operators read in
  non local Contribution for L=           0  read in
    real space projection operators read in
  non local Contribution for L=           0  read in
    real space projection operators read in
  non local Contribution for L=           1  read in
    real space projection operators read in
  non local Contribution for L=           1  read in
    real space projection operators read in
    PAW grid and wavefunctions read in
 
   number of l-projection  operators is LMAX  =           6
   number of lm-projection operators is LMMAX =          18
 
 POTCAR:    PAW_PBE C 08Apr2002                   
   VRHFIN =C: s2p2                                                                                  
   LEXCH  = PE                                                                                      
   EATOM  =   147.1560 eV,   10.8157 Ry                                                             
                                                                                                    
   TITEL  = PAW_PBE C 08Apr2002                                                                     
   LULTRA =        F    use ultrasoft PP ?                                                          
   IUNSCR =        1    unscreen: 0-lin 1-nonlin 2-no                                               
   RPACOR =    1.200    partial core radius                                                         
   POMASS =   12.011; ZVAL   =    4.000    mass and valenz                                          
   RCORE  =    1.500    outmost cutoff radius                                                       
   RWIGS  =    1.630; RWIGS  =    0.863    wigner-seitz radius (au A)                               
   ENMAX  =  400.000; ENMIN  =  300.000 eV                                                          
   ICORE  =        2    local potential                                                             
   LCOR   =        T    correct aug charges                                                         
   LPAW   =        T    paw PP                                                                      
   EAUG   =  644.873                                                                                
   DEXC   =    0.000                                                                                
   RMAX   =    1.529    core radius for proj-oper                                                   
   RAUG   =    1.300    factor for augmentation sphere                                              
   RDEP   =    1.501    radius for radial grids                                                     
   RDEPT  =    1.300    core radius for aug-charge                                                  
                                                                                                    
   Atomic configuration                                                                             
    4 entries                                                                                       
     n  l   j            E        occ.                                                              
     1  0  0.50      -273.3789   2.0000                                                             
     2  0  0.50       -13.7508   2.0000                                                             
     2  1  0.50        -5.2854   2.0000                                                             
     3  2  1.50        -5.4423   0.0000                                                             
   Description                                                                                      
     l       E           TYP  RCUT    TYP  RCUT                                                     
     0    -13.7508458     23  1.200                                                                 
     0     -8.2022199     23  1.200                                                                 
     1     -5.2854383     23  1.500                                                                 
     1     34.0145650     23  1.500                                                                 
     2     -5.4423304      7  1.500                                                                 
  local pseudopotential read in
  partial core-charges read in
  partial kinetic energy density read in
  atomic valenz-charges read in
  non local Contribution for L=           0  read in
    real space projection operators read in
  non local Contribution for L=           0  read in
    real space projection operators read in
  non local Contribution for L=           1  read in
    real space projection operators read in
  non local Contribution for L=           1  read in
    real space projection operators read in
    PAW grid and wavefunctions read in
 
   number of l-projection  operators is LMAX  =           4
   number of lm-projection operators is LMMAX =           8
 
 POTCAR:    PAW_PBE O 08Apr2002                   
   VRHFIN =O: s2p4                                                                                  
   LEXCH  = PE                                                                                      
   EATOM  =   432.3788 eV,   31.7789 Ry                                                             
                                                                                                    
   TITEL  = PAW_PBE O 08Apr2002                                                                     
   LULTRA =        F    use ultrasoft PP ?                                                          
   IUNSCR =        1    unscreen: 0-lin 1-nonlin 2-no                                               
   RPACOR =    1.200    partial core radius                                                         
   POMASS =   16.000; ZVAL   =    6.000    mass and valenz                                          
   RCORE  =    1.520    outmost cutoff radius                                                       
   RWIGS  =    1.550; RWIGS  =    0.820    wigner-seitz radius (au A)                               
   ENMAX  =  400.000; ENMIN  =  300.000 eV                                                          
   ICORE  =        2    local potential                                                             
   LCOR   =        T    correct aug charges                                                         
   LPAW   =        T    paw PP                                                                      
   EAUG   =  605.392                                                                                
   DEXC   =    0.000                                                                                
   RMAX   =    1.553    core radius for proj-oper                                                   
   RAUG   =    1.300    factor for augmentation sphere                                              
   RDEP   =    1.550    radius for radial grids                                                     
   RDEPT  =    1.329    core radius for aug-charge                                                  
                                                                                                    
   Atomic configuration                                                                             
    4 entries                                                                                       
     n  l   j            E        occ.                                                              
     1  0  0.50      -514.6923   2.0000                                                             
     2  0  0.50       -23.9615   2.0000                                                             
     2  1  0.50        -9.0305   4.0000                                                             
     3  2  1.50        -9.5241   0.0000                                                             
   Description                                                                                      
     l       E           TYP  RCUT    TYP  RCUT                                                     
     0    -23.9615318     23  1.200                                                                 
     0     -9.5240782     23  1.200                                                                 
     1     -9.0304911     23  1.520                                                                 
     1      8.1634956     23  1.520                                                                 
     2     -9.5240782      7  1.500                                                                 
  local pseudopotential read in
  partial core-charges read in
  partial kinetic energy density read in
  kinetic energy density of atom read in
  atomic valenz-charges read in
  non local Contribution for L=           0  read in
    real space projection operators read in
  non local Contribution for L=           0  read in
    real space projection operators read in
  non local Contribution for L=           1  read in
    real space projection operators read in
  non local Contribution for L=           1  read in
    real space projection operators read in
    PAW grid and wavefunctions read in
 
   number of l-projection  operators is LMAX  =           4
   number of lm-projection operators is LMMAX =           8
 
 POTCAR:    PAW_PBE H 15Jun2001                   
   VRHFIN =H: ultrasoft test                                                                        
   LEXCH  = PE                                                                                      
   EATOM  =    12.4884 eV,    0.9179 Ry                                                             
                                                                                                    
   TITEL  = PAW_PBE H 15Jun2001                                                                     
   LULTRA =        F    use ultrasoft PP ?                                                          
   IUNSCR =        0    unscreen: 0-lin 1-nonlin 2-no                                               
   RPACOR =    0.000    partial core radius                                                         
   POMASS =    1.000; ZVAL   =    1.000    mass and valenz                                          
   RCORE  =    1.100    outmost cutoff radius                                                       
   RWIGS  =    0.700; RWIGS  =    0.370    wigner-seitz radius (au A)                               
   ENMAX  =  250.000; ENMIN  =  200.000 eV                                                          
   RCLOC  =    0.701    cutoff for local pot                                                        
   LCOR   =        T    correct aug charges                                                         
   LPAW   =        T    paw PP                                                                      
   EAUG   =  400.000                                                                                
   RMAX   =    1.123    core radius for proj-oper                                                   
   RAUG   =    1.200    factor for augmentation sphere                                              
   RDEP   =    1.112    radius for radial grids                                                     
   RDEPT  =    0.926    core radius for aug-charge                                                  
                                                                                                    
   Atomic configuration                                                                             
    2 entries                                                                                       
     n  l   j            E        occ.                                                              
     1  0  0.50        -6.4927   1.0000                                                             
     2  1  0.50        -3.4015   0.0000                                                             
   Description                                                                                      
     l       E           TYP  RCUT    TYP  RCUT                                                     
     0     -6.4927494     23  1.100                                                                 
     0      6.8029130     23  1.100                                                                 
     1     -4.0817478     23  1.100                                                                 
  local pseudopotential read in
  atomic valenz-charges read in
  non local Contribution for L=           0  read in
    real space projection operators read in
  non local Contribution for L=           0  read in
    real space projection operators read in
  non local Contribution for L=           1  read in
    real space projection operators read in
    PAW grid and wavefunctions read in
 
   number of l-projection  operators is LMAX  =           3
   number of lm-projection operators is LMMAX =           5
 
 Optimization of the real space projectors (new method)

 maximal supplied QI-value         = 16.25
 optimisation between [QCUT,QGAM] = [ 11.38, 22.75] = [ 36.24,144.96] Ry 
 Optimized for a Real-space Cutoff    1.52 Angstroem

   l    n(q)    QCUT    max X(q) W(low)/X(q) W(high)/X(q)  e(spline) 
   2      9    11.376     4.610    0.21E-03    0.10E-03    0.26E-06
   2      9    11.376     8.522    0.33E-03    0.16E-03    0.37E-06
   0     10    11.376    51.609    0.62E-04    0.20E-04    0.13E-06
   0     10    11.376    27.747    0.54E-04    0.20E-04    0.13E-06
   1     10    11.376    20.408    0.13E-04    0.99E-04    0.19E-06
   1     10    11.376    13.425    0.12E-04    0.87E-04    0.17E-06
 Optimization of the real space projectors (new method)

 maximal supplied QI-value         = 12.47
 optimisation between [QCUT,QGAM] = [ 11.35, 22.82] = [ 36.07,145.88] Ry 
 Optimized for a Real-space Cutoff    1.66 Angstroem

   l    n(q)    QCUT    max X(q) W(low)/X(q) W(high)/X(q)  e(spline) 
   2     10    11.350    48.111    0.20E-03    0.11E-03    0.41E-06
   2     10    11.350    40.545    0.19E-03    0.10E-03    0.39E-06
   0     11    11.350   121.658    0.22E-04    0.19E-04    0.24E-06
   0     11    11.350    71.177    0.17E-04    0.17E-04    0.23E-06
   1     11    11.350    14.183    0.25E-03    0.43E-03    0.12E-05
   1     11    11.350     8.257    0.17E-03    0.29E-03    0.81E-06
 Optimization of the real space projectors (new method)

 maximal supplied QI-value         = 25.13
 optimisation between [QCUT,QGAM] = [ 11.31, 22.87] = [ 35.82,146.48] Ry 
 Optimized for a Real-space Cutoff    1.00 Angstroem

   l    n(q)    QCUT    max X(q) W(low)/X(q) W(high)/X(q)  e(spline) 
   0      7    11.310   115.676    0.43E-03    0.13E-02    0.19E-06
   0      7    11.310    87.132    0.43E-03    0.13E-02    0.18E-06
   1      6    11.310     4.429    0.42E-03    0.74E-03    0.11E-06
   1      6    11.310     2.733    0.34E-03    0.55E-03    0.92E-07
 Optimization of the real space projectors (new method)

 maximal supplied QI-value         = 24.76
 optimisation between [QCUT,QGAM] = [ 11.39, 22.77] = [ 36.31,145.25] Ry 
 Optimized for a Real-space Cutoff    1.00 Angstroem

   l    n(q)    QCUT    max X(q) W(low)/X(q) W(high)/X(q)  e(spline) 
   0      7    11.387    20.381    0.39E-03    0.13E-02    0.15E-06
   0      7    11.387    15.268    0.42E-03    0.14E-02    0.17E-06
   1      6    11.387     5.964    0.41E-03    0.11E-02    0.17E-06
   1      6    11.387     5.382    0.39E-03    0.87E-03    0.15E-06
 Optimization of the real space projectors (new method)

 maximal supplied QI-value         = 34.20
 optimisation between [QCUT,QGAM] = [ 11.29, 22.57] = [ 35.68,142.71] Ry 
 Optimized for a Real-space Cutoff    1.16 Angstroem

   l    n(q)    QCUT    max X(q) W(low)/X(q) W(high)/X(q)  e(spline) 
   0      8    11.287    19.460    0.40E-03    0.73E-03    0.16E-06
   0      8    11.287    12.209    0.38E-03    0.70E-03    0.15E-06
   1      7    11.287     4.655    0.22E-03    0.25E-04    0.22E-06
  PAW_PBE Cu 22Jun2005                  :
 energy of atom  1       EATOM=-1390.9808
 kinetic energy error for atom=    0.0043 (will be added to EATOM!!)
  PAW_PBE Hf 20Jan2003                  :
 energy of atom  2       EATOM=  -75.9011
 kinetic energy error for atom=    0.0007 (will be added to EATOM!!)
  PAW_PBE C 08Apr2002                   :
 energy of atom  3       EATOM= -147.1560
 kinetic energy error for atom=    0.0076 (will be added to EATOM!!)
  PAW_PBE O 08Apr2002                   :
 energy of atom  4       EATOM= -432.3788
 kinetic energy error for atom=    0.0224 (will be added to EATOM!!)
  PAW_PBE H 15Jun2001                   :
 energy of atom  5       EATOM=  -12.4884
 kinetic energy error for atom=    0.0020 (will be added to EATOM!!)
 
 
 POSCAR: Cu-Hf-COH
  positions in direct lattice
  velocities in cartesian coordinates
 exchange correlation table for  LEXCH =        8
   RHO(1)=    0.500       N(1)  =     2000
   RHO(2)=  100.500       N(2)  =     4000

 VTST: version 3.2, (02/03/18)

 CHAIN: initializing optimizer
 
 OPT: Using VASP Conjugate-Gradient optimizer
 CHAIN: Read ICHAIN            0
 
 POSCAR: Cu-Hf-COH
  positions in direct lattice
  velocities in cartesian coordinates
 


--------------------------------------------------------------------------------------------------------


 ion  position               nearest neighbor table
   1  0.000  0.000  0.206-   7 2.57   3 2.57   4 2.57   2 2.57   6 2.57   8 2.57  12 2.57  10 2.57
                            16 2.57
   2  0.333  0.000  0.206-   8 2.57   9 2.57   5 2.57   1 2.57   3 2.57  11 2.57   4 2.57  10 2.57
                            17 2.57
   3  0.667  0.000  0.206-   1 2.57   7 2.57   6 2.57   9 2.57   2 2.57  12 2.57   5 2.57  18 2.57
                            11 2.57
   4  0.000  0.333  0.206-   5 2.57   6 2.57   1 2.57   7 2.57   2 2.57  13 2.57   9 2.57  10 2.57
                            15 2.57
   5  0.333  0.333  0.206-   4 2.57   2 2.57   7 2.57  13 2.57   8 2.57   6 2.57   3 2.57  11 2.57
                            14 2.57
   6  0.667  0.333  0.206-   4 2.57   9 2.57  15 2.57   3 2.57   1 2.57   8 2.57  14 2.57   5 2.57
                            12 2.57
   7  0.000  0.667  0.206-   1 2.57   3 2.57  16 2.57  18 2.57   4 2.57   5 2.57   8 2.57   9 2.57
                            13 2.57
   8  0.333  0.667  0.206-   9 2.57   2 2.57  17 2.57   6 2.57   1 2.57   7 2.57   5 2.57  14 2.57
                            16 2.57
   9  0.667  0.667  0.206-   8 2.57   6 2.57   2 2.57  17 2.57   3 2.57   7 2.57   4 2.57  15 2.57
                            18 2.57
  10  0.111  0.111  0.286-  26 2.54  19 2.54  11 2.57  12 2.57  13 2.57   1 2.57   2 2.57   4 2.57
                            15 2.57  16 2.57  17 2.57  20 2.58
  11  0.444  0.111  0.286-  27 2.56  10 2.57  13 2.57   2 2.57  17 2.57  14 2.57  12 2.57   5 2.57
                             3 2.57  18 2.57  20 2.57  21 2.57
  12  0.778  0.111  0.286-  19 2.54  25 2.54  15 2.57  10 2.57  14 2.57  18 2.57   3 2.57   1 2.57
                            16 2.57  11 2.57   6 2.57  21 2.58
  13  0.111  0.444  0.286-  22 2.56  16 2.57  18 2.57  10 2.57  11 2.57  14 2.57   5 2.57   4 2.57
                             7 2.57  15 2.57  23 2.57  20 2.57
  14  0.444  0.444  0.286-  24 2.56  15 2.57  17 2.57  12 2.57  16 2.57  13 2.57  11 2.57   6 2.57
                             8 2.57   5 2.57  21 2.57  23 2.57
  15  0.778  0.444  0.286-  19 2.55  24 2.56  22 2.56  14 2.57  17 2.57  12 2.57   6 2.57  18 2.57
                            10 2.57   9 2.57  13 2.57   4 2.57
  16  0.111  0.778  0.286-  25 2.54  26 2.54  18 2.57  13 2.57   7 2.57  14 2.57  17 2.57  12 2.57
                            10 2.57   8 2.57   1 2.57  23 2.58
  17  0.444  0.778  0.286-  26 2.55  27 2.56  24 2.56  14 2.57  15 2.57   8 2.57   9 2.57  11 2.57
                            16 2.57  18 2.57  10 2.57   2 2.57
  18  0.778  0.778  0.286-  25 2.55  22 2.56  27 2.56  16 2.57  13 2.57   7 2.57  15 2.57  12 2.57
                            17 2.57   9 2.57   3 2.57  11 2.57
  19  0.889  0.221  0.365-  12 2.54  10 2.54  15 2.55  25 2.56  26 2.56  32 2.57  31 2.57  22 2.57
                            24 2.57  21 2.57  20 2.57  28 2.57
  20  0.223  0.223  0.366-  23 2.55  21 2.55  27 2.57  22 2.57  26 2.57  19 2.57  11 2.57  13 2.57
                            10 2.58  29 2.58  31 2.58  36 2.77
  21  0.555  0.223  0.366-  20 2.55  23 2.55  24 2.57  27 2.57  19 2.57  25 2.57  14 2.57  11 2.57
                            12 2.58  32 2.58  30 2.58  36 2.77
  22  0.889  0.556  0.366-  18 2.56  15 2.56  13 2.56  24 2.56  27 2.56  23 2.57  20 2.57  31 2.57
                            33 2.57  19 2.57  25 2.57  35 2.58
  23  0.223  0.555  0.366-  20 2.55  21 2.55  22 2.57  24 2.57  25 2.57  26 2.57  13 2.57  14 2.57
                            16 2.58  33 2.58  34 2.58  36 2.77
  24  0.556  0.556  0.366-  15 2.56  17 2.56  14 2.56  22 2.56  27 2.56  21 2.57  23 2.57  32 2.57
                            34 2.57  19 2.57  26 2.57  35 2.58
  25  0.889  0.889  0.365-  12 2.54  16 2.54  18 2.55  19 2.56  26 2.56  33 2.57  30 2.57  22 2.57
                            27 2.57  21 2.57  23 2.57  28 2.57
  26  0.221  0.889  0.365-  10 2.54  16 2.54  17 2.55  25 2.56  19 2.56  29 2.57  34 2.57  27 2.57
                            24 2.57  20 2.57  23 2.57  28 2.57
  27  0.556  0.889  0.366-  17 2.56  18 2.56  11 2.56  24 2.56  22 2.56  20 2.57  21 2.57  29 2.57
                            30 2.57  26 2.57  25 2.57  35 2.58
  28  0.000  0.000  0.446-  33 2.55  30 2.55  31 2.55  29 2.55  32 2.55  34 2.55  25 2.57  19 2.57
                            26 2.57
  29  0.334  0.994  0.446-  34 2.48  35 2.54  28 2.55  26 2.57  27 2.57  20 2.58  30 2.60  31 2.61
                            36 2.62
  30  0.672  0.994  0.446-  33 2.48  35 2.54  28 2.55  25 2.57  27 2.57  21 2.58  29 2.60  32 2.61
                            36 2.62
  31  0.994  0.334  0.446-  32 2.48  35 2.54  28 2.55  19 2.57  22 2.57  20 2.58  33 2.60  29 2.61
                            36 2.62
  32  0.672  0.334  0.446-  31 2.48  35 2.54  28 2.55  19 2.57  24 2.57  21 2.58  34 2.60  30 2.61
                            36 2.62
  33  0.994  0.672  0.446-  30 2.48  35 2.54  28 2.55  25 2.57  22 2.57  23 2.58  31 2.60  34 2.61
                            36 2.62
  34  0.334  0.672  0.446-  29 2.48  35 2.54  28 2.55  26 2.57  24 2.57  23 2.58  32 2.60  33 2.61
                            36 2.62
  35  0.667  0.667  0.447-  34 2.54  32 2.54  29 2.54  30 2.54  33 2.54  31 2.54  24 2.58  27 2.58
                            22 2.58
  36  0.333  0.333  0.456-  37 2.07  31 2.62  29 2.62  33 2.62  32 2.62  34 2.62  30 2.62  23 2.77
                            20 2.77  21 2.77
  37  0.333  0.333  0.535-  38 1.27  36 2.07
  38  0.333  0.333  0.584-  39 0.96  37 1.27
  39  0.333  0.333  0.620-  38 0.96
 
  LATTYP: Found a hexagonal cell.
 ALAT       =     7.6967864036
 C/A-ratio  =     3.3950614187
  
  Lattice vectors:
  
 A1 = (  -3.8483927580,  -6.6656128093,   0.0000000000)
 A2 = (   7.6967864037,   0.0000000000,   0.0000000000)
 A3 = (   0.0000000000,   0.0000000000,  26.1310625667)


Analysis of symmetry for initial positions (statically):
=====================================================================
 Subroutine PRICEL returns:
 Original cell was already a primitive cell.
 

 Routine SETGRP: Setting up the symmetry group for a 
 hexagonal supercell.


 Subroutine GETGRP returns: Found  6 space group operations
 (whereof  6 operations were pure point group operations)
 out of a pool of 24 trial point group operations.


The static configuration has the point symmetry C_3v.


Analysis of symmetry for dynamics (positions and initial velocities):
=====================================================================
 Subroutine PRICEL returns:
 Original cell was already a primitive cell.
 

 Routine SETGRP: Setting up the symmetry group for a 
 hexagonal supercell.


 Subroutine GETGRP returns: Found  6 space group operations
 (whereof  6 operations were pure point group operations)
 out of a pool of 24 trial point group operations.


The dynamic configuration has the point symmetry C_3v.


Analysis of constrained symmetry for selective dynamics:
=====================================================================
 Subroutine PRICEL returns:
 Original cell was already a primitive cell.
 

 Routine SETGRP: Setting up the symmetry group for a 
 hexagonal supercell.


 Subroutine GETGRP returns: Found  6 space group operations
 (whereof  6 operations were pure point group operations)
 out of a pool of 24 trial point group operations.


The constrained configuration has the point symmetry C_3v.


 Subroutine INISYM returns: Found  6 space group operations
 (whereof  6 operations are pure point group operations),
 and found     1 'primitive' translations


----------------------------------------------------------------------------------------

                                     Primitive cell                                     

  volume of cell :    1340.6228

  direct lattice vectors                    reciprocal lattice vectors
     7.696786404  0.000000000  0.000000000     0.129924354 -0.075011849  0.000000000
     3.848392758  6.665612809  0.000000000     0.000000000  0.150023716  0.000000000
     0.000000000  0.000000000 26.131062567     0.000000000  0.000000000  0.038268631

  length of vectors
     7.696786404  7.696786404 26.131062567     0.150023716  0.150023716  0.038268631

  position of ions in fractional coordinates (direct lattice)
     0.000000000  0.000000000  0.205562236
     0.333333343  0.000000000  0.205562236
     0.666666687  0.000000000  0.205562236
     0.000000000  0.333333343  0.205562236
     0.333333313  0.333333343  0.205562236
     0.666666687  0.333333343  0.205562236
     0.000000000  0.666666687  0.205562236
     0.333333373  0.666666687  0.205562236
     0.666666627  0.666666687  0.205562236
     0.111111119  0.111111112  0.285727375
     0.444444418  0.111111112  0.285727375
     0.777777791  0.111111112  0.285727375
     0.111111119  0.444444448  0.285727375
     0.444444478  0.444444448  0.285727375
     0.777777731  0.444444448  0.285727375
     0.111111112  0.777777731  0.285727375
     0.444444478  0.777777731  0.285727375
     0.777777851  0.777777731  0.285727375
     0.889263854  0.221472309  0.364921204
     0.222727760  0.222727745  0.366325203
     0.554544539  0.222727745  0.366325203
     0.888734740  0.555632600  0.365637534
     0.222727730  0.554544479  0.366325203
     0.555632660  0.555632600  0.365637534
     0.889263854  0.889263854  0.364921204
     0.221472324  0.889263854  0.364921204
     0.555632600  0.888734740  0.365637534
     0.000000000  0.000000000  0.445565201
     0.333803354  0.994491360  0.446046947
     0.671705316  0.994491360  0.446046947
     0.994491360  0.333803354  0.446046947
     0.671705316  0.333803354  0.446046947
     0.994491360  0.671705316  0.446046947
     0.333803384  0.671705316  0.446046947
     0.666666627  0.666666687  0.446501803
     0.333333313  0.333333343  0.456010282
     0.333333313  0.333333343  0.535334117
     0.333333313  0.333333343  0.583819363
     0.333333313  0.333333343  0.620459026

  ion indices of the primitive-cell ions
   primitive index   ion index
                 1           1
                 2           2
                 3           3
                 4           4
                 5           5
                 6           6
                 7           7
                 8           8
                 9           9
                10          10
                11          11
                12          12
                13          13
                14          14
                15          15
                16          16
                17          17
                18          18
                19          19
                20          20
                21          21
                22          22
                23          23
                24          24
                25          25
                26          26
                27          27
                28          28
                29          29
                30          30
                31          31
                32          32
                33          33
                34          34
                35          35
                36          36
                37          37
                38          38
                39          39

----------------------------------------------------------------------------------------

 
 
 KPOINTS: Automatic mesh                          

Automatic generation of k-mesh.
 Grid dimensions read from file:
 generate k-points for:    8    8    1

 Generating k-lattice:

  Cartesian coordinates                     Fractional coordinates (reciprocal lattice)
     0.016240544 -0.009376481  0.000000000     0.125000000  0.000000000  0.000000000
     0.000000000  0.018752964  0.000000000     0.000000000  0.125000000  0.000000000
     0.000000000  0.000000000  0.038268631     0.000000000  0.000000000  1.000000000

  Length of vectors
     0.018752964  0.018752964  0.038268631

  Shift w.r.t. Gamma in fractional coordinates (k-lattice)
     0.000000000  0.000000000  0.000000000

 TETIRR: Found     36 inequivalent tetrahedra from      384
 
 Subroutine IBZKPT returns following result:
 ===========================================
 
 Found     10 irreducible k-points:
 
 Following reciprocal coordinates:
            Coordinates               Weight
  0.000000  0.000000  0.000000      1.000000
  0.125000 -0.000000  0.000000      6.000000
  0.250000 -0.000000  0.000000      6.000000
  0.375000 -0.000000  0.000000      6.000000
  0.500000 -0.000000  0.000000      3.000000
  0.250000  0.125000  0.000000      6.000000
  0.375000  0.125000  0.000000     12.000000
  0.500000  0.125000  0.000000     12.000000
  0.500000  0.250000  0.000000      6.000000
 -0.375000  0.250000  0.000000      6.000000
 
 Following cartesian coordinates:
            Coordinates               Weight
  0.000000  0.000000  0.000000      1.000000
  0.016241 -0.009376  0.000000      6.000000
  0.032481 -0.018753  0.000000      6.000000
  0.048722 -0.028129  0.000000      6.000000
  0.064962 -0.037506  0.000000      3.000000
  0.032481  0.000000  0.000000      6.000000
  0.048722 -0.009376  0.000000     12.000000
  0.064962 -0.018753  0.000000     12.000000
  0.064962  0.000000  0.000000      6.000000
 -0.048722  0.065635  0.000000      6.000000
 


--------------------------------------------------------------------------------------------------------




 Dimension of arrays:
   k-points           NKPTS =     10   k-points in BZ     NKDIM =     10   number of bands    NBANDS=    252
   number of dos      NEDOS =    301   number of ions     NIONS =     39
   non local maximal  LDIM  =      6   non local SUM 2l+1 LMDIM =     18
   total plane-waves  NPLWV = 254016
   max r-space proj   IRMAX =   3676   max aug-charges    IRDMAX=  12921
   dimension x,y,z NGX =    42 NGY =   42 NGZ =  144
   dimension x,y,z NGXF=    84 NGYF=   84 NGZF=  288
   support grid    NGXF=    84 NGYF=   84 NGZF=  288
   ions per type =              35   1   1   1   1
   NGX,Y,Z   is equivalent  to a cutoff of   9.07,  9.07,  9.16 a.u.
   NGXF,Y,Z  is equivalent  to a cutoff of  18.14, 18.14, 18.32 a.u.

 SYSTEM =  unknown system                          
 POSCAR =  Cu-Hf-COH                               

 Startparameter for this run:
   NWRITE =      2    write-flag & timer
   PREC   = normal    normal or accurate (medium, high low for compatibility)
   ISTART =      0    job   : 0-new  1-cont  2-samecut
   ICHARG =     11    charge: 1-file 2-atom 10-const
   ISPIN  =      1    spin polarized calculation?
   LNONCOLLINEAR =      F non collinear calculations
   LSORBIT =      F    spin-orbit coupling
   INIWAV =      1    electr: 0-lowe 1-rand  2-diag
   LASPH  =      F    aspherical Exc in radial PAW
   METAGGA=      F    non-selfconsistent MetaGGA calc.

 Electronic Relaxation 1
   ENCUT  =  500.0 eV  36.75 Ry    6.06 a.u.  14.03 14.03 47.64*2*pi/ulx,y,z
   ENINI  =  500.0     initial cutoff
   ENAUG  =  644.9 eV  augmentation charge cutoff
   NELM   =    150;   NELMIN=  2; NELMDL= -5     # of ELM steps 
   EDIFF  = 0.1E-04   stopping-criterion for ELM
   LREAL  =      T    real-space projection
   NLSPLINE    = F    spline interpolate recip. space projectors
   LCOMPAT=      F    compatible to vasp.4.4
   GGA_COMPAT  = T    GGA compatible to vasp.4.4-vasp.4.6
   LMAXPAW     = -100 max onsite density
   LMAXMIX     =    2 max onsite mixed and CHGCAR
   VOSKOWN=      0    Vosko Wilk Nusair interpolation
   ROPT   =   -0.00050  -0.00050  -0.00050  -0.00050
   ROPT   =   -0.00050
 Ionic relaxation
   EDIFFG = -.1E-01   stopping-criterion for IOM
   NSW    =      0    number of steps for IOM
   NBLOCK =      1;   KBLOCK =      1    inner block; outer block 
   IBRION =     -1    ionic relax: 0-MD 1-quasi-New 2-CG
   NFREE  =      1    steps in history (QN), initial steepest desc. (CG)
   ISIF   =      2    stress and relaxation
   IWAVPR =     10    prediction:  0-non 1-charg 2-wave 3-comb
   ISYM   =      2    0-nonsym 1-usesym 2-fastsym
   LCORR  =      T    Harris-Foulkes like correction to forces

   POTIM  = 0.5000    time-step for ionic-motion
   TEIN   =    0.0    initial temperature
   TEBEG  =    0.0;   TEEND  =   0.0 temperature during run
   SMASS  =  -3.00    Nose mass-parameter (am)
   estimated Nose-frequenzy (Omega)   =  0.10E-29 period in steps = 0.13E+47 mass=  -0.135E-26a.u.
   SCALEE = 1.0000    scale energy and forces
   NPACO  =    256;   APACO  = 16.0  distance and # of slots for P.C.
   PSTRESS=    0.0 pullay stress

  Mass of Ions in am
   POMASS =  63.55178.49 12.01 16.00  1.00
  Ionic Valenz
   ZVAL   =  11.00  4.00  4.00  6.00  1.00
  Atomic Wigner-Seitz radii
   RWIGS  =  -1.00 -1.00 -1.00 -1.00 -1.00
  virtual crystal weights 
   VCA    =   1.00  1.00  1.00  1.00  1.00
   NELECT =     400.0000    total number of electrons
   NUPDOWN=      -1.0000    fix difference up-down

 DOS related values:
   EMIN   =  10.00;   EMAX   =-10.00  energy-range for DOS
   EFERMI =   0.00
   ISMEAR =    -5;   SIGMA  =   0.10  broadening in eV -4-tet -1-fermi 0-gaus

 Electronic relaxation 2 (details)
   IALGO  =     68    algorithm
   LDIAG  =      T    sub-space diagonalisation (order eigenvalues)
   LSUBROT=      F    optimize rotation matrix (better conditioning)
   TURBO    =      0    0=normal 1=particle mesh
   IRESTART =      0    0=no restart 2=restart with 2 vectors
   NREBOOT  =      0    no. of reboots
   NMIN     =      0    reboot dimension
   EREF     =   0.00    reference energy to select bands
   IMIX   =      4    mixing-type and parameters
     AMIX     =   0.40;   BMIX     =  1.00
     AMIX_MAG =   1.60;   BMIX_MAG =  1.00
     AMIN     =   0.10
     WC   =   100.;   INIMIX=   1;  MIXPRE=   1;  MAXMIX= -45

 Intra band minimization:
   WEIMIN = 0.0000     energy-eigenvalue tresh-hold
   EBREAK =  0.99E-08  absolut break condition
   DEPER  =   0.30     relativ break condition  

   TIME   =   0.40     timestep for ELM

  volume/ion in A,a.u.               =      34.37       231.97
  Fermi-wavevector in a.u.,A,eV,Ry     =   1.093938  2.067243 16.282091  1.196700
  Thomas-Fermi vector in A             =   2.230233
 
 Write flags
   LWAVE        =      F    write WAVECAR
   LDOWNSAMPLE  =      F    k-point downsampling of WAVECAR
   LCHARG       =      F    write CHGCAR
   LVTOT        =      F    write LOCPOT, total local potential
   LVHAR        =      F    write LOCPOT, Hartree potential only
   LELF         =      F    write electronic localiz. function (ELF)
   LORBIT       =     10    0 simple, 1 ext, 2 COOP (PROOUT), +10 PAW based schemes


 Dipole corrections
   LMONO  =      F    monopole corrections only (constant potential shift)
   LDIPOL =      F    correct potential (dipole corrections)
   IDIPOL =      0    1-x, 2-y, 3-z, 4-all directions 
   EPSILON=  1.0000000 bulk dielectric constant

 Exchange correlation treatment:
   GGA     =    --    GGA type
   LEXCH   =     8    internal setting for exchange type
   VOSKOWN=      0    Vosko Wilk Nusair interpolation
   LHFCALC =     F    Hartree Fock is set to
   LHFONE  =     F    Hartree Fock one center treatment
   AEXX    =    0.0000 exact exchange contribution

 Linear response parameters
   LEPSILON=     F    determine dielectric tensor
   LRPA    =     F    only Hartree local field effects (RPA)
   LNABLA  =     F    use nabla operator in PAW spheres
   LVEL    =     F    velocity operator in full k-point grid
   LINTERFAST=   F  fast interpolation
   KINTER  =     0    interpolate to denser k-point grid
   CSHIFT  =0.1000    complex shift for real part using Kramers Kronig
   OMEGAMAX=  -1.0    maximum frequency
   DEG_THRESHOLD= 0.2000000E-02 threshold for treating states as degnerate
   RTIME   =   -0.100 relaxation time in fs
  (WPLASMAI=    0.000 imaginary part of plasma frequency in eV, 0.658/RTIME)
   DFIELD  = 0.0000000 0.0000000 0.0000000 field for delta impulse in time
 
 Orbital magnetization related:
   ORBITALMAG=     F  switch on orbital magnetization
   LCHIMAG   =     F  perturbation theory with respect to B field
   DQ        =  0.001000  dq finite difference perturbation B field
   LLRAUG    =     F  two centre corrections for induced B field



--------------------------------------------------------------------------------------------------------


 Static calculation
 charge density and potential remain constant during run
 non-spin polarized calculation
 RMM-DIIS sequential band-by-band and
  variant of blocked Davidson during initial phase
 perform sub-space diagonalisation
    before iterative eigenvector-optimisation
 no mixing
 using additional bands           52
 real space projection scheme for non local part
 use partial core corrections
 calculate Harris-corrections to forces 
   (improved forces if not selfconsistent)
 use gradient corrections 
 WARNING: stress and forces are not correct
  (second derivative of E(xc) not defined)
 use of overlap-Matrix (Vanderbilt PP)
 Fermi weights with tetrahedron method with Bloechl corrections


--------------------------------------------------------------------------------------------------------


  energy-cutoff  :      500.00
  volume of cell :     1340.62
      direct lattice vectors                 reciprocal lattice vectors
     7.696786404  0.000000000  0.000000000     0.129924354 -0.075011849  0.000000000
     3.848392758  6.665612809  0.000000000     0.000000000  0.150023716  0.000000000
     0.000000000  0.000000000 26.131062567     0.000000000  0.000000000  0.038268631

  length of vectors
     7.696786404  7.696786404 26.131062567     0.150023716  0.150023716  0.038268631


 
 k-points in units of 2pi/SCALE and weight: Automatic mesh                          
   0.00000000  0.00000000  0.00000000       0.016
   0.01624054 -0.00937648  0.00000000       0.094
   0.03248109 -0.01875296  0.00000000       0.094
   0.04872163 -0.02812944  0.00000000       0.094
   0.06496218 -0.03750592  0.00000000       0.047
   0.03248109  0.00000000  0.00000000       0.094
   0.04872163 -0.00937648  0.00000000       0.188
   0.06496218 -0.01875296  0.00000000       0.188
   0.06496218  0.00000000  0.00000000       0.094
  -0.04872163  0.06563537  0.00000000       0.094
 
 k-points in reciprocal lattice and weights: Automatic mesh                          
   0.00000000  0.00000000  0.00000000       0.016
   0.12500000 -0.00000000  0.00000000       0.094
   0.25000000 -0.00000000  0.00000000       0.094
   0.37500000 -0.00000000  0.00000000       0.094
   0.50000000 -0.00000000  0.00000000       0.047
   0.25000000  0.12500000  0.00000000       0.094
   0.37500000  0.12500000  0.00000000       0.188
   0.50000000  0.12500000  0.00000000       0.188
   0.50000000  0.25000000  0.00000000       0.094
  -0.37500000  0.25000000  0.00000000       0.094
 
 position of ions in fractional coordinates (direct lattice) 
   0.00000000  0.00000000  0.20556224
   0.33333334  0.00000000  0.20556224
   0.66666669  0.00000000  0.20556224
   0.00000000  0.33333334  0.20556224
   0.33333331  0.33333334  0.20556224
   0.66666669  0.33333334  0.20556224
   0.00000000  0.66666669  0.20556224
   0.33333337  0.66666669  0.20556224
   0.66666663  0.66666669  0.20556224
   0.11111112  0.11111111  0.28572738
   0.44444442  0.11111111  0.28572738
   0.77777779  0.11111111  0.28572738
   0.11111112  0.44444445  0.28572738
   0.44444448  0.44444445  0.28572738
   0.77777773  0.44444445  0.28572738
   0.11111111  0.77777773  0.28572738
   0.44444448  0.77777773  0.28572738
   0.77777785  0.77777773  0.28572738
   0.88926385  0.22147231  0.36492120
   0.22272776  0.22272775  0.36632520
   0.55454454  0.22272775  0.36632520
   0.88873474  0.55563260  0.36563753
   0.22272773  0.55454448  0.36632520
   0.55563266  0.55563260  0.36563753
   0.88926385  0.88926385  0.36492120
   0.22147232  0.88926385  0.36492120
   0.55563260  0.88873474  0.36563753
   0.00000000  0.00000000  0.44556520
   0.33380335  0.99449136  0.44604695
   0.67170532  0.99449136  0.44604695
   0.99449136  0.33380335  0.44604695
   0.67170532  0.33380335  0.44604695
   0.99449136  0.67170532  0.44604695
   0.33380338  0.67170532  0.44604695
   0.66666663  0.66666669  0.44650180
   0.33333331  0.33333334  0.45601028
   0.33333331  0.33333334  0.53533412
   0.33333331  0.33333334  0.58381936
   0.33333331  0.33333334  0.62045903
 
 position of ions in cartesian coordinates  (Angst):
   0.00000000  0.00000000  5.37155964
   2.56559554  0.00000000  5.37155964
   5.13119109  0.00000000  5.37155964
   1.28279762  2.22187100  5.37155964
   3.84839293  2.22187100  5.37155964
   6.41398872  2.22187100  5.37155964
   2.56559525  4.44374201  5.37155964
   5.13119102  4.44374201  5.37155964
   7.69678588  4.44374201  5.37155964
   1.28279775  0.74062365  7.46635991
   3.84839295  0.74062365  7.46635991
   6.41398873  0.74062365  7.46635991
   2.56559535  2.96249461  7.46635991
   5.13119101  2.96249461  7.46635991
   7.69678586  2.96249461  7.46635991
   3.84839268  5.18436521  7.46635991
   6.41398840  5.18436521  7.46635991
   8.97958418  5.18436521  7.46635991
   7.69678637  1.47624866  9.53577883
   2.57143184  1.48461691  9.57246679
   5.12535471  1.48461691  9.57246679
   8.97869394  3.70363178  9.55449728
   3.84839272  3.69637878  9.57246679
   6.41487838  3.70363178  9.55449728
  10.26671051  5.92748853  9.53577883
   5.12686175  5.92748853  9.53577883
   7.69678578  5.92396167  9.55449728
   0.00000000  0.00000000 11.64309213
   6.39640647  6.62889435 11.65568068
   8.99716569  6.62889435 11.65568068
   8.93899399  2.22500391 11.65568068
   6.45457875  2.22500391 11.65568068
  10.23937345  4.47732756 11.65568068
   5.15419922  4.47732756 11.65568068
   7.69678588  4.44374201 11.66756656
   3.84839293  2.22187100 11.91603321
   3.84839293  2.22187100 13.98884931
   3.84839293  2.22187100 15.25582031
   3.84839293  2.22187100 16.21325362
 


--------------------------------------------------------------------------------------------------------


 k-point   1 :   0.0000 0.0000 0.0000  plane waves:   33965
 k-point   2 :   0.1250-0.0000 0.0000  plane waves:   33959
 k-point   3 :   0.2500-0.0000 0.0000  plane waves:   34022
 k-point   4 :   0.3750-0.0000 0.0000  plane waves:   33996
 k-point   5 :   0.5000-0.0000 0.0000  plane waves:   34022
 k-point   6 :   0.2500 0.1250 0.0000  plane waves:   34000
 k-point   7 :   0.3750 0.1250 0.0000  plane waves:   34040
 k-point   8 :   0.5000 0.1250 0.0000  plane waves:   34057
 k-point   9 :   0.5000 0.2500 0.0000  plane waves:   34090
 k-point  10 :  -0.3750 0.2500 0.0000  plane waves:   34090

 maximum and minimum number of plane-waves per node :     34090    33959

 maximum number of plane-waves:     34090
 maximum index in each direction: 
   IXMAX=   14   IYMAX=   14   IZMAX=   47
   IXMIN=  -14   IYMIN=  -14   IZMIN=  -47


 serial   3D FFT for wavefunctions
 parallel 3D FFT for charge:
    minimum data exchange during FFTs selected (reduces bandwidth)


 total amount of memory used by VASP MPI-rank0   118290. kBytes
=======================================================================

   base      :      30000. kBytes
   nonlr-proj:      18083. kBytes
   fftplans  :       3497. kBytes
   grid      :      16027. kBytes
   one-center:        606. kBytes
   wavefun   :      50077. kBytes
 
     INWAV:  cpu time    0.0000: real time    0.0000
 initial charge density was supplied:
 number of electron     399.9999519 magnetization 
 keeping initial charge density in first step


--------------------------------------------------------------------------------------------------------


 Maximum index for non-local projection operator         3522
 Maximum index for augmentation-charges          590 (set IRDMAX)


--------------------------------------------------------------------------------------------------------


 First call to EWALD:  gamma=   0.161
 Maximum number of real-space cells 4x 4x 1
 Maximum number of reciprocal cells 2x 2x 6

    FEWALD:  cpu time    0.0014: real time    0.0014


--------------------------------------- Iteration      1(   1)  ---------------------------------------


    POTLOK:  cpu time    0.0325: real time    0.0328
    SETDIJ:  cpu time    0.0043: real time    0.0045
     EDDAV:  cpu time    6.6578: real time    6.6596
 BZINTS: Fermi energy:   12.152104;  400.000000 electrons
         Band energy: 0.234097E+04;  BLOECHL correction:   -0.034505
       DOS:  cpu time    0.0103: real time    0.0104
    --------------------------------------------
      LOOP:  cpu time    6.7049: real time    6.7073

 eigenvalue-minimisations  :  5040
 total energy-change (2. order) : 0.3475794E+04  (-0.1680532E+05)
 number of electron     399.9999519 magnetization 
 augmentation part      399.9999519 magnetization 

 Free energy of the ion-electron system (eV)
  ---------------------------------------------------
  alpha Z        PSCENC =       732.68045271
  Ewald energy   TEWEN  =    237646.19334411
  -Hartree energ DENC   =   -284431.64100154
  -exchange      EXHF   =         0.00000000
  -V(xc)+E(xc)   XCENC  =      1549.35968099
  PAW double counting   =     47001.89707829   -50715.74014498
  entropy T*S    EENTRO =         0.00000000
  eigenvalues    EBANDS =      2340.97375646
  atomic energy  EATOM  =     49352.07072409
  Solvation  Ediel_sol  =         0.00000000
  ---------------------------------------------------
  free energy    TOTEN  =      3475.79389012 eV

  energy without entropy =     3475.79389012  energy(sigma->0) =     3475.79389012


--------------------------------------------------------------------------------------------------------




--------------------------------------- Iteration      1(   2)  ---------------------------------------


     EDDAV:  cpu time    6.6286: real time    6.6290
 BZINTS: Fermi energy:    2.562242;  400.000000 electrons
         Band energy:-0.845993E+03;  BLOECHL correction:   -0.035224
       DOS:  cpu time    0.0102: real time    0.0102
    --------------------------------------------
      LOOP:  cpu time    6.6388: real time    6.6393

 eigenvalue-minimisations  :  5040
 total energy-change (2. order) :-0.3186967E+04  (-0.3059169E+04)
 number of electron     399.9999519 magnetization 
 augmentation part      399.9999519 magnetization 

 Free energy of the ion-electron system (eV)
  ---------------------------------------------------
  alpha Z        PSCENC =       732.68045271
  Ewald energy   TEWEN  =    237646.19334411
  -Hartree energ DENC   =   -284431.64100154
  -exchange      EXHF   =         0.00000000
  -V(xc)+E(xc)   XCENC  =      1549.35968099
  PAW double counting   =     47001.89707829   -50715.74014498
  entropy T*S    EENTRO =         0.00000000
  eigenvalues    EBANDS =      -845.99318089
  atomic energy  EATOM  =     49352.07072409
  Solvation  Ediel_sol  =         0.00000000
  ---------------------------------------------------
  free energy    TOTEN  =       288.82695277 eV

  energy without entropy =      288.82695277  energy(sigma->0) =      288.82695277


--------------------------------------------------------------------------------------------------------




--------------------------------------- Iteration      1(   3)  ---------------------------------------


     EDDAV:  cpu time    7.7449: real time    7.7455
 BZINTS: Fermi energy:    0.241096;  400.000000 electrons
         Band energy:-0.125534E+04;  BLOECHL correction:   -0.054120
       DOS:  cpu time    0.0100: real time    0.0100
    --------------------------------------------
      LOOP:  cpu time    7.7549: real time    7.7555

 eigenvalue-minimisations  :  6104
 total energy-change (2. order) :-0.4093514E+03  (-0.3898919E+03)
 number of electron     399.9999519 magnetization 
 augmentation part      399.9999519 magnetization 

 Free energy of the ion-electron system (eV)
  ---------------------------------------------------
  alpha Z        PSCENC =       732.68045271
  Ewald energy   TEWEN  =    237646.19334411
  -Hartree energ DENC   =   -284431.64100154
  -exchange      EXHF   =         0.00000000
  -V(xc)+E(xc)   XCENC  =      1549.35968099
  PAW double counting   =     47001.89707829   -50715.74014498
  entropy T*S    EENTRO =         0.00000000
  eigenvalues    EBANDS =     -1255.34456312
  atomic energy  EATOM  =     49352.07072409
  Solvation  Ediel_sol  =         0.00000000
  ---------------------------------------------------
  free energy    TOTEN  =      -120.52442946 eV

  energy without entropy =     -120.52442946  energy(sigma->0) =     -120.52442946


--------------------------------------------------------------------------------------------------------




--------------------------------------- Iteration      1(   4)  ---------------------------------------


     EDDAV:  cpu time    8.0735: real time    8.0740
 BZINTS: Fermi energy:   -0.113219;  400.000000 electrons
         Band energy:-0.128277E+04;  BLOECHL correction:   -0.029478
       DOS:  cpu time    0.0104: real time    0.0104
    --------------------------------------------
      LOOP:  cpu time    8.0839: real time    8.0844

 eigenvalue-minimisations  :  6412
 total energy-change (2. order) :-0.2742312E+02  (-0.2667437E+02)
 number of electron     399.9999519 magnetization 
 augmentation part      399.9999519 magnetization 

 Free energy of the ion-electron system (eV)
  ---------------------------------------------------
  alpha Z        PSCENC =       732.68045271
  Ewald energy   TEWEN  =    237646.19334411
  -Hartree energ DENC   =   -284431.64100154
  -exchange      EXHF   =         0.00000000
  -V(xc)+E(xc)   XCENC  =      1549.35968099
  PAW double counting   =     47001.89707829   -50715.74014498
  entropy T*S    EENTRO =         0.00000000
  eigenvalues    EBANDS =     -1282.76768593
  atomic energy  EATOM  =     49352.07072409
  Solvation  Ediel_sol  =         0.00000000
  ---------------------------------------------------
  free energy    TOTEN  =      -147.94755227 eV

  energy without entropy =     -147.94755227  energy(sigma->0) =     -147.94755227


--------------------------------------------------------------------------------------------------------




--------------------------------------- Iteration      1(   5)  ---------------------------------------


     EDDAV:  cpu time    8.0945: real time    8.0951
 BZINTS: Fermi energy:   -0.142103;  400.000000 electrons
         Band energy:-0.128358E+04;  BLOECHL correction:   -0.036930
       DOS:  cpu time    0.0104: real time    0.0104
    --------------------------------------------
      LOOP:  cpu time    8.1049: real time    8.1055

 eigenvalue-minimisations  :  6440
 total energy-change (2. order) :-0.8128816E+00  (-0.8016739E+00)
 number of electron     399.9999519 magnetization 
 augmentation part      399.9999519 magnetization 

 Free energy of the ion-electron system (eV)
  ---------------------------------------------------
  alpha Z        PSCENC =       732.68045271
  Ewald energy   TEWEN  =    237646.19334411
  -Hartree energ DENC   =   -284431.64100154
  -exchange      EXHF   =         0.00000000
  -V(xc)+E(xc)   XCENC  =      1549.35968099
  PAW double counting   =     47001.89707829   -50715.74014498
  entropy T*S    EENTRO =         0.00000000
  eigenvalues    EBANDS =     -1283.58056757
  atomic energy  EATOM  =     49352.07072409
  Solvation  Ediel_sol  =         0.00000000
  ---------------------------------------------------
  free energy    TOTEN  =      -148.76043391 eV

  energy without entropy =     -148.76043391  energy(sigma->0) =     -148.76043391


--------------------------------------------------------------------------------------------------------




--------------------------------------- Iteration      1(   6)  ---------------------------------------


    EDDIAG:  cpu time    1.2569: real time    1.2601
  RMM-DIIS:  cpu time    3.8730: real time    3.8733
    ORTHCH:  cpu time    0.2388: real time    0.2388
 BZINTS: Fermi energy:   -0.142267;  400.000000 electrons
         Band energy:-0.128360E+04;  BLOECHL correction:   -0.036966
       DOS:  cpu time    0.0104: real time    0.0103
    --------------------------------------------
      LOOP:  cpu time    5.3791: real time    5.3825

 eigenvalue-minimisations  :  5548
 total energy-change (2. order) :-0.1844345E-01  (-0.1843695E-01)
 number of electron     399.9999519 magnetization 
 augmentation part      399.9999519 magnetization 

 Free energy of the ion-electron system (eV)
  ---------------------------------------------------
  alpha Z        PSCENC =       732.68045271
  Ewald energy   TEWEN  =    237646.19334411
  -Hartree energ DENC   =   -284431.64100154
  -exchange      EXHF   =         0.00000000
  -V(xc)+E(xc)   XCENC  =      1549.35968099
  PAW double counting   =     47001.89707829   -50715.74014498
  entropy T*S    EENTRO =         0.00000000
  eigenvalues    EBANDS =     -1283.59901102
  atomic energy  EATOM  =     49352.07072409
  Solvation  Ediel_sol  =         0.00000000
  ---------------------------------------------------
  free energy    TOTEN  =      -148.77887736 eV

  energy without entropy =     -148.77887736  energy(sigma->0) =     -148.77887736


--------------------------------------------------------------------------------------------------------




--------------------------------------- Iteration      1(   7)  ---------------------------------------


    EDDIAG:  cpu time    1.2580: real time    1.2580
  RMM-DIIS:  cpu time    5.2562: real time    5.2565
    ORTHCH:  cpu time    0.2390: real time    0.2390
 BZINTS: Fermi energy:   -0.142347;  400.000000 electrons
         Band energy:-0.128361E+04;  BLOECHL correction:   -0.036981
       DOS:  cpu time    0.0103: real time    0.0103
    --------------------------------------------
      LOOP:  cpu time    6.7635: real time    6.7639

 eigenvalue-minimisations  :  7655
 total energy-change (2. order) :-0.8511678E-02  (-0.8492776E-02)
 number of electron     399.9999519 magnetization 
 augmentation part      399.9999519 magnetization 

 Free energy of the ion-electron system (eV)
  ---------------------------------------------------
  alpha Z        PSCENC =       732.68045271
  Ewald energy   TEWEN  =    237646.19334411
  -Hartree energ DENC   =   -284431.64100154
  -exchange      EXHF   =         0.00000000
  -V(xc)+E(xc)   XCENC  =      1549.35968099
  PAW double counting   =     47001.89707829   -50715.74014498
  entropy T*S    EENTRO =         0.00000000
  eigenvalues    EBANDS =     -1283.60752270
  atomic energy  EATOM  =     49352.07072409
  Solvation  Ediel_sol  =         0.00000000
  ---------------------------------------------------
  free energy    TOTEN  =      -148.78738904 eV

  energy without entropy =     -148.78738904  energy(sigma->0) =     -148.78738904


--------------------------------------------------------------------------------------------------------




--------------------------------------- Iteration      1(   8)  ---------------------------------------


    EDDIAG:  cpu time    1.2601: real time    1.2603
  RMM-DIIS:  cpu time    5.2957: real time    5.2960
    ORTHCH:  cpu time    0.2389: real time    0.2390
 BZINTS: Fermi energy:   -0.142351;  400.000000 electrons
         Band energy:-0.128361E+04;  BLOECHL correction:   -0.036982
       DOS:  cpu time    0.0088: real time    0.0088
    --------------------------------------------
      LOOP:  cpu time    6.8036: real time    6.8041

 eigenvalue-minimisations  :  7694
 total energy-change (2. order) :-0.7589733E-03  (-0.7295008E-03)
 number of electron     399.9999519 magnetization 
 augmentation part      399.9999519 magnetization 

 Free energy of the ion-electron system (eV)
  ---------------------------------------------------
  alpha Z        PSCENC =       732.68045271
  Ewald energy   TEWEN  =    237646.19334411
  -Hartree energ DENC   =   -284431.64100154
  -exchange      EXHF   =         0.00000000
  -V(xc)+E(xc)   XCENC  =      1549.35968099
  PAW double counting   =     47001.89707829   -50715.74014498
  entropy T*S    EENTRO =         0.00000000
  eigenvalues    EBANDS =     -1283.60828167
  atomic energy  EATOM  =     49352.07072409
  Solvation  Ediel_sol  =         0.00000000
  ---------------------------------------------------
  free energy    TOTEN  =      -148.78814801 eV

  energy without entropy =     -148.78814801  energy(sigma->0) =     -148.78814801


--------------------------------------------------------------------------------------------------------




--------------------------------------- Iteration      1(   9)  ---------------------------------------


    EDDIAG:  cpu time    1.2579: real time    1.2580
  RMM-DIIS:  cpu time    5.3152: real time    5.3156
    ORTHCH:  cpu time    0.2391: real time    0.2391
 BZINTS: Fermi energy:   -0.142352;  400.000000 electrons
         Band energy:-0.128361E+04;  BLOECHL correction:   -0.036982
       DOS:  cpu time    0.0103: real time    0.0103
    --------------------------------------------
      LOOP:  cpu time    6.8226: real time    6.8230

 eigenvalue-minimisations  :  7727
 total energy-change (2. order) :-0.1401533E-03  (-0.1376577E-03)
 number of electron     399.9999519 magnetization 
 augmentation part      399.9999519 magnetization 

 Free energy of the ion-electron system (eV)
  ---------------------------------------------------
  alpha Z        PSCENC =       732.68045271
  Ewald energy   TEWEN  =    237646.19334411
  -Hartree energ DENC   =   -284431.64100154
  -exchange      EXHF   =         0.00000000
  -V(xc)+E(xc)   XCENC  =      1549.35968099
  PAW double counting   =     47001.89707829   -50715.74014498
  entropy T*S    EENTRO =         0.00000000
  eigenvalues    EBANDS =     -1283.60842182
  atomic energy  EATOM  =     49352.07072409
  Solvation  Ediel_sol  =         0.00000000
  ---------------------------------------------------
  free energy    TOTEN  =      -148.78828817 eV

  energy without entropy =     -148.78828817  energy(sigma->0) =     -148.78828817


--------------------------------------------------------------------------------------------------------




--------------------------------------- Iteration      1(  10)  ---------------------------------------


    EDDIAG:  cpu time    1.2571: real time    1.2572
  RMM-DIIS:  cpu time    4.7499: real time    4.7501
    ORTHCH:  cpu time    0.2392: real time    0.2392
 BZINTS: Fermi energy:   -0.142352;  400.000000 electrons
         Band energy:-0.128361E+04;  BLOECHL correction:   -0.036982
       DOS:  cpu time    0.0097: real time    0.0097
    --------------------------------------------
      LOOP:  cpu time    6.2559: real time    6.2563

 eigenvalue-minimisations  :  6721
 total energy-change (2. order) :-0.2102857E-04  (-0.2113979E-04)
 number of electron     399.9999519 magnetization 
 augmentation part      399.9999519 magnetization 

 Free energy of the ion-electron system (eV)
  ---------------------------------------------------
  alpha Z        PSCENC =       732.68045271
  Ewald energy   TEWEN  =    237646.19334411
  -Hartree energ DENC   =   -284431.64100154
  -exchange      EXHF   =         0.00000000
  -V(xc)+E(xc)   XCENC  =      1549.35968099
  PAW double counting   =     47001.89707829   -50715.74014498
  entropy T*S    EENTRO =         0.00000000
  eigenvalues    EBANDS =     -1283.60844285
  atomic energy  EATOM  =     49352.07072409
  Solvation  Ediel_sol  =         0.00000000
  ---------------------------------------------------
  free energy    TOTEN  =      -148.78830920 eV

  energy without entropy =     -148.78830920  energy(sigma->0) =     -148.78830920


--------------------------------------------------------------------------------------------------------




--------------------------------------- Iteration      1(  11)  ---------------------------------------


    EDDIAG:  cpu time    1.2597: real time    1.2600
  RMM-DIIS:  cpu time    3.5089: real time    3.5090
    ORTHCH:  cpu time    0.2388: real time    0.2389
 BZINTS: Fermi energy:   -0.142352;  400.000000 electrons
         Band energy:-0.128361E+04;  BLOECHL correction:   -0.036982
       DOS:  cpu time    0.0103: real time    0.0103
    --------------------------------------------
      LOOP:  cpu time    5.0177: real time    5.0182

 eigenvalue-minimisations  :  4496
 total energy-change (2. order) :-0.3898283E-05  (-0.4041513E-05)
 number of electron     399.9999519 magnetization 
 augmentation part      399.9999519 magnetization 

 Free energy of the ion-electron system (eV)
  ---------------------------------------------------
  alpha Z        PSCENC =       732.68045271
  Ewald energy   TEWEN  =    237646.19334411
  -Hartree energ DENC   =   -284431.64100154
  -exchange      EXHF   =         0.00000000
  -V(xc)+E(xc)   XCENC  =      1549.35968099
  PAW double counting   =     47001.89707829   -50715.74014498
  entropy T*S    EENTRO =         0.00000000
  eigenvalues    EBANDS =     -1283.60844675
  atomic energy  EATOM  =     49352.07072409
  Solvation  Ediel_sol  =         0.00000000
  ---------------------------------------------------
  free energy    TOTEN  =      -148.78831309 eV

  energy without entropy =     -148.78831309  energy(sigma->0) =     -148.78831309


--------------------------------------------------------------------------------------------------------




 average (electrostatic) potential at core
  the test charge radii are     0.9430  1.2481  0.6991  0.7215  0.5201
  (the norm of the test charge is              1.0000)
       1 -71.0989       2 -71.1033       3 -71.1033       4 -71.1033       5 -71.1087
       6 -71.1030       7 -71.1033       8 -71.1030       9 -71.0877      10 -71.3862
      11 -71.3537      12 -71.3861      13 -71.3537      14 -71.3533      15 -71.3729
      16 -71.3860      17 -71.3728      18 -71.3731      19 -71.3936      20 -71.5098
      21 -71.5099      22 -71.3429      23 -71.5098      24 -71.3425      25 -71.3937
      26 -71.3935      27 -71.3428      28 -71.1730      29 -71.3564      30 -71.3566
      31 -71.3565      32 -71.3564      33 -71.3566      34 -71.3563      35 -71.1517
      36 -40.8481      37 -56.9123      38 -79.4590      39 -43.9013
 
 
 
 E-fermi :  -0.1424     XC(G=0):  -5.0613     alpha+bet : -4.4951

 Fermi energy:        -0.1423517051

 k-point     1 :       0.0000    0.0000    0.0000
  band No.  band energies     occupation 
      1     -24.3882      2.00000
      2     -15.0808      2.00000
      3      -8.9595      2.00000
      4      -7.7377      2.00000
      5      -7.0632      2.00000
      6      -7.0631      2.00000
      7      -6.7554      2.00000
      8      -6.0631      2.00000
      9      -5.9730      2.00000
     10      -5.9729      2.00000
     11      -5.9512      2.00000
     12      -5.9371      2.00000
     13      -5.9370      2.00000
     14      -5.7997      2.00000
     15      -5.2397      2.00000
     16      -5.2396      2.00000
     17      -5.2192      2.00000
     18      -5.1942      2.00000
     19      -5.1788      2.00000
     20      -5.1787      2.00000
     21      -4.9863      2.00000
     22      -4.5644      2.00000
     23      -4.5644      2.00000
     24      -4.5252      2.00000
     25      -4.4987      2.00000
     26      -4.4987      2.00000
     27      -4.4084      2.00000
     28      -4.2108      2.00000
     29      -4.2108      2.00000
     30      -4.1995      2.00000
     31      -4.1894      2.00000
     32      -4.1894      2.00000
     33      -4.1647      2.00000
     34      -4.0502      2.00000
     35      -4.0502      2.00000
     36      -4.0434      2.00000
     37      -4.0312      2.00000
     38      -4.0250      2.00000
     39      -4.0250      2.00000
     40      -4.0105      2.00000
     41      -4.0105      2.00000
     42      -4.0048      2.00000
[...]
  0.000   0.000   0.000   0.000   0.000   0.000   0.000   0.000   0.000   0.000   1.000   0.000   0.000   0.000   0.000   0.000
  0.000   0.000   0.000   0.000   0.000   0.000   0.000   0.000   0.000   0.000   0.000   0.000   0.000   0.000   0.000   0.000
  0.000   0.000   0.000   0.000   0.000   0.000   0.000   0.000   0.000   0.000   0.000   0.000   0.000   0.000   0.000   0.000
  0.000   0.000   0.000   0.000   0.000   0.000   0.000   0.000   0.000   0.000   0.000   0.000   0.000   0.000   0.000   0.000
  0.000   0.000   0.000   0.000   0.000   0.000   0.000   0.000   0.000   0.000   0.000   0.000   0.000   0.000   0.000   0.000
  0.000   0.000   0.000   0.000   0.000   0.000   0.000   0.000   0.000   0.000   0.000   0.000   0.000   0.000   0.000   0.000
  0.000   0.000   0.000   0.000   0.000   0.000   0.000   0.000   0.000   0.000   0.000   0.000   0.000   0.000   0.000   0.000
  0.000   0.000   0.000   0.000   0.000   0.000   0.000   0.000   0.000   0.000   0.000   0.000   0.000   0.000   0.000   0.000


------------------------ aborting loop because EDIFF is reached ----------------------------------------





 total charge

# of ion       s       p       d       tot
------------------------------------------
    1        0.449   0.282   9.190   9.921
    2        0.446   0.286   9.187   9.919
    3        0.446   0.286   9.187   9.919
    4        0.446   0.286   9.187   9.919
    5        0.451   0.286   9.181   9.919
    6        0.446   0.286   9.187   9.919
    7        0.446   0.286   9.187   9.919
    8        0.446   0.286   9.187   9.919
    9        0.448   0.283   9.190   9.921
   10        0.443   0.372   9.176   9.990
   11        0.443   0.364   9.182   9.989
   12        0.443   0.372   9.176   9.990
   13        0.443   0.364   9.182   9.989
   14        0.443   0.364   9.182   9.989
   15        0.440   0.372   9.175   9.988
   16        0.443   0.372   9.176   9.990
   17        0.440   0.372   9.175   9.988
   18        0.440   0.372   9.175   9.988
   19        0.443   0.372   9.177   9.993
   20        0.458   0.381   9.166  10.005
   21        0.458   0.381   9.166  10.005
   22        0.433   0.374   9.178   9.985
   23        0.458   0.381   9.166  10.005
   24        0.433   0.374   9.178   9.985
   25        0.443   0.372   9.177   9.993
   26        0.443   0.372   9.177   9.993
   27        0.433   0.374   9.178   9.985
   28        0.444   0.296   9.183   9.924
   29        0.480   0.315   9.169   9.964
   30        0.480   0.315   9.169   9.964
   31        0.480   0.315   9.169   9.964
   32        0.480   0.315   9.169   9.964
   33        0.480   0.315   9.169   9.964
   34        0.480   0.315   9.169   9.964
   35        0.444   0.298   9.185   9.926
   36        0.601   0.625   2.247   3.473
   37        0.943   1.386   0.000   2.329
   38        1.526   3.748   0.000   5.274
   39        0.566   0.137   0.000   0.703
--------------------------------------------------
tot         19.413  17.652 323.471 360.536
 
    CHARGE:  cpu time    0.2741: real time    0.2742
    FORLOC:  cpu time    0.0104: real time    0.0104
    FORNL :  cpu time    1.3808: real time    1.3810
    STRESS:  cpu time    4.0934: real time    4.0939
    FORCOR:  cpu time    0.0350: real time    0.0351
    FORHAR:  cpu time    0.0157: real time    0.0157
    OFIELD:  cpu time    0.0002: real time    0.0002

  FORCE on cell =-STRESS in cart. coord.  units (eV):
  Direction    XX          YY          ZZ          XY          YZ          ZX
  --------------------------------------------------------------------------------------
  Alpha Z   732.68045   732.68045   732.68045
  Ewald  263001.89423263001.89392************     0.00035     0.00014     0.00016
  Hartree275820.67225275820.67229************     0.00001     0.00007     0.00005
  E(xc)   -2310.76560 -2310.76516 -2314.43474    -0.00038    -0.00003    -0.00005
  Local  ************************551264.27043     0.01875    -0.00062    -0.00093
  n-local  -781.43078  -769.85100  -789.03024     6.35722    -0.05803     0.12985
  augment  3315.97693  3315.99688  3336.49064    -0.01729     0.00026     0.00046
  Kinetic  3378.32647  3379.26352  3355.04848     2.47572     1.87468    -1.29992
  Fock        0.00000     0.00000     0.00000     0.00000     0.00000     0.00000
  -------------------------------------------------------------------------------------
  Total      -4.41521    -4.41521    -2.20262     0.00000    -0.00000    -0.00000
  in kB      -5.27661    -5.27661    -2.63235     0.00000    -0.00000    -0.00000
  external pressure =       -4.40 kB  Pullay stress =        0.00 kB


 VOLUME and BASIS-vectors are now :
 -----------------------------------------------------------------------------
  energy-cutoff  :      500.00
  volume of cell :     1340.62
      direct lattice vectors                 reciprocal lattice vectors
     7.696786404  0.000000000  0.000000000     0.129924354 -0.075011849  0.000000000
     3.848392758  6.665612809  0.000000000     0.000000000  0.150023716  0.000000000
     0.000000000  0.000000000 26.131062567     0.000000000  0.000000000  0.038268631

  length of vectors
     7.696786404  7.696786404 26.131062567     0.150023716  0.150023716  0.038268631


 FORCES acting on ions
    electron-ion (+dipol)            ewald-force                    non-local-force                 convergence-correction
 -----------------------------------------------------------------------------------------------
   -.435E-04 -.956E-06 0.389E+04   0.581E-04 -.423E-05 -.389E+04   -.106E-16 0.444E-19 -.229E+01   -.222E-03 -.146E-03 0.173E+00
   -.123E+01 -.164E+01 0.389E+04   0.116E+01 0.146E+01 -.389E+04   0.851E-01 0.220E+00 -.190E+01   -.372E-02 -.336E-01 0.192E+00
   0.123E+01 -.164E+01 0.389E+04   -.116E+01 0.146E+01 -.389E+04   -.851E-01 0.220E+00 -.190E+01   0.444E-02 -.311E-01 0.193E+00
   -.203E+01 -.242E+00 0.389E+04   0.185E+01 0.273E+00 -.389E+04   0.233E+00 -.360E-01 -.190E+01   -.309E-01 0.135E-01 0.192E+00
   -.676E-04 -.687E-05 0.388E+04   0.116E-03 -.101E-04 -.388E+04   0.516E-17 -.280E-17 -.114E+01   0.122E-01 0.744E-02 0.305E+00
   0.203E+01 -.242E+00 0.389E+04   -.185E+01 0.273E+00 -.389E+04   -.233E+00 -.360E-01 -.190E+01   0.293E-01 0.149E-01 0.194E+00
   -.806E+00 0.188E+01 0.389E+04   0.686E+00 -.173E+01 -.389E+04   0.148E+00 -.183E+00 -.190E+01   -.246E-01 0.194E-01 0.193E+00
   0.806E+00 0.188E+01 0.389E+04   -.687E+00 -.173E+01 -.389E+04   -.148E+00 -.183E+00 -.190E+01   0.282E-01 0.180E-01 0.194E+00
   -.145E-03 -.336E-04 0.389E+04   0.263E-03 0.204E-04 -.389E+04   -.374E-17 0.348E-17 -.216E+01   -.133E-01 -.683E-02 0.178E+00
   -.124E+02 -.717E+01 0.131E+04   0.127E+02 0.731E+01 -.131E+04   -.214E+00 -.124E+00 -.863E+00   -.265E-01 -.155E-01 0.833E-01
   -.898E-04 -.135E+02 0.129E+04   0.189E-03 0.134E+02 -.129E+04   -.138E-07 0.207E+00 -.151E+00   0.113E-01 -.965E-01 0.932E-01
   0.124E+02 -.717E+01 0.131E+04   -.127E+02 0.731E+01 -.131E+04   0.214E+00 -.124E+00 -.863E+00   0.254E-01 -.139E-01 0.821E-01
   -.117E+02 0.675E+01 0.129E+04   0.116E+02 -.670E+01 -.129E+04   0.179E+00 -.104E+00 -.151E+00   -.774E-01 0.588E-01 0.927E-01
   0.117E+02 0.675E+01 0.129E+04   -.116E+02 -.670E+01 -.129E+04   -.179E+00 -.104E+00 -.151E+00   0.101E+00 0.585E-01 0.922E-01
   -.138E-03 -.832E+00 0.131E+04   0.295E-03 0.666E+00 -.131E+04   -.676E-08 0.102E+00 -.107E+01   -.345E-02 0.588E-01 0.810E-01
   -.915E-04 0.143E+02 0.131E+04   0.187E-03 -.146E+02 -.131E+04   -.164E-07 0.247E+00 -.863E+00   0.849E-04 0.275E-01 0.828E-01
   -.720E+00 0.416E+00 0.131E+04   0.577E+00 -.333E+00 -.131E+04   0.880E-01 -.508E-01 -.107E+01   0.496E-01 -.323E-01 0.812E-01
   0.720E+00 0.416E+00 0.131E+04   -.577E+00 -.333E+00 -.131E+04   -.880E-01 -.508E-01 -.107E+01   -.492E-01 -.300E-01 0.808E-01
   -.715E-04 -.969E+01 -.124E+04   0.738E-04 0.978E+01 0.124E+04   0.337E-08 -.506E-01 0.104E+01   0.104E-02 -.206E-01 -.205E+00
   -.766E+02 -.442E+02 -.138E+04   0.777E+02 0.448E+02 0.138E+04   -.102E+01 -.591E+00 -.497E+00   -.139E+00 -.815E-01 -.287E+00
   0.766E+02 -.442E+02 -.138E+04   -.777E+02 0.448E+02 0.138E+04   0.102E+01 -.591E+00 -.497E+00   0.119E+00 -.795E-01 -.288E+00
   -.372E+02 0.215E+02 -.127E+04   0.371E+02 -.214E+02 0.127E+04   0.219E+00 -.127E+00 0.562E+00   -.594E-01 0.194E-01 -.332E+00
   -.743E-04 0.885E+02 -.138E+04   0.157E-03 -.897E+02 0.138E+04   -.786E-07 0.118E+01 -.497E+00   0.131E-02 0.161E+00 -.288E+00
   0.372E+02 0.215E+02 -.127E+04   -.371E+02 -.214E+02 0.127E+04   -.219E+00 -.127E+00 0.562E+00   0.369E-01 0.215E-01 -.332E+00
   0.840E+01 0.485E+01 -.124E+04   -.847E+01 -.489E+01 0.124E+04   0.438E-01 0.253E-01 0.104E+01   0.207E-01 0.110E-01 -.205E+00
   -.840E+01 0.485E+01 -.124E+04   0.847E+01 -.489E+01 0.124E+04   -.438E-01 0.253E-01 0.104E+01   -.174E-01 0.996E-02 -.205E+00
   -.139E-03 -.430E+02 -.127E+04   0.239E-03 0.428E+02 0.127E+04   -.169E-07 0.253E+00 0.562E+00   -.132E-01 -.605E-01 -.332E+00
   -.305E-04 0.221E-04 -.375E+04   0.485E-04 -.309E-04 0.375E+04   -.583E-19 0.159E-17 0.207E+01   -.107E-02 -.937E-03 -.234E+00
   -.608E+02 -.115E+03 -.373E+04   0.610E+02 0.115E+03 0.373E+04   -.208E+00 -.173E+00 0.932E+00   -.673E-01 -.897E-01 -.348E+00
   0.608E+02 -.115E+03 -.373E+04   -.610E+02 0.115E+03 0.373E+04   0.208E+00 -.173E+00 0.932E+00   0.893E-01 -.877E-01 -.347E+00
   -.130E+03 0.463E+01 -.373E+04   0.130E+03 -.452E+01 0.373E+04   -.254E+00 -.938E-01 0.932E+00   -.111E+00 -.136E-01 -.348E+00
   0.130E+03 0.463E+01 -.373E+04   -.130E+03 -.452E+01 0.373E+04   0.254E+00 -.938E-01 0.932E+00   0.133E+00 -.118E-01 -.347E+00
   -.688E+02 0.110E+03 -.373E+04   0.689E+02 -.110E+03 0.373E+04   -.456E-01 0.266E+00 0.932E+00   -.310E-01 0.122E+00 -.347E+00
   0.688E+02 0.110E+03 -.373E+04   -.689E+02 -.110E+03 0.373E+04   0.456E-01 0.266E+00 0.932E+00   0.566E-01 0.121E+00 -.348E+00
   -.124E-03 -.117E-04 -.377E+04   0.248E-03 -.188E-05 0.377E+04   0.426E-17 -.479E-17 0.233E+01   -.149E-01 -.760E-02 -.267E+00
   -.226E-04 -.363E-05 -.136E+04   0.434E-04 0.109E-04 0.136E+04   -.872E-19 0.111E-17 -.201E+01   -.940E-04 -.908E-04 -.161E+00
   -.829E-05 -.739E-04 -.134E+04   0.509E-05 0.306E-05 0.131E+04   -.212E-17 -.757E-18 0.229E+02   0.779E-03 0.475E-03 -.337E-01
   0.227E-03 -.722E-04 -.208E+04   0.103E-05 0.137E-05 0.208E+04   0.648E-18 0.125E-17 -.291E+01   0.327E-02 0.200E-02 0.161E+00
   0.322E-05 -.141E-04 -.378E+03   0.319E-07 0.908E-07 0.387E+03   0.519E-20 -.165E-19 -.869E+01   0.170E-03 0.104E-03 0.310E-01
 -----------------------------------------------------------------------------------------------
   -.851E-04 -.179E-03 0.311E+01   -.479E-13 0.202E-12 0.104E-10   -.178E-15 -.320E-17 -.590E+00   0.394E-01 0.315E-01 -.248E+01
 
 
 POSITION                                       TOTAL-FORCE (eV/Angst)
 -----------------------------------------------------------------------------------
      0.00000      0.00000      5.37156         0.000000     -0.000000     -0.005595
      2.56560      0.00000      5.37156         0.015305      0.010688      0.054511
      5.13119      0.00000      5.37156        -0.015305      0.010688      0.054511
      1.28280      2.22187      5.37156         0.016909      0.007911      0.054511
      3.84839      2.22187      5.37156         0.000000     -0.000000      0.057197
      6.41399      2.22187      5.37156        -0.016909      0.007911      0.054511
      2.56560      4.44374      5.37156         0.001603     -0.018599      0.054511
      5.13119      4.44374      5.37156        -0.001603     -0.018599      0.054511
      7.69679      4.44374      5.37156         0.000000     -0.000000      0.020663
      1.28280      0.74062      7.46636        -0.001095     -0.000632     -0.110701
      3.84839      0.74062      7.46636        -0.000000      0.015145     -0.023905
      6.41399      0.74062      7.46636         0.001095     -0.000632     -0.110701
      2.56560      2.96249      7.46636         0.013116     -0.007573     -0.023905
      5.13119      2.96249      7.46636        -0.013116     -0.007573     -0.023905
      7.69679      2.96249      7.46636         0.000000     -0.005552     -0.069277
      3.84839      5.18437      7.46636        -0.000000      0.001264     -0.110701
      6.41399      5.18437      7.46636        -0.004808      0.002776     -0.069277
      8.97958      5.18437      7.46636         0.004808      0.002776     -0.069277
      7.69679      1.47625      9.53578        -0.000000      0.018345      0.068728
      2.57143      1.48462      9.57247        -0.119309     -0.068883     -0.135078
      5.12535      1.48462      9.57247         0.119309     -0.068883     -0.135078
      8.97869      3.70363      9.55450         0.010422     -0.006017      0.057132
      3.84839      3.69638      9.57247        -0.000000      0.137766     -0.135078
      6.41488      3.70363      9.55450        -0.010422     -0.006017      0.057132
     10.26671      5.92749      9.53578        -0.015887     -0.009173      0.068728
      5.12686      5.92749      9.53578         0.015887     -0.009173      0.068728
      7.69679      5.92396      9.55450        -0.000000      0.012034      0.057132
      0.00000      0.00000     11.64309         0.000000     -0.000000     -0.023386
      6.39641      6.62889     11.65568        -0.067340     -0.098084      0.051981
      8.99717      6.62889     11.65568         0.067340     -0.098084      0.051981
      8.93899      2.22500     11.65568        -0.118613     -0.009276      0.051981
      6.45458      2.22500     11.65568         0.118613     -0.009276      0.051981
     10.23937      4.47733     11.65568        -0.051273      0.107360      0.051981
      5.15420      4.47733     11.65568         0.051273      0.107360      0.051981
      7.69679      4.44374     11.66757         0.000000     -0.000000     -0.039263
      3.84839      2.22187     11.91603         0.000000     -0.000000      0.059854
      3.84839      2.22187     13.98885         0.000000     -0.000000     -0.090216
      3.84839      2.22187     15.25582         0.000000     -0.000000      0.042448
      3.84839      2.22187     16.21325         0.000000     -0.000000     -0.021353
 -----------------------------------------------------------------------------------
    total drift:                                0.039360      0.031342      0.041587


--------------------------------------------------------------------------------------------------------



  FREE ENERGIE OF THE ION-ELECTRON SYSTEM (eV)
  ---------------------------------------------------
  free  energy   TOTEN  =      -148.78831309 eV

  energy  without entropy=     -148.78831309  energy(sigma->0) =     -148.78831309
 


--------------------------------------------------------------------------------------------------------


    POTLOK:  cpu time    0.0342: real time    0.0342


--------------------------------------------------------------------------------------------------------


 stress matrix after NEB project (eV)
     -4.41521      0.00000     -0.00000
      0.00000     -4.41521     -0.00000
     -0.00000     -0.00000     -2.20262
  FORCES: max atom, RMS     0.090216    0.016327
  FORCE total and by dimension    0.101964    0.090216
  Stress total and by dimension    6.621154    4.415210
     LOOP+:  cpu time   80.2226: real time   80.2383
 -----------------------------------------------------------------------------
|                                                                             |
|           W    W    AA    RRRRR   N    N  II  N    N   GGGG   !!!           |
|           W    W   A  A   R    R  NN   N  II  NN   N  G    G  !!!           |
|           W    W  A    A  R    R  N N  N  II  N N  N  G       !!!           |
|           W WW W  AAAAAA  RRRRR   N  N N  II  N  N N  G  GGG   !            |
|           WW  WW  A    A  R   R   N   NN  II  N   NN  G    G                |
|           W    W  A    A  R    R  N    N  II  N    N   GGGG   !!!           |
|                                                                             |
|     Tetrahedron method does not include variations of the Fermi             |
|     occupations, so forces and stress will be inaccurate. We suggest        |
|     using a different smearing scheme ISMEAR = 1 or 2 for metals in         |
|     relaxations.                                                            |
|                                                                             |
 -----------------------------------------------------------------------------

    4ORBIT:  cpu time    0.0000: real time    0.0000



 total charge

# of ion       s       p       d       tot
------------------------------------------
    1        0.449   0.282   9.190   9.921
    2        0.446   0.286   9.187   9.919
    3        0.446   0.286   9.187   9.919
    4        0.446   0.286   9.187   9.919
    5        0.451   0.286   9.181   9.919
    6        0.446   0.286   9.187   9.919
    7        0.446   0.286   9.187   9.919
    8        0.446   0.286   9.187   9.919
    9        0.448   0.283   9.190   9.921
   10        0.443   0.372   9.176   9.990
   11        0.443   0.364   9.182   9.989
   12        0.443   0.372   9.176   9.990
   13        0.443   0.364   9.182   9.989
   14        0.443   0.364   9.182   9.989
   15        0.440   0.372   9.175   9.988
   16        0.443   0.372   9.176   9.990
   17        0.440   0.372   9.175   9.988
   18        0.440   0.372   9.175   9.988
   19        0.443   0.372   9.177   9.993
   20        0.458   0.381   9.166  10.005
   21        0.458   0.381   9.166  10.005
   22        0.433   0.374   9.178   9.985
   23        0.458   0.381   9.166  10.005
   24        0.433   0.374   9.178   9.985
   25        0.443   0.372   9.177   9.993
   26        0.443   0.372   9.177   9.993
   27        0.433   0.374   9.178   9.985
   28        0.444   0.296   9.183   9.924
   29        0.480   0.315   9.169   9.964
   30        0.480   0.315   9.169   9.964
   31        0.480   0.315   9.169   9.964
   32        0.480   0.315   9.169   9.964
   33        0.480   0.315   9.169   9.964
   34        0.480   0.315   9.169   9.964
   35        0.444   0.298   9.185   9.926
   36        0.601   0.625   2.247   3.473
   37        0.943   1.386   0.000   2.329
   38        1.526   3.748   0.000   5.274
   39        0.566   0.137   0.000   0.703
--------------------------------------------------
tot         19.413  17.652 323.471 360.536
 
 BZINTS: Fermi energy:   -0.142352;  400.000000 electrons
         Band energy:-0.128361E+04;  BLOECHL correction:   -0.036982

 total amount of memory used by VASP MPI-rank0   118290. kBytes
=======================================================================

   base      :      30000. kBytes
   nonlr-proj:      18083. kBytes
   fftplans  :       3497. kBytes
   grid      :      16027. kBytes
   one-center:        606. kBytes
   wavefun   :      50077. kBytes
 
  
  
 General timing and accounting informations for this job:
 ========================================================
  
                  Total CPU time used (sec):       87.082
                            User time (sec):       84.110
                          System time (sec):        2.972
                         Elapsed time (sec):       87.468
  
                   Maximum memory used (kb):      367228.
                   Average memory used (kb):          N/A
  
                          Minor page faults:        82903
                          Major page faults:            0
                 Voluntary context switches:         4898
