PROCAR new format
# of k-points:   10         # of bands:  252         # of ions:   39

 k-point     1 :    0.00000000 0.00000000 0.00000000     weight = 0.01562500

band     1 # energy  -24.38816714 # occ.  2.00000000
 
ion      s      p      d    tot
    1  0.000  0.000  0.000  0.000
    2  0.000  0.000  0.000  0.000
    3  0.000  0.000  0.000  0.000
    4  0.000  0.000  0.000  0.000
    5  0.000  0.000  0.000  0.000
    6  0.000  0.000  0.000  0.000
    7  0.000  0.000  0.000  0.000
    8  0.000  0.000  0.000  0.000
    9  0.000  0.000  0.000  0.000
   10  0.000  0.000  0.000  0.000
   11  0.000  0.000  0.000  0.000
   12  0.000  0.000  0.000  0.000
   13  0.000  0.000  0.000  0.000
   14  0.000  0.000  0.000  0.000
   15  0.000  0.000  0.000  0.000
   16  0.000  0.000  0.000  0.000
   17  0.000  0.000  0.000  0.000
   18  0.000  0.000  0.000  0.000
   19  0.000  0.000  0.000  0.000
   20  0.000  0.000  0.000  0.000
   21  0.000  0.000  0.000  0.000
   22  0.000  0.000  0.000  0.000
   23  0.000  0.000  0.000  0.000
   24  0.000  0.000  0.000  0.000
   25  0.000  0.000  0.000  0.000
   26  0.000  0.000  0.000  0.000
   27  0.000  0.000  0.000  0.000
   28  0.000  0.000  0.000  0.000
   29  0.000  0.000  0.000  0.000
   30  0.000  0.000  0.000  0.000
   31  0.000  0.000  0.000  0.000
   32  0.000  0.000  0.000  0.000
   33  0.000  0.000  0.000  0.000
   34  0.000  0.000  0.000  0.000
   35  0.000  0.000  0.000  0.000
   36  0.000  0.000  0.000  0.000
   37  0.072  0.054  0.000  0.127
   38  0.729  0.005  0.000  0.734
   39  0.065  0.014  0.000  0.079
tot    0.867  0.073  0.000  0.940
 
band     2 # energy  -15.08079995 # occ.  2.00000000
 
ion      s      p      d    tot
    1  0.000  0.000  0.000  0.000
    2  0.000  0.000  0.000  0.000
    3  0.000  0.000  0.000  0.000
    4  0.000  0.000  0.000  0.000
    5  0.000  0.000  0.000  0.000
    6  0.000  0.000  0.000  0.000
    7  0.000  0.000  0.000  0.000
    8  0.000  0.000  0.000  0.000
    9  0.000  0.000  0.000  0.000
   10  0.000  0.000  0.000  0.000
   11  0.000  0.000  0.000  0.000
   12  0.000  0.000  0.000  0.000
   13  0.000  0.000  0.000  0.000
   14  0.000  0.000  0.000  0.000
   15  0.000  0.000  0.000  0.000
   16  0.000  0.000  0.000  0.000
   17  0.000  0.000  0.000  0.000
   18  0.000  0.000  0.000  0.000
   19  0.000  0.000  0.000  0.000
   20  0.000  0.000  0.000  0.000
   21  0.000  0.000  0.000  0.000
   22  0.000  0.000  0.000  0.000
   23  0.000  0.000  0.000  0.000
   24  0.000  0.000  0.000  0.000
   25  0.000  0.000  0.000  0.000
   26  0.000  0.000  0.000  0.000
   27  0.000  0.000  0.000  0.000
   28  0.000  0.000  0.000  0.000
   29  0.000  0.000  0.000  0.000
   30  0.000  0.000  0.000  0.000
   31  0.000  0.000  0.000  0.000
   32  0.000  0.000  0.000  0.000
   33  0.000  0.000  0.000  0.000
   34  0.000  0.000  0.000  0.000
   35  0.000  0.000  0.000  0.000
   36  0.001  0.001  0.001  0.004
   37  0.153  0.055  0.000  0.208
   38  0.013  0.532  0.000  0.545
   39  0.201  0.032  0.000  0.233
tot    0.368  0.620  0.002  0.990
 
band     3 # energy   -8.95952726 # occ.  2.00000000
 
ion      s      p      d    tot
    1  0.006  0.001  0.000  0.007
    2  0.006  0.001  0.000  0.007
    3  0.006  0.001  0.000  0.007
    4  0.006  0.001  0.000  0.007
    5  0.006  0.001  0.000  0.007
    6  0.006  0.001  0.000  0.007
    7  0.006  0.001  0.000  0.007
    8  0.006  0.001  0.000  0.007
    9  0.006  0.001  0.000  0.007
   10  0.024  0.000  0.000  0.024
   11  0.023  0.000  0.000  0.024
   12  0.024  0.000  0.000  0.024
   13  0.023  0.000  0.000  0.024
   14  0.023  0.000  0.000  0.024
   15  0.023  0.000  0.000  0.024
   16  0.024  0.000  0.000  0.024
   17  0.023  0.000  0.000  0.024
   18  0.023  0.000  0.000  0.024
   19  0.025  0.000  0.000  0.025
   20  0.025  0.000  0.000  0.025
   21  0.025  0.000  0.000  0.025
   22  0.024  0.000  0.000  0.025
   23  0.025  0.000  0.000  0.025
   24  0.024  0.000  0.000  0.025
   25  0.025  0.000  0.000  0.025
   26  0.025  0.000  0.000  0.025
   27  0.024  0.000  0.000  0.025
   28  0.008  0.001  0.000  0.008
   29  0.008  0.001  0.000  0.008
   30  0.008  0.001  0.000  0.008
   31  0.008  0.001  0.000  0.008
   32  0.008  0.001  0.000  0.008
   33  0.008  0.001  0.000  0.008
   34  0.008  0.001  0.000  0.008
   35  0.007  0.001  0.000  0.008
   36  0.014  0.001  0.000  0.015
   37  0.001  0.001  0.000  0.002
   38  0.000  0.000  0.000  0.001
   39  0.000  0.000  0.000  0.000
tot    0.567  0.017  0.001  0.585
 
band     4 # energy   -7.73770676 # occ.  2.00000000
 
ion      s      p      d    tot
    1  0.016  0.001  0.000  0.018
    2  0.016  0.001  0.000  0.018
    3  0.016  0.001  0.000  0.018
    4  0.016  0.001  0.000  0.018
    5  0.016  0.001  0.000  0.017
    6  0.016  0.001  0.000  0.018
    7  0.016  0.001  0.000  0.018
    8  0.016  0.001  0.000  0.018
    9  0.016  0.001  0.000  0.018
   10  0.011  0.002  0.001  0.013
   11  0.011  0.002  0.001  0.013
   12  0.011  0.002  0.001  0.013
   13  0.011  0.002  0.001  0.013
   14  0.011  0.002  0.001  0.013
   15  0.011  0.002  0.000  0.014
   16  0.011  0.002  0.001  0.013
   17  0.011  0.002  0.000  0.014
   18  0.011  0.002  0.000  0.014
   19  0.007  0.002  0.000  0.009
   20  0.008  0.002  0.000  0.011
   21  0.008  0.002  0.000  0.011
   22  0.007  0.002  0.000  0.009
   23  0.008  0.002  0.000  0.011
   24  0.007  0.002  0.000  0.009
   25  0.007  0.002  0.000  0.009
   26  0.007  0.002  0.000  0.009
   27  0.007  0.002  0.000  0.009
   28  0.017  0.001  0.001  0.018
   29  0.018  0.001  0.001  0.020
   30  0.018  0.001  0.001  0.020
   31  0.018  0.001  0.001  0.020
   32  0.018  0.001  0.001  0.020
   33  0.018  0.001  0.001  0.020
   34  0.018  0.001  0.001  0.020
   35  0.017  0.001  0.001  0.018
   36  0.049  0.000  0.002  0.051
   37  0.012  0.011  0.000  0.023
   38  0.001  0.004  0.000  0.005
   39  0.001  0.000  0.000  0.001
tot    0.519  0.063  0.019  0.600
 
band     5 # energy   -7.06317819 # occ.  2.00000000
 
ion      s      p      d    tot
    1  0.000  0.000  0.000  0.000
    2  0.000  0.000  0.000  0.000
    3  0.000  0.000  0.000  0.000
    4  0.000  0.000  0.000  0.000
    5  0.000  0.000  0.000  0.000
    6  0.000  0.000  0.000  0.000
    7  0.000  0.000  0.000  0.000
    8  0.000  0.000  0.000  0.000
    9  0.000  0.000  0.000  0.000
   10  0.000  0.000  0.000  0.000
   11  0.000  0.000  0.000  0.000
   12  0.000  0.000  0.000  0.000
   13  0.000  0.000  0.000  0.000
   14  0.000  0.000  0.000  0.000
   15  0.000  0.000  0.000  0.000
   16  0.000  0.000  0.000  0.000
   17  0.000  0.000  0.000  0.000
   18  0.000  0.000  0.000  0.000
   19  0.000  0.000  0.000  0.000
   20  0.000  0.000  0.000  0.000
   21  0.000  0.000  0.000  0.000
   22  0.000  0.000  0.000  0.000
   23  0.000  0.000  0.000  0.000
   24  0.000  0.000  0.000  0.000
   25  0.000  0.000  0.000  0.000
   26  0.000  0.000  0.000  0.000
   27  0.000  0.000  0.000  0.000
   28  0.000  0.000  0.000  0.000
   29  0.000  0.000  0.000  0.000
   30  0.000  0.000  0.000  0.000
   31  0.000  0.000  0.000  0.000
   32  0.000  0.000  0.000  0.000
   33  0.000  0.000  0.000  0.000
   34  0.000  0.000  0.000  0.000
   35  0.000  0.000  0.000  0.000
   36  0.000  0.001  0.004  0.005
   37  0.000  0.097  0.000  0.097
   38  0.000  0.575  0.000  0.575
   39  0.000  0.008  0.000  0.008
tot    0.000  0.681  0.005  0.686
 
band     6 # energy   -7.06309105 # occ.  2.00000000
 
ion      s      p      d    tot
    1  0.000  0.000  0.000  0.000
    2  0.000  0.000  0.000  0.000
    3  0.000  0.000  0.000  0.000
    4  0.000  0.000  0.000  0.000
    5  0.000  0.000  0.000  0.000
    6  0.000  0.000  0.000  0.000
    7  0.000  0.000  0.000  0.000
    8  0.000  0.000  0.000  0.000
    9  0.000  0.000  0.000  0.000
   10  0.000  0.000  0.000  0.000
   11  0.000  0.000  0.000  0.000
   12  0.000  0.000  0.000  0.000
   13  0.000  0.000  0.000  0.000
   14  0.000  0.000  0.000  0.000
   15  0.000  0.000  0.000  0.000
   16  0.000  0.000  0.000  0.000
   17  0.000  0.000  0.000  0.000
   18  0.000  0.000  0.000  0.000
   19  0.000  0.000  0.000  0.000
   20  0.000  0.000  0.000  0.000
   21  0.000  0.000  0.000  0.000
   22  0.000  0.000  0.000  0.000
   23  0.000  0.000  0.000  0.000
   24  0.000  0.000  0.000  0.000
   25  0.000  0.000  0.000  0.000
   26  0.000  0.000  0.000  0.000
   27  0.000  0.000  0.000  0.000
   28  0.000  0.000  0.000  0.000
   29  0.000  0.000  0.000  0.000
   30  0.000  0.000  0.000  0.000
   31  0.000  0.000  0.000  0.000
   32  0.000  0.000  0.000  0.000
   33  0.000  0.000  0.000  0.000
   34  0.000  0.000  0.000  0.000
   35  0.000  0.000  0.000  0.000
   36  0.000  0.001  0.004  0.005
   37  0.000  0.097  0.000  0.097
   38  0.000  0.575  0.000  0.575
   39  0.000  0.008  0.000  0.008
tot    0.000  0.681  0.005  0.686
 
band     7 # energy   -6.75543796 # occ.  2.00000000
 
ion      s      p      d    tot
    1  0.003  0.000  0.000  0.003
    2  0.003  0.000  0.000  0.003
    3  0.003  0.000  0.000  0.003
    4  0.003  0.000  0.000  0.003
    5  0.004  0.000  0.000  0.005
    6  0.003  0.000  0.000  0.003
    7  0.003  0.000  0.000  0.003
    8  0.003  0.000  0.000  0.003
    9  0.002  0.000  0.000  0.003
   10  0.000  0.001  0.000  0.001
   11  0.001  0.001  0.000  0.001
   12  0.000  0.001  0.000  0.001
   13  0.001  0.001  0.000  0.001
   14  0.001  0.001  0.000  0.001
   15  0.000  0.001  0.000  0.001
   16  0.000  0.001  0.000  0.001
   17  0.000  0.001  0.000  0.001
   18  0.000  0.001  0.000  0.001
   19  0.009  0.000  0.001  0.010
   20  0.000  0.002  0.004  0.006
   21  0.000  0.002  0.004  0.006
   22  0.006  0.001  0.001  0.008
   23  0.000  0.002  0.004  0.006
   24  0.006  0.001  0.001  0.008
   25  0.009  0.000  0.001  0.010
   26  0.009  0.000  0.001  0.010
   27  0.006  0.001  0.001  0.008
   28  0.003  0.001  0.000  0.004
   29  0.000  0.001  0.001  0.002
   30  0.000  0.001  0.001  0.002
   31  0.000  0.001  0.001  0.002
   32  0.000  0.001  0.001  0.002
   33  0.000  0.001  0.001  0.002
   34  0.000  0.001  0.001  0.002
   35  0.003  0.001  0.000  0.004
   36  0.100  0.037  0.105  0.243
   37  0.177  0.133  0.000  0.310
   38  0.014  0.039  0.000  0.053
   39  0.012  0.001  0.000  0.013
tot    0.387  0.235  0.130  0.752
 
band     8 # energy   -6.06307838 # occ.  2.00000000
 
ion      s      p      d    tot
    1  0.016  0.000  0.005  0.021
    2  0.014  0.000  0.005  0.019
    3  0.014  0.000  0.005  0.019
    4  0.014  0.000  0.005  0.019
    5  0.006  0.000  0.006  0.012
    6  0.014  0.000  0.005  0.019
    7  0.014  0.000  0.005  0.019
    8  0.014  0.000  0.005  0.019
    9  0.023  0.000  0.004  0.026
   10  0.002  0.003  0.002  0.008
   11  0.011  0.005  0.001  0.017
   12  0.002  0.003  0.002  0.008
   13  0.011  0.005  0.001  0.017
   14  0.011  0.005  0.001  0.017
   15  0.000  0.002  0.003  0.006
   16  0.002  0.003  0.002  0.008
   17  0.000  0.002  0.003  0.006
   18  0.000  0.002  0.003  0.006
   19  0.001  0.003  0.006  0.009
   20  0.020  0.004  0.002  0.026
   21  0.020  0.004  0.002  0.026
   22  0.001  0.004  0.004  0.008
   23  0.020  0.004  0.002  0.026
   24  0.001  0.004  0.004  0.008
   25  0.001  0.003  0.006  0.009
   26  0.001  0.003  0.006  0.009
   27  0.001  0.004  0.004  0.008
   28  0.023  0.000  0.006  0.028
   29  0.016  0.000  0.008  0.025
   30  0.016  0.000  0.008  0.025
   31  0.016  0.000  0.008  0.025
   32  0.016  0.000  0.008  0.025
   33  0.016  0.000  0.008  0.025
   34  0.016  0.000  0.008  0.025
   35  0.027  0.000  0.006  0.033
   36  0.002  0.000  0.024  0.026
   37  0.003  0.002  0.000  0.005
   38  0.000  0.000  0.000  0.001
   39  0.000  0.000  0.000  0.000
tot    0.383  0.070  0.187  0.640
 
band     9 # energy   -5.97296797 # occ.  2.00000000
 
ion      s      p      d    tot
    1  0.000  0.003  0.004  0.007
    2  0.005  0.002  0.002  0.009
    3  0.007  0.002  0.002  0.011
    4  0.006  0.002  0.002  0.010
    5  0.000  0.000  0.002  0.002
    6  0.000  0.001  0.002  0.003
    7  0.007  0.002  0.002  0.011
    8  0.000  0.001  0.002  0.003
    9  0.000  0.001  0.004  0.006
   10  0.043  0.001  0.006  0.050
   11  0.000  0.007  0.004  0.011
   12  0.010  0.008  0.006  0.024
   13  0.000  0.007  0.004  0.011
   14  0.000  0.001  0.004  0.005
   15  0.011  0.001  0.012  0.024
   16  0.011  0.008  0.006  0.025
   17  0.010  0.001  0.012  0.023
   18  0.043  0.005  0.002  0.050
   19  0.017  0.005  0.011  0.033
   20  0.022  0.004  0.003  0.029
   21  0.005  0.003  0.012  0.020
   22  0.003  0.011  0.002  0.015
   23  0.006  0.003  0.012  0.020
   24  0.011  0.000  0.006  0.017
   25  0.065  0.003  0.005  0.074
   26  0.016  0.005  0.011  0.032
   27  0.003  0.010  0.002  0.015
   28  0.000  0.004  0.007  0.011
   29  0.006  0.002  0.003  0.011
   30  0.014  0.003  0.004  0.021
   31  0.006  0.002  0.003  0.011
   32  0.002  0.001  0.003  0.007
   33  0.014  0.003  0.004  0.021
   34  0.002  0.001  0.003  0.006
   35  0.000  0.002  0.004  0.006
   36  0.000  0.001  0.006  0.007
   37  0.000  0.000  0.000  0.000
   38  0.000  0.000  0.000  0.000
   39  0.000  0.000  0.000  0.000
tot    0.347  0.114  0.181  0.642
 
band    10 # energy   -5.97285654 # occ.  2.00000000
 
ion      s      p      d    tot
    1  0.000  0.003  0.004  0.007
    2  0.003  0.001  0.002  0.006
    3  0.001  0.001  0.002  0.004
    4  0.003  0.001  0.002  0.006
    5  0.000  0.000  0.002  0.002
    6  0.009  0.002  0.002  0.013
    7  0.001  0.001  0.002  0.004
    8  0.009  0.002  0.002  0.013
    9  0.000  0.001  0.004  0.006
   10  0.000  0.010  0.006  0.016
   11  0.000  0.003  0.004  0.007
   12  0.033  0.003  0.006  0.042
   13  0.000  0.003  0.004  0.007
   14  0.000  0.009  0.004  0.013
   15  0.032  0.003  0.006  0.041
   16  0.031  0.004  0.006  0.041
   17  0.033  0.004  0.005  0.042
   18  0.000  0.000  0.015  0.015
   19  0.048  0.004  0.007  0.059
   20  0.000  0.002  0.015  0.017
   21  0.017  0.004  0.005  0.026
   22  0.008  0.003  0.005  0.017
   23  0.016  0.004  0.006  0.026
   24  0.000  0.014  0.001  0.015
   25  0.000  0.005  0.013  0.018
   26  0.050  0.004  0.007  0.061
   27  0.008  0.004  0.005  0.017
   28  0.000  0.004  0.007  0.011
   29  0.009  0.002  0.004  0.015
   30  0.001  0.001  0.003  0.005
   31  0.008  0.002  0.004  0.014
   32  0.013  0.003  0.004  0.019
   33  0.000  0.001  0.003  0.005
   34  0.013  0.003  0.004  0.020
   35  0.000  0.002  0.004  0.006
   36  0.000  0.001  0.006  0.007
   37  0.000  0.000  0.000  0.000
   38  0.000  0.000  0.000  0.000
   39  0.000  0.000  0.000  0.000
tot    0.347  0.114  0.181  0.642
 
band    11 # energy   -5.95124076 # occ.  2.00000000
 
ion      s      p      d    tot
    1  0.019  0.003  0.001  0.023
    2  0.000  0.002  0.004  0.005
    3  0.000  0.002  0.004  0.005
    4  0.000  0.002  0.004  0.005
    5  0.002  0.000  0.000  0.002
    6  0.000  0.002  0.004  0.005
    7  0.000  0.002  0.004  0.006
    8  0.000  0.002  0.004  0.005
    9  0.009  0.001  0.000  0.010
   10  0.030  0.006  0.006  0.041
   11  0.005  0.000  0.011  0.016
   12  0.030  0.006  0.006  0.041
   13  0.005  0.000  0.011  0.017
   14  0.005  0.000  0.011  0.016
   15  0.011  0.008  0.004  0.022
   16  0.030  0.006  0.006  0.041
   17  0.011  0.008  0.003  0.022
   18  0.011  0.008  0.004  0.022
   19  0.023  0.010  0.002  0.035
   20  0.000  0.002  0.011  0.013
   21  0.000  0.002  0.011  0.013
   22  0.025  0.002  0.009  0.036
   23  0.000  0.002  0.011  0.013
   24  0.024  0.002  0.009  0.035
   25  0.023  0.010  0.002  0.035
   26  0.023  0.009  0.002  0.035
   27  0.025  0.002  0.009  0.036
   28  0.018  0.003  0.000  0.022
   29  0.000  0.002  0.005  0.007
   30  0.000  0.002  0.005  0.007
   31  0.000  0.002  0.005  0.007
   32  0.000  0.002  0.005  0.007
   33  0.000  0.002  0.005  0.007
   34  0.000  0.002  0.005  0.007
   35  0.015  0.002  0.001  0.018
   36  0.000  0.000  0.000  0.000
   37  0.000  0.000  0.000  0.000
   38  0.000  0.000  0.000  0.000
   39  0.000  0.000  0.000  0.000
tot    0.345  0.115  0.182  0.641
 
band    12 # energy   -5.93710017 # occ.  2.00000000
 
ion      s      p      d    tot
    1  0.000  0.000  0.003  0.003
    2  0.004  0.002  0.002  0.008
    3  0.007  0.002  0.002  0.011
    4  0.008  0.002  0.002  0.012
    5  0.000  0.003  0.006  0.009
    6  0.001  0.001  0.002  0.004
    7  0.009  0.002  0.002  0.014
    8  0.000  0.001  0.002  0.003
    9  0.000  0.002  0.003  0.004
   10  0.001  0.003  0.012  0.015
   11  0.036  0.004  0.008  0.047
   12  0.015  0.004  0.004  0.022
   13  0.054  0.004  0.005  0.063
   14  0.002  0.004  0.013  0.019
   15  0.008  0.006  0.004  0.018
   16  0.010  0.003  0.007  0.020
   17  0.012  0.002  0.006  0.020
   18  0.000  0.013  0.002  0.015
   19  0.000  0.005  0.005  0.010
   20  0.001  0.012  0.005  0.018
   21  0.037  0.002  0.007  0.047
   22  0.047  0.004  0.004  0.056
   23  0.024  0.006  0.006  0.036
   24  0.002  0.000  0.017  0.019
   25  0.000  0.008  0.006  0.015
   26  0.001  0.003  0.004  0.008
   27  0.031  0.003  0.009  0.043
   28  0.000  0.000  0.003  0.003
   29  0.004  0.001  0.002  0.007
   30  0.008  0.003  0.004  0.014
   31  0.007  0.002  0.003  0.012
   32  0.002  0.001  0.003  0.006
   33  0.010  0.003  0.003  0.017
   34  0.000  0.001  0.003  0.004
   35  0.000  0.002  0.006  0.008
   36  0.000  0.004  0.006  0.011
   37  0.000  0.000  0.000  0.000
   38  0.000  0.000  0.000  0.000
   39  0.000  0.000  0.000  0.000
tot    0.343  0.117  0.182  0.641
 
band    13 # energy   -5.93698716 # occ.  2.00000000
 
ion      s      p      d    tot
    1  0.000  0.000  0.003  0.003
    2  0.006  0.002  0.002  0.009
    3  0.003  0.001  0.002  0.006
    4  0.002  0.001  0.002  0.005
    5  0.000  0.003  0.006  0.009
    6  0.009  0.002  0.002  0.014
    7  0.000  0.001  0.002  0.003
    8  0.010  0.002  0.002  0.015
    9  0.000  0.002  0.003  0.004
   10  0.016  0.004  0.003  0.023
   11  0.025  0.004  0.010  0.039
   12  0.002  0.003  0.011  0.016
   13  0.007  0.004  0.012  0.023
   14  0.059  0.004  0.005  0.067
   15  0.006  0.008  0.004  0.017
   16  0.007  0.003  0.008  0.018
   17  0.002  0.012  0.002  0.016
   18  0.013  0.001  0.006  0.020
   19  0.000  0.006  0.005  0.012
   20  0.041  0.001  0.007  0.049
   21  0.005  0.011  0.005  0.021
   22  0.006  0.001  0.015  0.022
   23  0.018  0.007  0.006  0.031
   24  0.052  0.005  0.003  0.060
   25  0.001  0.002  0.004  0.007
   26  0.000  0.008  0.006  0.014
   27  0.022  0.002  0.011  0.035
   28  0.000  0.000  0.003  0.003
   29  0.007  0.002  0.004  0.013
   30  0.002  0.001  0.002  0.006
   31  0.003  0.002  0.003  0.008
   32  0.009  0.002  0.003  0.014
   33  0.000  0.001  0.003  0.004
   34  0.010  0.003  0.003  0.016
   35  0.000  0.002  0.006  0.008
   36  0.000  0.004  0.006  0.011
   37  0.000  0.000  0.000  0.000
   38  0.000  0.000  0.000  0.000
   39  0.000  0.000  0.000  0.000
tot    0.343  0.117  0.182  0.641
 
band    14 # energy   -5.79971582 # occ.  2.00000000
 
ion      s      p      d    tot
    1  0.000  0.000  0.001  0.001
    2  0.001  0.002  0.006  0.010
    3  0.001  0.002  0.006  0.010
    4  0.001  0.002  0.006  0.010
    5  0.038  0.003  0.000  0.041
    6  0.001  0.002  0.006  0.010
    7  0.001  0.002  0.006  0.010
    8  0.001  0.002  0.006  0.010
    9  0.006  0.002  0.003  0.011
   10  0.002  0.004  0.009  0.015
   11  0.021  0.009  0.003  0.033
   12  0.002  0.004  0.009  0.015
   13  0.021  0.009  0.003  0.033
   14  0.021  0.009  0.003  0.033
   15  0.028  0.002  0.012  0.041
   16  0.002  0.004  0.009  0.015
   17  0.028  0.002  0.012  0.041
   18  0.028  0.002  0.012  0.041
   19  0.005  0.002  0.008  0.015
   20  0.016  0.003  0.008  0.026
   21  0.016  0.003  0.008  0.026
   22  0.006  0.006  0.005  0.017
   23  0.016  0.003  0.008  0.026
   24  0.006  0.006  0.005  0.017
   25  0.005  0.002  0.008  0.015
   26  0.005  0.002  0.008  0.015
   27  0.006  0.006  0.005  0.017
   28  0.001  0.000  0.003  0.004
   29  0.002  0.000  0.003  0.006
   30  0.002  0.000  0.003  0.006
   31  0.002  0.000  0.003  0.006
   32  0.002  0.000  0.003  0.006
   33  0.002  0.000  0.003  0.006
   34  0.002  0.000  0.003  0.006
   35  0.000  0.000  0.002  0.002
   36  0.001  0.015  0.013  0.029
   37  0.019  0.012  0.000  0.031
   38  0.002  0.004  0.000  0.005
   39  0.001  0.000  0.000  0.001
tot    0.327  0.128  0.211  0.666
 
band    15 # energy   -5.23966561 # occ.  2.00000000
 
ion      s      p      d    tot
    1  0.000  0.004  0.010  0.014
    2  0.003  0.002  0.005  0.010
    3  0.020  0.004  0.005  0.029
    4  0.006  0.002  0.005  0.013
    5  0.000  0.000  0.010  0.010
    6  0.008  0.002  0.005  0.015
    7  0.020  0.004  0.005  0.029
    8  0.005  0.002  0.005  0.011
    9  0.000  0.005  0.008  0.013
   10  0.012  0.001  0.006  0.019
   11  0.001  0.002  0.012  0.015
   12  0.002  0.004  0.016  0.022
   13  0.001  0.003  0.013  0.016
   14  0.003  0.001  0.007  0.012
   15  0.009  0.002  0.016  0.027
   16  0.004  0.003  0.014  0.021
   17  0.005  0.001  0.018  0.024
   18  0.027  0.005  0.005  0.037
   19  0.004  0.002  0.013  0.019
   20  0.001  0.001  0.010  0.012
   21  0.000  0.002  0.013  0.015
   22  0.001  0.002  0.025  0.028
   23  0.000  0.002  0.013  0.015
   24  0.007  0.003  0.003  0.013
   25  0.012  0.007  0.009  0.028
   26  0.002  0.001  0.013  0.017
   27  0.002  0.002  0.021  0.025
   28  0.000  0.005  0.008  0.013
   29  0.005  0.002  0.008  0.015
   30  0.027  0.003  0.010  0.040
   31  0.008  0.002  0.008  0.019
   32  0.009  0.002  0.008  0.020
   33  0.027  0.003  0.010  0.040
   34  0.005  0.002  0.008  0.015
   35  0.000  0.005  0.011  0.016
   36  0.000  0.000  0.016  0.016
   37  0.000  0.000  0.000  0.000
   38  0.000  0.000  0.000  0.000
   39  0.000  0.000  0.000  0.000
tot    0.236  0.093  0.375  0.705
 
band    16 # energy   -5.23959457 # occ.  2.00000000
 
ion      s      p      d    tot
    1  0.000  0.004  0.010  0.014
    2  0.017  0.003  0.005  0.026
    3  0.000  0.002  0.005  0.006
    4  0.015  0.003  0.005  0.023
    5  0.000  0.000  0.010  0.010
    6  0.013  0.003  0.005  0.021
    7  0.000  0.002  0.005  0.007
    8  0.016  0.003  0.005  0.024
    9  0.000  0.005  0.008  0.013
   10  0.000  0.004  0.018  0.022
   11  0.002  0.002  0.010  0.014
   12  0.010  0.002  0.008  0.020
   13  0.003  0.002  0.009  0.013
   14  0.000  0.003  0.014  0.017
   15  0.018  0.003  0.010  0.032
   16  0.008  0.002  0.010  0.020
   17  0.022  0.004  0.008  0.034
   18  0.000  0.000  0.021  0.022
   19  0.008  0.005  0.011  0.024
   20  0.000  0.002  0.014  0.016
   21  0.001  0.001  0.011  0.012
   22  0.006  0.002  0.008  0.016
   23  0.000  0.001  0.011  0.013
   24  0.000  0.002  0.030  0.032
   25  0.000  0.000  0.014  0.015
   26  0.010  0.005  0.010  0.026
   27  0.005  0.002  0.012  0.019
   28  0.000  0.005  0.008  0.013
   29  0.022  0.003  0.010  0.035
   30  0.000  0.002  0.008  0.009
   31  0.019  0.003  0.009  0.031
   32  0.018  0.003  0.009  0.030
   33  0.000  0.002  0.007  0.009
   34  0.022  0.003  0.010  0.035
   35  0.000  0.005  0.011  0.016
   36  0.000  0.000  0.016  0.016
   37  0.000  0.000  0.000  0.000
   38  0.000  0.000  0.000  0.000
   39  0.000  0.000  0.000  0.000
tot    0.236  0.093  0.375  0.705
 
band    17 # energy   -5.21924465 # occ.  2.00000000
 
ion      s      p      d    tot
    1  0.004  0.001  0.010  0.015
    2  0.006  0.001  0.010  0.016
    3  0.006  0.001  0.010  0.016
    4  0.006  0.001  0.010  0.016
    5  0.002  0.001  0.010  0.012
    6  0.006  0.001  0.010  0.016
    7  0.006  0.001  0.010  0.016
    8  0.006  0.001  0.010  0.016
    9  0.014  0.000  0.008  0.022
   10  0.009  0.000  0.025  0.034
   11  0.010  0.000  0.022  0.031
   12  0.009  0.000  0.025  0.034
   13  0.010  0.000  0.022  0.031
   14  0.010  0.000  0.022  0.031
   15  0.003  0.000  0.023  0.026
   16  0.009  0.000  0.025  0.034
   17  0.003  0.000  0.023  0.026
   18  0.003  0.000  0.023  0.027
   19  0.006  0.000  0.021  0.026
   20  0.009  0.000  0.024  0.034
   21  0.009  0.000  0.024  0.033
   22  0.003  0.000  0.020  0.023
   23  0.009  0.000  0.024  0.033
   24  0.003  0.000  0.020  0.023
   25  0.006  0.000  0.021  0.026
   26  0.006  0.000  0.021  0.026
   27  0.003  0.000  0.020  0.023
   28  0.002  0.001  0.007  0.009
   29  0.003  0.001  0.009  0.013
   30  0.003  0.001  0.009  0.013
   31  0.003  0.001  0.009  0.013
   32  0.003  0.001  0.009  0.013
   33  0.003  0.001  0.009  0.013
   34  0.003  0.001  0.009  0.013
   35  0.009  0.000  0.006  0.016
   36  0.002  0.001  0.008  0.011
   37  0.000  0.000  0.000  0.000
   38  0.000  0.000  0.000  0.000
   39  0.000  0.000  0.000  0.000
tot    0.205  0.013  0.561  0.779
 
band    18 # energy   -5.19420566 # occ.  2.00000000
 
ion      s      p      d    tot
    1  0.033  0.003  0.000  0.036
    2  0.000  0.003  0.010  0.013
    3  0.000  0.003  0.010  0.013
    4  0.000  0.003  0.010  0.013
    5  0.000  0.000  0.001  0.001
    6  0.000  0.003  0.010  0.013
    7  0.000  0.003  0.010  0.013
    8  0.000  0.003  0.010  0.013
    9  0.027  0.004  0.001  0.031
   10  0.008  0.003  0.010  0.022
   11  0.001  0.000  0.015  0.016
   12  0.008  0.003  0.010  0.022
   13  0.001  0.000  0.015  0.016
   14  0.001  0.000  0.015  0.016
   15  0.008  0.003  0.015  0.027
   16  0.008  0.003  0.010  0.022
   17  0.008  0.003  0.015  0.027
   18  0.008  0.003  0.015  0.027
   19  0.003  0.003  0.021  0.027
   20  0.000  0.000  0.014  0.014
   21  0.000  0.000  0.014  0.014
   22  0.011  0.004  0.009  0.023
   23  0.000  0.000  0.014  0.014
   24  0.011  0.004  0.009  0.023
   25  0.003  0.003  0.021  0.027
   26  0.003  0.003  0.021  0.027
   27  0.011  0.004  0.009  0.023
   28  0.039  0.003  0.000  0.042
   29  0.000  0.003  0.014  0.017
   30  0.000  0.003  0.014  0.017
   31  0.000  0.003  0.014  0.017
   32  0.000  0.003  0.014  0.017
   33  0.000  0.003  0.014  0.017
   34  0.000  0.003  0.014  0.017
   35  0.028  0.004  0.001  0.032
   36  0.000  0.000  0.000  0.000
   37  0.000  0.000  0.000  0.000
   38  0.000  0.000  0.000  0.000
   39  0.000  0.000  0.000  0.000
tot    0.224  0.091  0.391  0.706
 
band    19 # energy   -5.17875949 # occ.  2.00000000
 
ion      s      p      d    tot
    1  0.000  0.002  0.009  0.011
    2  0.000  0.002  0.005  0.007
    3  0.020  0.004  0.005  0.029
    4  0.009  0.003  0.005  0.017
    5  0.000  0.006  0.009  0.015
    6  0.013  0.003  0.005  0.021
    7  0.018  0.004  0.005  0.027
    8  0.002  0.002  0.005  0.009
    9  0.000  0.001  0.012  0.013
   10  0.001  0.001  0.016  0.018
   11  0.009  0.003  0.016  0.028
   12  0.013  0.004  0.009  0.026
   13  0.019  0.004  0.006  0.029
   14  0.002  0.002  0.024  0.028
   15  0.000  0.002  0.013  0.016
   16  0.006  0.002  0.013  0.022
   17  0.001  0.000  0.008  0.009
   18  0.000  0.004  0.017  0.021
   19  0.001  0.002  0.016  0.018
   20  0.002  0.001  0.029  0.032
   21  0.019  0.005  0.007  0.030
   22  0.009  0.004  0.010  0.023
   23  0.009  0.003  0.019  0.031
   24  0.001  0.001  0.013  0.015
   25  0.000  0.003  0.022  0.025
   26  0.002  0.000  0.008  0.010
   27  0.004  0.002  0.012  0.018
   28  0.000  0.002  0.014  0.016
   29  0.001  0.001  0.006  0.009
   30  0.019  0.004  0.008  0.030
   31  0.011  0.003  0.007  0.020
   32  0.011  0.003  0.007  0.021
   33  0.018  0.004  0.007  0.029
   34  0.001  0.002  0.006  0.009
   35  0.000  0.001  0.011  0.012
   36  0.000  0.008  0.009  0.018
   37  0.000  0.000  0.000  0.000
   38  0.000  0.000  0.000  0.000
   39  0.000  0.000  0.000  0.000
tot    0.222  0.095  0.396  0.712
 
band    20 # energy   -5.17871091 # occ.  2.00000000
 
ion      s      p      d    tot
    1  0.000  0.002  0.009  0.011
    2  0.021  0.004  0.005  0.030
    3  0.001  0.002  0.005  0.008
    4  0.012  0.003  0.005  0.019
    5  0.000  0.006  0.009  0.015
    6  0.008  0.002  0.005  0.016
    7  0.003  0.002  0.005  0.010
    8  0.019  0.004  0.005  0.028
    9  0.000  0.001  0.012  0.013
   10  0.013  0.004  0.009  0.026
   11  0.011  0.003  0.015  0.028
   12  0.001  0.001  0.017  0.018
   13  0.001  0.002  0.025  0.028
   14  0.019  0.004  0.007  0.029
   15  0.000  0.002  0.013  0.015
   16  0.007  0.002  0.012  0.022
   17  0.000  0.004  0.017  0.021
   18  0.001  0.000  0.009  0.010
   19  0.001  0.002  0.015  0.017
   20  0.018  0.005  0.008  0.030
   21  0.001  0.001  0.030  0.032
   22  0.000  0.001  0.013  0.015
   23  0.011  0.003  0.017  0.031
   24  0.009  0.004  0.010  0.022
   25  0.002  0.000  0.009  0.011
   26  0.000  0.003  0.022  0.026
   27  0.005  0.002  0.012  0.019
   28  0.000  0.002  0.014  0.016
   29  0.019  0.004  0.008  0.031
   30  0.002  0.002  0.006  0.009
   31  0.010  0.003  0.007  0.019
   32  0.009  0.002  0.007  0.018
   33  0.002  0.002  0.007  0.010
   34  0.019  0.004  0.007  0.030
   35  0.000  0.001  0.011  0.012
   36  0.000  0.008  0.009  0.018
   37  0.000  0.000  0.000  0.000
   38  0.000  0.000  0.000  0.000
   39  0.000  0.000  0.000  0.000