PROCAR new format
# of k-points:   10         # of bands:  252         # of ions:   37

 k-point     1 :    0.00000000 0.00000000 0.00000000     weight = 0.01562500

band     1 # energy  -10.05816114 # occ.  2.00000000
 
ion      s      p      d    tot
    1  0.000  0.000  0.000  0.000
    2  0.000  0.000  0.000  0.000
    3  0.000  0.000  0.000  0.000
    4  0.000  0.000  0.000  0.000
    5  0.000  0.000  0.000  0.000
    6  0.000  0.000  0.000  0.000
    7  0.000  0.000  0.000  0.000
    8  0.000  0.000  0.000  0.000
    9  0.000  0.000  0.000  0.000
   10  0.000  0.000  0.000  0.000
   11  0.000  0.000  0.000  0.000
   12  0.000  0.000  0.000  0.000
   13  0.000  0.000  0.000  0.000
   14  0.000  0.000  0.000  0.000
   15  0.000  0.000  0.000  0.000
   16  0.000  0.000  0.000  0.000
   17  0.000  0.000  0.000  0.000
   18  0.000  0.000  0.000  0.000
   19  0.000  0.000  0.000  0.000
   20  0.002  0.000  0.001  0.004
   21  0.002  0.000  0.001  0.004
   22  0.000  0.000  0.000  0.000
   23  0.002  0.000  0.001  0.004
   24  0.000  0.000  0.000  0.000
   25  0.000  0.000  0.000  0.000
   26  0.000  0.000  0.000  0.000
   27  0.000  0.000  0.000  0.000
   28  0.000  0.000  0.000  0.000
   29  0.001  0.000  0.000  0.002
   30  0.001  0.000  0.000  0.002
   31  0.001  0.000  0.000  0.002
   32  0.001  0.000  0.000  0.002
   33  0.001  0.000  0.000  0.002
   34  0.001  0.000  0.000  0.002
   35  0.000  0.000  0.000  0.000
   36  0.085  0.068  0.251  0.404
   37  0.418  0.033  0.000  0.451
tot    0.516  0.103  0.258  0.878
 
band     2 # energy   -8.56367479 # occ.  2.00000000
 
ion      s      p      d    tot
    1  0.007  0.001  0.000  0.007
    2  0.007  0.001  0.000  0.007
    3  0.007  0.001  0.000  0.007
    4  0.007  0.001  0.000  0.007
    5  0.007  0.001  0.000  0.007
    6  0.007  0.001  0.000  0.007
    7  0.007  0.001  0.000  0.007
    8  0.007  0.001  0.000  0.007
    9  0.007  0.001  0.000  0.007
   10  0.027  0.000  0.000  0.027
   11  0.027  0.000  0.000  0.028
   12  0.027  0.000  0.000  0.027
   13  0.027  0.000  0.000  0.028
   14  0.027  0.000  0.000  0.028
   15  0.027  0.000  0.000  0.027
   16  0.027  0.000  0.000  0.027
   17  0.027  0.000  0.000  0.027
   18  0.027  0.000  0.000  0.027
   19  0.024  0.000  0.000  0.024
   20  0.024  0.000  0.000  0.024
   21  0.024  0.000  0.000  0.024
   22  0.024  0.000  0.000  0.025
   23  0.024  0.000  0.000  0.024
   24  0.024  0.000  0.000  0.025
   25  0.024  0.000  0.000  0.024
   26  0.024  0.000  0.000  0.024
   27  0.024  0.000  0.000  0.025
   28  0.005  0.000  0.000  0.005
   29  0.004  0.000  0.000  0.005
   30  0.004  0.000  0.000  0.005
   31  0.004  0.000  0.000  0.005
   32  0.004  0.000  0.000  0.005
   33  0.004  0.000  0.000  0.005
   34  0.004  0.000  0.000  0.005
   35  0.005  0.000  0.000  0.005
   36  0.001  0.004  0.004  0.009
   37  0.006  0.000  0.000  0.007
tot    0.562  0.016  0.008  0.586
 
band     3 # energy   -7.37629943 # occ.  2.00000000
 
ion      s      p      d    tot
    1  0.017  0.000  0.001  0.019
    2  0.017  0.000  0.001  0.018
    3  0.017  0.000  0.001  0.018
    4  0.017  0.000  0.001  0.018
    5  0.017  0.000  0.001  0.018
    6  0.017  0.000  0.001  0.018
    7  0.017  0.000  0.001  0.018
    8  0.017  0.000  0.001  0.018
    9  0.016  0.000  0.001  0.018
   10  0.010  0.001  0.002  0.014
   11  0.010  0.002  0.003  0.014
   12  0.010  0.001  0.002  0.014
   13  0.010  0.002  0.003  0.014
   14  0.010  0.002  0.003  0.014
   15  0.009  0.002  0.003  0.013
   16  0.010  0.001  0.002  0.014
   17  0.009  0.002  0.003  0.013
   18  0.009  0.002  0.003  0.013
   19  0.016  0.001  0.004  0.020
   20  0.013  0.001  0.004  0.018
   21  0.013  0.001  0.004  0.018
   22  0.016  0.001  0.004  0.021
   23  0.013  0.001  0.004  0.018
   24  0.016  0.001  0.004  0.021
   25  0.016  0.001  0.004  0.020
   26  0.016  0.001  0.004  0.020
   27  0.016  0.001  0.004  0.021
   28  0.015  0.001  0.000  0.016
   29  0.013  0.001  0.001  0.014
   30  0.013  0.001  0.001  0.014
   31  0.013  0.001  0.001  0.014
   32  0.013  0.001  0.001  0.014
   33  0.013  0.001  0.001  0.014
   34  0.013  0.001  0.001  0.014
   35  0.015  0.001  0.000  0.016
   36  0.004  0.003  0.007  0.013
   37  0.004  0.000  0.000  0.004
tot    0.490  0.035  0.079  0.603
 
band     4 # energy   -6.46432173 # occ.  2.00000000
 
ion      s      p      d    tot
    1  0.002  0.000  0.013  0.016
    2  0.009  0.000  0.010  0.019
    3  0.009  0.000  0.010  0.019
    4  0.009  0.000  0.010  0.019
    5  0.005  0.000  0.007  0.012
    6  0.009  0.000  0.010  0.019
    7  0.009  0.000  0.010  0.019
    8  0.009  0.000  0.010  0.019
    9  0.030  0.001  0.004  0.034
   10  0.011  0.001  0.014  0.026
   11  0.011  0.002  0.009  0.022
   12  0.011  0.001  0.014  0.026
   13  0.011  0.002  0.009  0.022
   14  0.011  0.002  0.008  0.022
   15  0.005  0.001  0.012  0.018
   16  0.011  0.001  0.014  0.026
   17  0.005  0.001  0.012  0.018
   18  0.005  0.001  0.012  0.018
   19  0.000  0.001  0.014  0.015
   20  0.020  0.002  0.011  0.032
   21  0.020  0.002  0.011  0.032
   22  0.005  0.002  0.004  0.011
   23  0.020  0.002  0.011  0.032
   24  0.005  0.002  0.004  0.011
   25  0.000  0.001  0.014  0.015
   26  0.000  0.001  0.014  0.015
   27  0.005  0.002  0.004  0.011
   28  0.011  0.000  0.002  0.013
   29  0.008  0.000  0.007  0.015
   30  0.008  0.000  0.007  0.015
   31  0.008  0.000  0.007  0.015
   32  0.008  0.000  0.007  0.015
   33  0.008  0.000  0.007  0.015
   34  0.008  0.000  0.007  0.015
   35  0.019  0.000  0.003  0.023
   36  0.000  0.003  0.011  0.014
   37  0.001  0.001  0.000  0.002
tot    0.325  0.032  0.331  0.688
 
band     5 # energy   -6.44946610 # occ.  2.00000000
 
ion      s      p      d    tot
    1  0.000  0.001  0.008  0.009
    2  0.003  0.001  0.003  0.007
    3  0.006  0.001  0.003  0.010
    4  0.004  0.001  0.003  0.008
    5  0.000  0.001  0.006  0.007
    6  0.001  0.000  0.003  0.004
    7  0.006  0.001  0.003  0.011
    8  0.000  0.000  0.003  0.003
    9  0.000  0.000  0.001  0.001
   10  0.000  0.000  0.037  0.037
   11  0.034  0.002  0.015  0.050
   12  0.031  0.002  0.011  0.044
   13  0.038  0.001  0.014  0.053
   14  0.000  0.004  0.021  0.025
   15  0.000  0.001  0.010  0.012
   16  0.028  0.002  0.014  0.043
   17  0.000  0.001  0.011  0.012
   18  0.000  0.003  0.006  0.009
   19  0.010  0.001  0.011  0.022
   20  0.000  0.002  0.037  0.039
   21  0.050  0.001  0.014  0.065
   22  0.011  0.001  0.010  0.022
   23  0.044  0.002  0.017  0.062
   24  0.000  0.001  0.026  0.027
   25  0.000  0.004  0.003  0.008
   26  0.011  0.001  0.012  0.024
   27  0.010  0.001  0.012  0.023
   28  0.000  0.000  0.001  0.002
   29  0.000  0.000  0.003  0.003
   30  0.004  0.001  0.003  0.008
   31  0.000  0.000  0.002  0.003
   32  0.005  0.001  0.004  0.010
   33  0.004  0.001  0.003  0.007
   34  0.005  0.001  0.003  0.009
   35  0.000  0.000  0.004  0.004
   36  0.000  0.002  0.011  0.013
   37  0.000  0.000  0.000  0.000
tot    0.305  0.043  0.347  0.695
 
band     6 # energy   -6.44946325 # occ.  2.00000000
 
ion      s      p      d    tot
    1  0.000  0.001  0.008  0.009
    2  0.004  0.001  0.003  0.007
    3  0.001  0.000  0.003  0.004
    4  0.003  0.001  0.003  0.006
    5  0.000  0.001  0.006  0.007
    6  0.006  0.001  0.003  0.011
    7  0.000  0.000  0.003  0.004
    8  0.006  0.001  0.003  0.011
    9  0.000  0.000  0.001  0.001
   10  0.039  0.002  0.004  0.046
   11  0.014  0.003  0.018  0.035
   12  0.008  0.000  0.030  0.039
   13  0.010  0.003  0.019  0.032
   14  0.048  0.001  0.012  0.060
   15  0.000  0.002  0.008  0.010
   16  0.012  0.001  0.027  0.040
   17  0.000  0.003  0.007  0.010
   18  0.000  0.000  0.012  0.013
   19  0.004  0.003  0.007  0.014
   20  0.062  0.001  0.008  0.072
   21  0.013  0.002  0.031  0.046
   22  0.003  0.001  0.022  0.026
   23  0.019  0.002  0.028  0.049
   24  0.014  0.002  0.006  0.021
   25  0.014  0.000  0.014  0.028
   26  0.003  0.003  0.006  0.012
   27  0.004  0.001  0.020  0.025
   28  0.000  0.000  0.001  0.002
   29  0.006  0.001  0.003  0.010
   30  0.002  0.001  0.003  0.005
   31  0.006  0.001  0.003  0.011
   32  0.001  0.000  0.002  0.004
   33  0.002  0.001  0.003  0.006
   34  0.001  0.000  0.003  0.004
   35  0.000  0.000  0.004  0.004
   36  0.000  0.002  0.011  0.013
   37  0.000  0.000  0.000  0.000
tot    0.305  0.043  0.347  0.695
 
band     7 # energy   -6.43083207 # occ.  2.00000000
 
ion      s      p      d    tot
    1  0.025  0.000  0.009  0.034
    2  0.012  0.000  0.014  0.026
    3  0.012  0.000  0.014  0.026
    4  0.012  0.000  0.014  0.026
    5  0.012  0.000  0.015  0.027
    6  0.012  0.000  0.014  0.026
    7  0.012  0.000  0.014  0.026
    8  0.012  0.000  0.014  0.026
    9  0.003  0.001  0.015  0.019
   10  0.000  0.000  0.032  0.033
   11  0.004  0.000  0.025  0.029
   12  0.000  0.000  0.032  0.033
   13  0.004  0.000  0.025  0.029
   14  0.004  0.000  0.025  0.029
   15  0.024  0.001  0.016  0.040
   16  0.000  0.000  0.032  0.033
   17  0.024  0.001  0.016  0.040
   18  0.024  0.001  0.016  0.040
   19  0.003  0.000  0.013  0.017
   20  0.010  0.000  0.014  0.024
   21  0.010  0.000  0.014  0.024
   22  0.002  0.001  0.012  0.015
   23  0.010  0.000  0.014  0.024
   24  0.002  0.001  0.012  0.015
   25  0.003  0.000  0.013  0.017
   26  0.003  0.000  0.013  0.017
   27  0.002  0.001  0.012  0.015
   28  0.000  0.000  0.001  0.001
   29  0.001  0.000  0.002  0.003
   30  0.001  0.000  0.002  0.003
   31  0.001  0.000  0.002  0.003
   32  0.001  0.000  0.002  0.003
   33  0.001  0.000  0.002  0.003
   34  0.001  0.000  0.002  0.003
   35  0.005  0.000  0.000  0.005
   36  0.000  0.002  0.002  0.004
   37  0.001  0.000  0.000  0.001
tot    0.249  0.014  0.475  0.738
 
band     8 # energy   -6.41264258 # occ.  2.00000000
 
ion      s      p      d    tot
    1  0.006  0.001  0.001  0.008
    2  0.000  0.001  0.006  0.007
    3  0.000  0.001  0.006  0.007
    4  0.000  0.001  0.006  0.007
    5  0.018  0.002  0.001  0.020
    6  0.000  0.001  0.006  0.007
    7  0.000  0.001  0.006  0.007
    8  0.000  0.001  0.006  0.007
    9  0.000  0.000  0.002  0.002
   10  0.025  0.003  0.002  0.030
   11  0.020  0.001  0.022  0.043
   12  0.025  0.003  0.002  0.030
   13  0.020  0.001  0.022  0.043
   14  0.020  0.001  0.022  0.043
   15  0.001  0.001  0.025  0.026
   16  0.025  0.003  0.002  0.030
   17  0.001  0.001  0.025  0.026
   18  0.001  0.001  0.025  0.026
   19  0.024  0.002  0.008  0.034
   20  0.007  0.003  0.014  0.024
   21  0.007  0.003  0.014  0.024
   22  0.009  0.000  0.025  0.034
   23  0.007  0.003  0.014  0.024
   24  0.009  0.000  0.026  0.034
   25  0.024  0.002  0.008  0.033
   26  0.024  0.002  0.008  0.034
   27  0.009  0.000  0.025  0.034
   28  0.012  0.001  0.000  0.014
   29  0.000  0.000  0.004  0.005
   30  0.000  0.000  0.004  0.005
   31  0.000  0.000  0.004  0.005
   32  0.000  0.000  0.004  0.005
   33  0.000  0.000  0.004  0.005
   34  0.000  0.000  0.004  0.005
   35  0.003  0.001  0.003  0.007
   36  0.000  0.000  0.000  0.001
   37  0.000  0.000  0.000  0.000
tot    0.300  0.041  0.355  0.695
 
band     9 # energy   -6.40404515 # occ.  2.00000000
 
ion      s      p      d    tot
    1  0.000  0.001  0.003  0.003
    2  0.003  0.001  0.004  0.008
    3  0.007  0.001  0.003  0.012
    4  0.004  0.001  0.004  0.009
    5  0.000  0.000  0.005  0.005
    6  0.001  0.000  0.003  0.004
    7  0.007  0.001  0.003  0.012
    8  0.001  0.000  0.003  0.004
    9  0.000  0.001  0.010  0.011
   10  0.021  0.000  0.016  0.037
   11  0.003  0.001  0.021  0.025
   12  0.005  0.004  0.006  0.015
   13  0.002  0.001  0.022  0.025
   14  0.011  0.001  0.007  0.019
   15  0.017  0.001  0.030  0.048
   16  0.006  0.003  0.007  0.016
   17  0.014  0.001  0.032  0.047
   18  0.061  0.002  0.006  0.068
   19  0.011  0.001  0.029  0.040
   20  0.000  0.001  0.013  0.014
   21  0.000  0.002  0.010  0.012
   22  0.009  0.003  0.016  0.028
   23  0.000  0.002  0.010  0.012
   24  0.041  0.001  0.012  0.054
   25  0.041  0.002  0.003  0.046
   26  0.009  0.001  0.030  0.040
   27  0.011  0.003  0.016  0.030
   28  0.000  0.000  0.007  0.007
   29  0.000  0.000  0.002  0.003
   30  0.003  0.001  0.002  0.006
   31  0.000  0.000  0.002  0.003
   32  0.005  0.001  0.003  0.009
   33  0.003  0.001  0.002  0.005
   34  0.005  0.001  0.003  0.009
   35  0.000  0.001  0.005  0.005
   36  0.000  0.000  0.001  0.001
   37  0.000  0.000  0.000  0.000
tot    0.301  0.042  0.351  0.694
 
band    10 # energy   -6.40403416 # occ.  2.00000000
 
ion      s      p      d    tot
    1  0.000  0.001  0.003  0.003
    2  0.004  0.001  0.003  0.008
    3  0.001  0.000  0.003  0.004
    4  0.004  0.001  0.003  0.008
    5  0.000  0.000  0.005  0.005
    6  0.007  0.001  0.004  0.012
    7  0.000  0.000  0.003  0.004
    8  0.007  0.001  0.004  0.012
    9  0.000  0.001  0.010  0.011
   10  0.000  0.005  0.004  0.008
   11  0.008  0.001  0.012  0.021
   12  0.016  0.001  0.013  0.031
   13  0.008  0.001  0.011  0.021
   14  0.000  0.001  0.026  0.027
   15  0.044  0.001  0.015  0.061
   16  0.015  0.001  0.013  0.029
   17  0.047  0.002  0.013  0.062
   18  0.000  0.001  0.039  0.041
   19  0.029  0.002  0.013  0.044
   20  0.000  0.003  0.009  0.012
   21  0.000  0.001  0.012  0.014
   22  0.032  0.001  0.013  0.046
   23  0.000  0.001  0.012  0.013
   24  0.000  0.004  0.017  0.021
   25  0.000  0.000  0.038  0.039
   26  0.031  0.002  0.011  0.044
   27  0.030  0.001  0.014  0.045
   28  0.000  0.000  0.007  0.007
   29  0.005  0.001  0.003  0.009
   30  0.002  0.001  0.003  0.006
   31  0.005  0.001  0.003  0.009
   32  0.000  0.000  0.002  0.003
   33  0.003  0.001  0.003  0.006
   34  0.001  0.000  0.002  0.003
   35  0.000  0.001  0.005  0.005
   36  0.000  0.000  0.001  0.001
   37  0.000  0.000  0.000  0.000
tot    0.301  0.042  0.351  0.694
 
band    11 # energy   -6.33241383 # occ.  2.00000000
 
ion      s      p      d    tot
    1  0.004  0.000  0.000  0.004
    2  0.000  0.000  0.003  0.003
    3  0.000  0.000  0.003  0.003
    4  0.000  0.000  0.003  0.003
    5  0.004  0.000  0.000  0.004
    6  0.000  0.000  0.003  0.003
    7  0.000  0.000  0.003  0.003
    8  0.000  0.000  0.003  0.003
    9  0.004  0.001  0.001  0.006
   10  0.002  0.000  0.013  0.016
   11  0.004  0.001  0.004  0.009
   12  0.002  0.000  0.013  0.016
   13  0.004  0.001  0.004  0.009
   14  0.004  0.001  0.004  0.009
   15  0.013  0.001  0.007  0.021
   16  0.002  0.000  0.013  0.016
   17  0.013  0.001  0.007  0.021
   18  0.012  0.001  0.007  0.021
   19  0.004  0.001  0.017  0.022
   20  0.000  0.000  0.028  0.028
   21  0.000  0.000  0.028  0.028
   22  0.016  0.002  0.014  0.033
   23  0.000  0.000  0.028  0.028
   24  0.016  0.002  0.014  0.033
   25  0.004  0.001  0.017  0.022
   26  0.004  0.001  0.017  0.022
   27  0.016  0.002  0.014  0.033
   28  0.018  0.000  0.018  0.036
   29  0.018  0.000  0.015  0.033
   30  0.018  0.000  0.015  0.033
   31  0.018  0.000  0.015  0.033
   32  0.018  0.000  0.015  0.033
   33  0.018  0.000  0.015  0.033
   34  0.018  0.000  0.015  0.033
   35  0.013  0.000  0.016  0.029
   36  0.011  0.000  0.025  0.037
   37  0.001  0.001  0.000  0.002
tot    0.282  0.023  0.415  0.720
 
band    12 # energy   -5.95706926 # occ.  2.00000000
 
ion      s      p      d    tot
    1  0.000  0.001  0.004  0.005
    2  0.001  0.001  0.005  0.006
    3  0.009  0.001  0.005  0.015
    4  0.001  0.001  0.005  0.006
    5  0.000  0.001  0.010  0.012
    6  0.005  0.001  0.004  0.009
    7  0.009  0.001  0.005  0.015
    8  0.005  0.001  0.004  0.009
    9  0.000  0.000  0.009  0.009
   10  0.000  0.001  0.049  0.050
   11  0.017  0.001  0.021  0.039
   12  0.007  0.002  0.019  0.028
   13  0.017  0.001  0.021  0.039
   14  0.000  0.000  0.053  0.053
   15  0.002  0.000  0.020  0.022
   16  0.007  0.002  0.019  0.028
   17  0.002  0.000  0.020  0.022
   18  0.000  0.001  0.011  0.013
   19  0.004  0.000  0.019  0.023
   20  0.000  0.000  0.069  0.069
   21  0.017  0.001  0.022  0.040
   22  0.004  0.001  0.019  0.023
   23  0.017  0.001  0.022  0.040
   24  0.000  0.001  0.036  0.037
   25  0.000  0.001  0.011  0.012
   26  0.004  0.000  0.019  0.023
   27  0.004  0.001  0.019  0.023
   28  0.000  0.000  0.007  0.007
   29  0.002  0.001  0.004  0.007
   30  0.008  0.001  0.004  0.014
   31  0.002  0.001  0.004  0.007
   32  0.002  0.001  0.004  0.006
   33  0.008  0.001  0.004  0.014
   34  0.002  0.001  0.004  0.006
   35  0.000  0.000  0.003  0.003
   36  0.000  0.002  0.012  0.014
   37  0.000  0.000  0.000  0.000
tot    0.155  0.031  0.565  0.751
 
band    13 # energy   -5.95706164 # occ.  2.00000000
 
ion      s      p      d    tot
    1  0.000  0.001  0.004  0.005
    2  0.009  0.001  0.004  0.014
    3  0.000  0.000  0.004  0.005
    4  0.009  0.001  0.004  0.014
    5  0.000  0.001  0.010  0.012
    6  0.005  0.001  0.005  0.012
    7  0.000  0.000  0.004  0.005
    8  0.005  0.001  0.005  0.012
    9  0.000  0.000  0.009  0.009
   10  0.009  0.002  0.009  0.020
   11  0.006  0.000  0.042  0.048
   12  0.002  0.001  0.039  0.042
   13  0.006  0.000  0.042  0.048
   14  0.023  0.001  0.010  0.034
   15  0.001  0.001  0.014  0.016
   16  0.002  0.001  0.039  0.042
   17  0.001  0.001  0.014  0.016
   18  0.003  0.000  0.023  0.026
   19  0.001  0.001  0.014  0.016
   20  0.022  0.002  0.006  0.030
   21  0.006  0.000  0.053  0.059
   22  0.001  0.001  0.030  0.033
   23  0.006  0.000  0.053  0.059
   24  0.005  0.001  0.013  0.019
   25  0.006  0.000  0.021  0.027
   26  0.001  0.001  0.014  0.016
   27  0.001  0.001  0.030  0.033
   28  0.000  0.000  0.007  0.007
   29  0.006  0.001  0.004  0.011
   30  0.000  0.000  0.004  0.004
   31  0.006  0.001  0.004  0.011
   32  0.006  0.001  0.004  0.011
   33  0.000  0.000  0.004  0.004
   34  0.006  0.001  0.004  0.011
   35  0.000  0.000  0.003  0.003
   36  0.000  0.002  0.012  0.014
   37  0.000  0.000  0.000  0.000
tot    0.155  0.031  0.565  0.751
 
band    14 # energy   -5.94755536 # occ.  2.00000000
 
ion      s      p      d    tot
    1  0.012  0.002  0.002  0.016
    2  0.000  0.001  0.008  0.008
    3  0.000  0.001  0.008  0.008
    4  0.000  0.001  0.008  0.008
    5  0.000  0.000  0.002  0.002
    6  0.000  0.001  0.008  0.008
    7  0.000  0.001  0.008  0.008
    8  0.000  0.001  0.008  0.008
    9  0.017  0.001  0.000  0.018
   10  0.010  0.001  0.014  0.026
   11  0.002  0.000  0.045  0.047
   12  0.010  0.001  0.014  0.026
   13  0.002  0.000  0.045  0.047
   14  0.002  0.000  0.045  0.047
   15  0.004  0.001  0.021  0.025
   16  0.010  0.001  0.014  0.026
   17  0.004  0.001  0.021  0.025
   18  0.004  0.001  0.020  0.025
   19  0.003  0.001  0.016  0.021
   20  0.002  0.000  0.049  0.051
   21  0.002  0.000  0.049  0.051
   22  0.012  0.001  0.016  0.029
   23  0.002  0.000  0.049  0.051
   24  0.012  0.001  0.016  0.029
   25  0.003  0.001  0.016  0.021
   26  0.003  0.001  0.016  0.021
   27  0.012  0.001  0.016  0.029
   28  0.013  0.001  0.000  0.015
   29  0.000  0.001  0.006  0.007
   30  0.000  0.001  0.006  0.007
   31  0.000  0.001  0.006  0.007
   32  0.000  0.001  0.006  0.007
   33  0.000  0.001  0.006  0.007
   34  0.000  0.001  0.006  0.007
   35  0.008  0.001  0.003  0.012
   36  0.000  0.000  0.002  0.002
   37  0.000  0.000  0.000  0.000
tot    0.150  0.028  0.575  0.753
 
band    15 # energy   -5.91867025 # occ.  2.00000000
 
ion      s      p      d    tot
    1  0.000  0.001  0.013  0.014
    2  0.009  0.001  0.004  0.015
    3  0.001  0.000  0.005  0.006
    4  0.009  0.001  0.004  0.015
    5  0.000  0.000  0.005  0.006
    6  0.005  0.001  0.005  0.011
    7  0.001  0.000  0.005  0.006
    8  0.005  0.001  0.005  0.011
    9  0.000  0.001  0.006  0.008
   10  0.000  0.001  0.031  0.031
   11  0.000  0.001  0.020  0.021
   12  0.009  0.000  0.022  0.031
   13  0.000  0.001  0.020  0.021
   14  0.000  0.001  0.019  0.020
   15  0.012  0.002  0.020  0.034
   16  0.009  0.000  0.022  0.031
   17  0.012  0.002  0.020  0.034
   18  0.000  0.000  0.063  0.063
   19  0.014  0.001  0.020  0.035
   20  0.000  0.002  0.019  0.021
   21  0.000  0.001  0.022  0.022
   22  0.015  0.001  0.021  0.037
   23  0.000  0.001  0.022  0.022
   24  0.000  0.001  0.032  0.033
   25  0.000  0.000  0.065  0.065
   26  0.014  0.001  0.020  0.035
   27  0.015  0.001  0.021  0.037
   28  0.000  0.001  0.005  0.006
   29  0.006  0.001  0.004  0.011
   30  0.000  0.000  0.004  0.005
   31  0.006  0.001  0.004  0.011
   32  0.005  0.001  0.003  0.009
   33  0.000  0.000  0.004  0.005
   34  0.005  0.001  0.003  0.009
   35  0.000  0.001  0.009  0.009
   36  0.000  0.000  0.002  0.002
   37  0.000  0.000  0.000  0.000
tot    0.152  0.030  0.568  0.750
 
band    16 # energy   -5.91865500 # occ.  2.00000000
 
ion      s      p      d    tot
    1  0.000  0.001  0.013  0.014
    2  0.001  0.001  0.005  0.006
    3  0.009  0.001  0.005  0.015
    4  0.001  0.001  0.005  0.006
    5  0.000  0.000  0.005  0.006
    6  0.005  0.001  0.004  0.010
    7  0.009  0.001  0.005  0.015
    8  0.005  0.001  0.004  0.010
    9  0.000  0.001  0.006  0.008
   10  0.012  0.000  0.019  0.031
   11  0.000  0.001  0.019  0.020
   12  0.003  0.001  0.028  0.031
   13  0.000  0.001  0.019  0.020
   14  0.000  0.001  0.020  0.021
   15  0.004  0.001  0.049  0.053
   16  0.003  0.001  0.028  0.031
   17  0.004  0.001  0.049  0.053
   18  0.016  0.002  0.006  0.024
   19  0.005  0.001  0.050  0.055
   20  0.000  0.000  0.022  0.023
   21  0.000  0.001  0.020  0.022
   22  0.005  0.001  0.028  0.034
   23  0.000  0.001  0.020  0.022
   24  0.020  0.001  0.017  0.038
   25  0.018  0.002  0.005  0.025
   26  0.005  0.001  0.050  0.055
   27  0.005  0.001  0.028  0.034
   28  0.000  0.001  0.005  0.006
   29  0.002  0.000  0.003  0.005
   30  0.007  0.001  0.003  0.012
   31  0.002  0.000  0.003  0.005
   32  0.002  0.001  0.005  0.007
   33  0.007  0.001  0.003  0.012
   34  0.002  0.001  0.005  0.007
   35  0.000  0.001  0.009  0.010
   36  0.000  0.000  0.002  0.002
   37  0.000  0.000  0.000  0.000
tot    0.152  0.030  0.568  0.750
 
band    17 # energy   -5.89716760 # occ.  2.00000000
 
ion      s      p      d    tot
    1  0.011  0.001  0.000  0.012
    2  0.000  0.001  0.009  0.009
    3  0.000  0.001  0.009  0.009
    4  0.000  0.001  0.009  0.009
    5  0.017  0.002  0.001  0.020
    6  0.000  0.001  0.009  0.009
    7  0.000  0.001  0.009  0.009
    8  0.000  0.001  0.009  0.009
    9  0.001  0.000  0.002  0.004
   10  0.000  0.000  0.041  0.042
   11  0.007  0.002  0.010  0.019
   12  0.000  0.000  0.041  0.042
   13  0.007  0.002  0.010  0.019
   14  0.007  0.002  0.010  0.019
   15  0.005  0.001  0.029  0.035
   16  0.000  0.000  0.041  0.042
   17  0.005  0.001  0.029  0.035
   18  0.005  0.001  0.029  0.035
   19  0.010  0.001  0.041  0.052
   20  0.009  0.001  0.006  0.016
   21  0.009  0.001  0.006  0.016
   22  0.000  0.000  0.039  0.039
   23  0.009  0.001  0.006  0.016
   24  0.000  0.000  0.039  0.039
   25  0.010  0.001  0.041  0.052
   26  0.010  0.001  0.041  0.052
   27  0.000  0.000  0.039  0.039
   28  0.000  0.001  0.007  0.008
   29  0.001  0.000  0.006  0.007
   30  0.001  0.000  0.006  0.007
   31  0.001  0.000  0.006  0.007
   32  0.001  0.000  0.006  0.007
   33  0.001  0.000  0.006  0.007
   34  0.001  0.000  0.006  0.007
   35  0.001  0.000  0.000  0.001
   36  0.008  0.005  0.000  0.013
   37  0.002  0.000  0.000  0.002
tot    0.140  0.029  0.594  0.763
 
band    18 # energy   -5.56264961 # occ.  2.00000000
 
ion      s      p      d    tot
    1  0.000  0.000  0.017  0.017
    2  0.001  0.001  0.010  0.011
    3  0.005  0.000  0.014  0.019
    4  0.001  0.001  0.010  0.011
    5  0.000  0.001  0.025  0.026
    6  0.008  0.001  0.009  0.018
    7  0.005  0.000  0.014  0.019
    8  0.008  0.001  0.009  0.018
    9  0.000  0.001  0.005  0.006
   10  0.000  0.000  0.019  0.020
   11  0.000  0.000  0.054  0.054
   12  0.000  0.000  0.011  0.012
   13  0.000  0.000  0.054  0.054
   14  0.000  0.000  0.049  0.049
   15  0.000  0.000  0.027  0.027
   16  0.000  0.000  0.011  0.012
   17  0.000  0.000  0.026  0.027
   18  0.000  0.000  0.041  0.041
   19  0.000  0.000  0.009  0.009
   20  0.001  0.000  0.061  0.062
   21  0.000  0.000  0.042  0.043
   22  0.000  0.000  0.035  0.035
   23  0.000  0.000  0.042  0.043
   24  0.000  0.000  0.031  0.032
   25  0.000  0.000  0.013  0.014
   26  0.000  0.000  0.009  0.009
   27  0.000  0.000  0.035  0.035
   28  0.000  0.000  0.009  0.010
   29  0.006  0.000  0.011  0.017
   30  0.000  0.000  0.008  0.008
   31  0.006  0.000  0.011  0.017
   32  0.006  0.001  0.006  0.012
   33  0.000  0.000  0.008  0.009
   34  0.006  0.001  0.006  0.013
   35  0.000  0.000  0.017  0.017
   36  0.000  0.002  0.008  0.010
   37  0.000  0.000  0.000  0.000
tot    0.054  0.014  0.764  0.833
 
band    19 # energy   -5.56264188 # occ.  2.00000000
 
ion      s      p      d    tot
    1  0.000  0.000  0.017  0.017
    2  0.008  0.000  0.012  0.021
    3  0.004  0.001  0.008  0.013
    4  0.008  0.000  0.012  0.021
    5  0.000  0.001  0.025  0.026
    6  0.001  0.000  0.013  0.014
    7  0.004  0.001  0.008  0.013
    8  0.001  0.000  0.013  0.014
    9  0.000  0.001  0.005  0.006
   10  0.000  0.000  0.009  0.009
   11  0.000  0.000  0.051  0.051
   12  0.000  0.000  0.017  0.017
   13  0.000  0.000  0.051  0.051
   14  0.000  0.000  0.055  0.055
   15  0.000  0.000  0.036  0.036
   16  0.000  0.000  0.017  0.017
   17  0.000  0.000  0.036  0.036
   18  0.000  0.000  0.022  0.022
   19  0.000  0.000  0.011  0.012
   20  0.000  0.000  0.036  0.036
   21  0.001  0.000  0.055  0.056
   22  0.000  0.000  0.033  0.033
   23  0.001  0.000  0.055  0.056
   24  0.000  0.000  0.035  0.035
   25  0.000  0.000  0.008  0.008
   26  0.000  0.000  0.011  0.012
   27  0.000  0.000  0.033  0.033
   28  0.000  0.000  0.009  0.010
   29  0.002  0.001  0.006  0.008
   30  0.008  0.001  0.008  0.017
   31  0.002  0.001  0.006  0.008
   32  0.002  0.000  0.011  0.013
   33  0.008  0.001  0.008  0.017
   34  0.002  0.000  0.011  0.013
   35  0.000  0.000  0.017  0.017
   36  0.000  0.002  0.008  0.010
   37  0.000  0.000  0.000  0.000
tot    0.054  0.014  0.764  0.833
 
band    20 # energy   -5.56019560 # occ.  2.00000000
 
ion      s      p      d    tot
    1  0.013  0.000  0.005  0.019
    2  0.000  0.001  0.011  0.012
    3  0.000  0.001  0.011  0.012
    4  0.000  0.001  0.011  0.012
    5  0.000  0.000  0.012  0.012
    6  0.000  0.001  0.011  0.012
    7  0.000  0.001  0.011  0.012
    8  0.000  0.001  0.011  0.012
    9  0.009  0.001  0.001  0.011
   10  0.000  0.000  0.026  0.026
   11  0.000  0.000  0.045  0.045
   12  0.000  0.000  0.026  0.026
   13  0.000  0.000  0.045  0.045
   14  0.000  0.000  0.045  0.046
   15  0.000  0.000  0.030  0.030
   16  0.000  0.000  0.026  0.026
   17  0.000  0.000  0.030  0.030
   18  0.000  0.000  0.029  0.029
   19  0.000  0.000  0.020  0.020
   20  0.001  0.000  0.040  0.041
   21  0.001  0.000  0.040  0.041
   22  0.000  0.000  0.033  0.033
   23  0.001  0.000  0.040  0.041
   24  0.000  0.000  0.033  0.034
   25  0.000  0.000  0.020  0.020
   26  0.000  0.000  0.020  0.020
   27  0.000  0.000  0.033  0.033
   28  0.005  0.001  0.000  0.006
   29  0.000  0.001  0.013  0.014
   30  0.000  0.001  0.014  0.014
   31  0.000  0.001  0.013  0.014
   32  0.000  0.001  0.014  0.014
   33  0.000  0.001  0.014  0.014
   34  0.000  0.001  0.014  0.014
   35  0.018  0.001  0.003  0.021
   36  0.002  0.000  0.010  0.013
   37  0.001  0.001  0.000  0.002
tot    0.054  0.016  0.759  0.829
 
band    21 # energy   -5.53704357 # occ.  2.00000000
 
ion      s      p      d    tot
    1  0.004  0.001  0.005  0.009
    2  0.000  0.001  0.020  0.021
    3  0.000  0.001  0.020  0.021
    4  0.000  0.001  0.020  0.021
    5  0.029  0.001  0.001  0.031
    6  0.000  0.001  0.020  0.021
    7  0.000  0.001  0.020  0.021
    8  0.000  0.001  0.020  0.021
    9  0.012  0.000  0.012  0.025
   10  0.000  0.000  0.042  0.042
   11  0.000  0.001  0.032  0.033
   12  0.000  0.000  0.042  0.042
   13  0.000  0.001  0.032  0.033
   14  0.000  0.001  0.032  0.033
   15  0.000  0.000  0.034  0.034
   16  0.000  0.000  0.042  0.042
   17  0.000  0.000  0.034  0.034
   18  0.000  0.000  0.035  0.035
   19  0.001  0.000  0.026  0.028
   20  0.000  0.000  0.023  0.023
   21  0.000  0.000  0.023  0.023
   22  0.001  0.000  0.019  0.019
   23  0.000  0.000  0.023  0.023
   24  0.001  0.000  0.019  0.019
   25  0.001  0.000  0.027  0.028
   26  0.001  0.000  0.026  0.028
   27  0.001  0.000  0.019  0.019
   28  0.008  0.000  0.006  0.014
   29  0.000  0.000  0.011  0.012
   30  0.000  0.000  0.011  0.012
   31  0.000  0.000  0.011  0.012
   32  0.000  0.000  0.011  0.012
   33  0.000  0.000  0.011  0.012
   34  0.000  0.000  0.011  0.012
   35  0.001  0.000  0.005  0.005
   36  0.004  0.001  0.002  0.006