PROCAR new format
# of k-points:   10         # of bands:  252         # of ions:   36

 k-point     1 :    0.00000000 0.00000000 0.00000000     weight = 0.01562500

band     1 # energy   -8.14384126 # occ.  2.00000000
 
ion      s      p      d    tot
    1  0.007  0.001  0.000  0.007
    2  0.007  0.001  0.000  0.007
    3  0.006  0.001  0.000  0.007
    4  0.007  0.001  0.000  0.007
    5  0.007  0.001  0.000  0.007
    6  0.006  0.001  0.000  0.007
    7  0.006  0.001  0.000  0.007
    8  0.006  0.001  0.000  0.007
    9  0.006  0.001  0.000  0.007
   10  0.026  0.000  0.000  0.027
   11  0.027  0.000  0.000  0.027
   12  0.026  0.000  0.000  0.027
   13  0.027  0.000  0.000  0.027
   14  0.027  0.000  0.000  0.027
   15  0.026  0.000  0.000  0.027
   16  0.026  0.000  0.000  0.027
   17  0.026  0.000  0.000  0.027
   18  0.026  0.000  0.000  0.027
   19  0.023  0.000  0.000  0.024
   20  0.026  0.000  0.000  0.027
   21  0.026  0.000  0.000  0.027
   22  0.025  0.000  0.000  0.025
   23  0.026  0.000  0.000  0.027
   24  0.025  0.000  0.000  0.025
   25  0.023  0.000  0.000  0.024
   26  0.023  0.000  0.000  0.024
   27  0.025  0.000  0.000  0.025
   28  0.005  0.000  0.000  0.005
   29  0.005  0.000  0.000  0.005
   30  0.005  0.000  0.000  0.005
   31  0.005  0.000  0.000  0.005
   32  0.005  0.000  0.000  0.005
   33  0.005  0.000  0.000  0.005
   34  0.005  0.000  0.000  0.005
   35  0.005  0.000  0.000  0.005
   36  0.005  0.001  0.000  0.006
tot    0.566  0.012  0.003  0.581
 
band     2 # energy   -6.95798235 # occ.  2.00000000
 
ion      s      p      d    tot
    1  0.017  0.000  0.001  0.019
    2  0.017  0.000  0.001  0.018
    3  0.017  0.000  0.001  0.018
    4  0.017  0.000  0.001  0.018
    5  0.017  0.000  0.001  0.018
    6  0.017  0.000  0.001  0.018
    7  0.017  0.000  0.001  0.018
    8  0.017  0.000  0.001  0.018
    9  0.017  0.000  0.001  0.018
   10  0.011  0.001  0.002  0.015
   11  0.010  0.002  0.003  0.014
   12  0.011  0.001  0.002  0.015
   13  0.010  0.002  0.003  0.014
   14  0.010  0.002  0.003  0.014
   15  0.010  0.002  0.003  0.014
   16  0.011  0.001  0.002  0.015
   17  0.010  0.002  0.003  0.014
   18  0.010  0.002  0.003  0.014
   19  0.014  0.001  0.004  0.018
   20  0.015  0.001  0.004  0.020
   21  0.015  0.001  0.004  0.020
   22  0.015  0.001  0.003  0.019
   23  0.015  0.001  0.004  0.020
   24  0.015  0.001  0.003  0.019
   25  0.014  0.001  0.004  0.018
   26  0.014  0.001  0.004  0.018
   27  0.015  0.001  0.003  0.019
   28  0.014  0.000  0.000  0.014
   29  0.014  0.001  0.001  0.015
   30  0.014  0.001  0.001  0.015
   31  0.014  0.001  0.001  0.015
   32  0.014  0.001  0.001  0.015
   33  0.014  0.001  0.001  0.015
   34  0.014  0.001  0.001  0.015
   35  0.014  0.001  0.000  0.015
   36  0.010  0.001  0.000  0.011
tot    0.495  0.032  0.070  0.598
 
band     3 # energy   -6.01670225 # occ.  2.00000000
 
ion      s      p      d    tot
    1  0.002  0.001  0.015  0.017
    2  0.009  0.000  0.011  0.020
    3  0.009  0.000  0.011  0.020
    4  0.009  0.000  0.011  0.020
    5  0.003  0.000  0.008  0.011
    6  0.009  0.000  0.011  0.020
    7  0.009  0.000  0.011  0.020
    8  0.009  0.000  0.011  0.020
    9  0.034  0.001  0.004  0.038
   10  0.013  0.001  0.022  0.035
   11  0.017  0.002  0.012  0.031
   12  0.013  0.001  0.022  0.035
   13  0.017  0.002  0.012  0.031
   14  0.017  0.002  0.012  0.031
   15  0.006  0.001  0.020  0.027
   16  0.013  0.001  0.022  0.035
   17  0.006  0.001  0.020  0.027
   18  0.006  0.001  0.020  0.027
   19  0.000  0.001  0.014  0.015
   20  0.016  0.001  0.012  0.030
   21  0.016  0.001  0.012  0.030
   22  0.011  0.002  0.003  0.015
   23  0.016  0.001  0.012  0.030
   24  0.011  0.002  0.002  0.015
   25  0.000  0.001  0.014  0.015
   26  0.000  0.001  0.014  0.015
   27  0.011  0.002  0.003  0.015
   28  0.004  0.000  0.000  0.004
   29  0.002  0.000  0.004  0.006
   30  0.002  0.000  0.004  0.006
   31  0.002  0.000  0.004  0.006
   32  0.002  0.000  0.004  0.006
   33  0.002  0.000  0.004  0.006
   34  0.002  0.000  0.004  0.006
   35  0.009  0.000  0.000  0.009
   36  0.002  0.002  0.001  0.005
tot    0.305  0.032  0.366  0.702
 
band     4 # energy   -6.00040748 # occ.  2.00000000
 
ion      s      p      d    tot
    1  0.028  0.000  0.007  0.035
    2  0.012  0.000  0.014  0.027
    3  0.012  0.000  0.014  0.027
    4  0.012  0.000  0.014  0.027
    5  0.016  0.000  0.014  0.030
    6  0.012  0.000  0.014  0.027
    7  0.012  0.000  0.014  0.027
    8  0.012  0.000  0.014  0.027
    9  0.002  0.001  0.017  0.019
   10  0.000  0.000  0.032  0.032
   11  0.001  0.001  0.022  0.024
   12  0.000  0.000  0.032  0.032
   13  0.001  0.001  0.022  0.024
   14  0.001  0.001  0.022  0.024
   15  0.032  0.002  0.011  0.045
   16  0.000  0.000  0.032  0.032
   17  0.032  0.002  0.011  0.045
   18  0.032  0.002  0.011  0.045
   19  0.001  0.001  0.011  0.012
   20  0.011  0.000  0.011  0.022
   21  0.011  0.000  0.011  0.022
   22  0.008  0.002  0.005  0.015
   23  0.011  0.000  0.011  0.022
   24  0.008  0.002  0.005  0.015
   25  0.001  0.001  0.011  0.012
   26  0.001  0.001  0.011  0.012
   27  0.008  0.002  0.005  0.015
   28  0.000  0.000  0.000  0.001
   29  0.000  0.000  0.002  0.002
   30  0.000  0.000  0.002  0.002
   31  0.000  0.000  0.002  0.002
   32  0.000  0.000  0.002  0.002
   33  0.000  0.000  0.002  0.002
   34  0.000  0.000  0.002  0.002
   35  0.001  0.000  0.000  0.002
   36  0.005  0.001  0.000  0.007
tot    0.285  0.023  0.409  0.718
 
band     5 # energy   -5.99726877 # occ.  2.00000000
 
ion      s      p      d    tot
    1  0.000  0.000  0.007  0.007
    2  0.005  0.001  0.004  0.010
    3  0.005  0.001  0.003  0.009
    4  0.006  0.001  0.004  0.010
    5  0.000  0.001  0.008  0.009
    6  0.000  0.000  0.003  0.003
    7  0.006  0.001  0.003  0.010
    8  0.000  0.000  0.003  0.003
    9  0.000  0.000  0.001  0.002
   10  0.000  0.000  0.032  0.032
   11  0.041  0.002  0.016  0.059
   12  0.018  0.002  0.011  0.031
   13  0.046  0.001  0.014  0.061
   14  0.000  0.003  0.032  0.035
   15  0.005  0.001  0.011  0.017
   16  0.017  0.001  0.013  0.031
   17  0.006  0.001  0.012  0.019
   18  0.000  0.004  0.002  0.006
   19  0.002  0.001  0.010  0.013
   20  0.000  0.003  0.028  0.031
   21  0.044  0.001  0.015  0.061
   22  0.022  0.002  0.010  0.033
   23  0.040  0.002  0.016  0.058
   24  0.000  0.000  0.034  0.034
   25  0.000  0.004  0.003  0.007
   26  0.003  0.001  0.011  0.014
   27  0.020  0.001  0.012  0.033
   28  0.000  0.000  0.001  0.001
   29  0.000  0.000  0.002  0.003
   30  0.007  0.001  0.003  0.011
   31  0.000  0.000  0.002  0.003
   32  0.005  0.001  0.004  0.009
   33  0.006  0.001  0.003  0.010
   34  0.004  0.001  0.004  0.009
   35  0.000  0.000  0.006  0.006
   36  0.000  0.002  0.002  0.005
tot    0.308  0.044  0.342  0.694
 
band     6 # energy   -5.99726480 # occ.  2.00000000
 
ion      s      p      d    tot
    1  0.000  0.000  0.007  0.007
    2  0.002  0.001  0.003  0.005
    3  0.002  0.001  0.003  0.006
    4  0.002  0.000  0.003  0.005
    5  0.000  0.001  0.008  0.009
    6  0.007  0.001  0.003  0.012
    7  0.002  0.001  0.003  0.005
    8  0.007  0.001  0.003  0.012
    9  0.000  0.000  0.001  0.002
   10  0.023  0.002  0.005  0.031
   11  0.017  0.002  0.026  0.044
   12  0.005  0.001  0.026  0.032
   13  0.013  0.002  0.027  0.042
   14  0.058  0.001  0.009  0.068
   15  0.002  0.003  0.006  0.011
   16  0.007  0.001  0.024  0.032
   17  0.002  0.003  0.005  0.010
   18  0.007  0.000  0.014  0.022
   19  0.001  0.003  0.006  0.009
   20  0.056  0.001  0.011  0.069
   21  0.012  0.003  0.025  0.039
   22  0.006  0.000  0.027  0.034
   23  0.016  0.003  0.023  0.042
   24  0.028  0.002  0.003  0.033
   25  0.003  0.000  0.013  0.016
   26  0.001  0.003  0.005  0.009
   27  0.008  0.001  0.025  0.034
   28  0.000  0.000  0.001  0.001
   29  0.007  0.001  0.004  0.012
   30  0.001  0.000  0.003  0.004
   31  0.007  0.001  0.004  0.012
   32  0.003  0.001  0.002  0.005
   33  0.001  0.001  0.003  0.005
   34  0.003  0.001  0.002  0.006
   35  0.000  0.000  0.006  0.006
   36  0.000  0.002  0.002  0.005
tot    0.308  0.044  0.342  0.694
 
band     7 # energy   -5.97342394 # occ.  2.00000000
 
ion      s      p      d    tot
    1  0.006  0.001  0.001  0.009
    2  0.000  0.001  0.006  0.007
    3  0.000  0.001  0.006  0.007
    4  0.000  0.001  0.006  0.007
    5  0.018  0.002  0.001  0.020
    6  0.000  0.001  0.006  0.007
    7  0.000  0.001  0.006  0.007
    8  0.000  0.001  0.006  0.007
    9  0.000  0.000  0.002  0.002
   10  0.025  0.003  0.002  0.030
   11  0.020  0.001  0.022  0.043
   12  0.025  0.003  0.002  0.030
   13  0.020  0.001  0.022  0.043
   14  0.020  0.001  0.022  0.043
   15  0.000  0.001  0.024  0.025
   16  0.025  0.003  0.002  0.030
   17  0.000  0.001  0.024  0.025
   18  0.000  0.001  0.024  0.025
   19  0.026  0.002  0.006  0.034
   20  0.006  0.002  0.016  0.025
   21  0.006  0.002  0.016  0.025
   22  0.008  0.000  0.026  0.035
   23  0.006  0.002  0.016  0.025
   24  0.009  0.000  0.026  0.035
   25  0.026  0.002  0.006  0.034
   26  0.026  0.002  0.006  0.034
   27  0.008  0.000  0.026  0.035
   28  0.011  0.001  0.001  0.013
   29  0.000  0.000  0.004  0.005
   30  0.000  0.000  0.004  0.005
   31  0.000  0.000  0.004  0.005
   32  0.000  0.000  0.004  0.005
   33  0.000  0.000  0.004  0.005
   34  0.000  0.000  0.004  0.005
   35  0.004  0.001  0.002  0.007
   36  0.000  0.000  0.000  0.001
tot    0.299  0.040  0.357  0.696
 
band     8 # energy   -5.94856900 # occ.  2.00000000
 
ion      s      p      d    tot
    1  0.000  0.001  0.005  0.006
    2  0.006  0.001  0.004  0.011
    3  0.006  0.001  0.003  0.011
    4  0.006  0.001  0.004  0.012
    5  0.000  0.000  0.003  0.003
    6  0.000  0.000  0.003  0.004
    7  0.007  0.001  0.004  0.011
    8  0.000  0.000  0.003  0.004
    9  0.000  0.001  0.011  0.012
   10  0.039  0.000  0.015  0.055
   11  0.000  0.002  0.014  0.017
   12  0.009  0.003  0.011  0.023
   13  0.000  0.002  0.014  0.017
   14  0.001  0.001  0.011  0.013
   15  0.016  0.001  0.035  0.051
   16  0.011  0.003  0.011  0.025
   17  0.013  0.001  0.037  0.050
   18  0.056  0.002  0.004  0.062
   19  0.013  0.001  0.027  0.041
   20  0.004  0.001  0.010  0.015
   21  0.001  0.001  0.016  0.018
   22  0.006  0.003  0.011  0.020
   23  0.001  0.001  0.015  0.018
   24  0.026  0.000  0.014  0.040
   25  0.047  0.002  0.004  0.053
   26  0.011  0.001  0.029  0.040
   27  0.007  0.003  0.011  0.021
   28  0.000  0.001  0.007  0.007
   29  0.000  0.000  0.002  0.002
   30  0.003  0.001  0.002  0.006
   31  0.000  0.000  0.002  0.002
   32  0.003  0.001  0.003  0.007
   33  0.003  0.001  0.002  0.006
   34  0.003  0.001  0.003  0.007
   35  0.000  0.001  0.003  0.003
   36  0.000  0.000  0.001  0.001
tot    0.300  0.042  0.352  0.693
 
band     9 # energy   -5.94855880 # occ.  2.00000000
 
ion      s      p      d    tot
    1  0.000  0.001  0.005  0.006
    2  0.003  0.001  0.003  0.006
    3  0.002  0.001  0.004  0.007
    4  0.002  0.001  0.003  0.006
    5  0.000  0.000  0.003  0.003
    6  0.008  0.001  0.004  0.014
    7  0.002  0.001  0.004  0.006
    8  0.008  0.001  0.004  0.014
    9  0.000  0.001  0.011  0.012
   10  0.000  0.004  0.010  0.014
   11  0.001  0.001  0.012  0.015
   12  0.030  0.001  0.014  0.046
   13  0.001  0.001  0.012  0.014
   14  0.000  0.002  0.015  0.018
   15  0.041  0.001  0.016  0.058
   16  0.028  0.001  0.014  0.043
   17  0.044  0.002  0.013  0.059
   18  0.000  0.000  0.047  0.047
   19  0.034  0.002  0.013  0.048
   20  0.000  0.001  0.017  0.019
   21  0.003  0.001  0.011  0.016
   22  0.020  0.001  0.013  0.034
   23  0.003  0.001  0.012  0.016
   24  0.000  0.004  0.010  0.014
   25  0.000  0.001  0.036  0.037
   26  0.037  0.002  0.011  0.049
   27  0.019  0.001  0.013  0.033
   28  0.000  0.001  0.007  0.007
   29  0.004  0.001  0.002  0.007
   30  0.001  0.000  0.003  0.004
   31  0.004  0.001  0.002  0.008
   32  0.001  0.000  0.002  0.003
   33  0.001  0.000  0.003  0.004
   34  0.001  0.000  0.002  0.003
   35  0.000  0.001  0.003  0.003
   36  0.000  0.000  0.001  0.001
tot    0.300  0.042  0.352  0.693
 
band    10 # energy   -5.87734531 # occ.  2.00000000
 
ion      s      p      d    tot
    1  0.000  0.000  0.000  0.000
    2  0.000  0.000  0.000  0.000
    3  0.000  0.000  0.000  0.000
    4  0.000  0.000  0.000  0.000
    5  0.001  0.000  0.000  0.001
    6  0.000  0.000  0.000  0.000
    7  0.000  0.000  0.000  0.000
    8  0.000  0.000  0.000  0.000
    9  0.000  0.000  0.000  0.000
   10  0.000  0.000  0.004  0.004
   11  0.001  0.000  0.003  0.004
   12  0.000  0.000  0.004  0.004
   13  0.001  0.000  0.003  0.004
   14  0.001  0.000  0.003  0.004
   15  0.000  0.000  0.004  0.005
   16  0.000  0.000  0.004  0.004
   17  0.000  0.000  0.004  0.005
   18  0.000  0.000  0.004  0.005
   19  0.006  0.001  0.020  0.027
   20  0.004  0.000  0.030  0.034
   21  0.004  0.000  0.030  0.034
   22  0.008  0.001  0.026  0.035
   23  0.004  0.000  0.030  0.034
   24  0.008  0.001  0.026  0.035
   25  0.006  0.001  0.020  0.027
   26  0.006  0.001  0.020  0.027
   27  0.008  0.001  0.026  0.035
   28  0.024  0.000  0.021  0.045
   29  0.025  0.000  0.022  0.047
   30  0.025  0.000  0.022  0.047
   31  0.025  0.000  0.022  0.047
   32  0.025  0.000  0.022  0.047
   33  0.025  0.000  0.022  0.047
   34  0.025  0.000  0.022  0.047
   35  0.027  0.000  0.022  0.049
   36  0.011  0.000  0.006  0.017
tot    0.275  0.011  0.437  0.723
 
band    11 # energy   -5.51968935 # occ.  2.00000000
 
ion      s      p      d    tot
    1  0.016  0.002  0.002  0.020
    2  0.000  0.001  0.008  0.009
    3  0.000  0.001  0.008  0.009
    4  0.000  0.001  0.008  0.009
    5  0.000  0.000  0.002  0.002
    6  0.000  0.001  0.008  0.009
    7  0.000  0.001  0.008  0.009
    8  0.000  0.001  0.008  0.009
    9  0.015  0.001  0.000  0.017
   10  0.010  0.002  0.012  0.024
   11  0.003  0.000  0.042  0.045
   12  0.010  0.002  0.012  0.024
   13  0.003  0.000  0.042  0.045
   14  0.003  0.000  0.042  0.045
   15  0.003  0.001  0.026  0.029
   16  0.010  0.002  0.012  0.024
   17  0.003  0.001  0.026  0.029
   18  0.003  0.001  0.026  0.029
   19  0.005  0.001  0.011  0.017
   20  0.001  0.000  0.050  0.051
   21  0.001  0.000  0.050  0.051
   22  0.010  0.001  0.021  0.033
   23  0.001  0.000  0.050  0.051
   24  0.010  0.001  0.021  0.033
   25  0.005  0.001  0.011  0.017
   26  0.005  0.001  0.011  0.017
   27  0.010  0.001  0.021  0.033
   28  0.011  0.001  0.001  0.013
   29  0.000  0.000  0.006  0.006
   30  0.000  0.000  0.006  0.006
   31  0.000  0.000  0.006  0.006
   32  0.000  0.000  0.006  0.006
   33  0.000  0.000  0.006  0.006
   34  0.000  0.000  0.006  0.006
   35  0.007  0.001  0.002  0.011
   36  0.001  0.000  0.001  0.002
tot    0.149  0.028  0.578  0.754
 
band    12 # energy   -5.51099927 # occ.  2.00000000
 
ion      s      p      d    tot
    1  0.000  0.001  0.004  0.005
    2  0.001  0.001  0.005  0.006
    3  0.009  0.001  0.004  0.015
    4  0.001  0.001  0.005  0.006
    5  0.000  0.001  0.011  0.012
    6  0.005  0.001  0.004  0.009
    7  0.009  0.001  0.004  0.015
    8  0.005  0.001  0.004  0.009
    9  0.000  0.000  0.008  0.009
   10  0.000  0.001  0.050  0.051
   11  0.016  0.001  0.020  0.038
   12  0.007  0.002  0.019  0.027
   13  0.016  0.001  0.020  0.038
   14  0.000  0.000  0.051  0.051
   15  0.002  0.000  0.020  0.022
   16  0.007  0.002  0.019  0.027
   17  0.002  0.000  0.020  0.022
   18  0.000  0.001  0.010  0.012
   19  0.006  0.000  0.018  0.024
   20  0.000  0.000  0.072  0.072
   21  0.017  0.001  0.022  0.040
   22  0.003  0.001  0.019  0.022
   23  0.017  0.001  0.022  0.040
   24  0.000  0.001  0.032  0.033
   25  0.000  0.001  0.013  0.014
   26  0.006  0.000  0.018  0.024
   27  0.003  0.001  0.019  0.022
   28  0.000  0.000  0.008  0.009
   29  0.002  0.001  0.005  0.007
   30  0.011  0.001  0.004  0.016
   31  0.002  0.001  0.005  0.007
   32  0.003  0.001  0.004  0.008
   33  0.011  0.001  0.004  0.016
   34  0.003  0.001  0.004  0.008
   35  0.000  0.000  0.004  0.004
   36  0.000  0.003  0.002  0.005
tot    0.161  0.033  0.553  0.747
 
band    13 # energy   -5.51098975 # occ.  2.00000000
 
ion      s      p      d    tot
    1  0.000  0.001  0.004  0.005
    2  0.009  0.001  0.004  0.014
    3  0.001  0.000  0.004  0.005
    4  0.009  0.001  0.004  0.014
    5  0.000  0.001  0.011  0.012
    6  0.005  0.001  0.005  0.011
    7  0.001  0.000  0.004  0.005
    8  0.005  0.001  0.005  0.011
    9  0.000  0.000  0.008  0.009
   10  0.009  0.002  0.008  0.019
   11  0.005  0.000  0.041  0.046
   12  0.002  0.001  0.039  0.043
   13  0.005  0.000  0.040  0.046
   14  0.022  0.001  0.010  0.033
   15  0.001  0.001  0.013  0.015
   16  0.002  0.001  0.040  0.043
   17  0.001  0.001  0.013  0.015
   18  0.002  0.000  0.023  0.025
   19  0.002  0.001  0.015  0.017
   20  0.022  0.002  0.006  0.030
   21  0.006  0.000  0.055  0.061
   22  0.001  0.001  0.028  0.030
   23  0.006  0.000  0.055  0.062
   24  0.003  0.001  0.014  0.019
   25  0.008  0.000  0.020  0.028
   26  0.002  0.001  0.015  0.017
   27  0.001  0.001  0.028  0.030
   28  0.000  0.000  0.008  0.009
   29  0.008  0.001  0.004  0.013
   30  0.000  0.001  0.004  0.005
   31  0.008  0.001  0.004  0.013
   32  0.008  0.001  0.004  0.013
   33  0.000  0.001  0.004  0.005
   34  0.008  0.001  0.004  0.013
   35  0.000  0.000  0.004  0.004
   36  0.000  0.003  0.002  0.005
tot    0.161  0.033  0.553  0.747
 
band    14 # energy   -5.47684492 # occ.  2.00000000
 
ion      s      p      d    tot
    1  0.006  0.000  0.001  0.007
    2  0.000  0.001  0.008  0.009
    3  0.000  0.001  0.008  0.009
    4  0.000  0.001  0.008  0.009
    5  0.019  0.002  0.000  0.021
    6  0.000  0.001  0.008  0.009
    7  0.000  0.001  0.008  0.009
    8  0.000  0.001  0.008  0.009
    9  0.004  0.001  0.002  0.007
   10  0.000  0.000  0.044  0.044
   11  0.006  0.001  0.012  0.020
   12  0.000  0.000  0.044  0.044
   13  0.006  0.001  0.012  0.020
   14  0.006  0.001  0.012  0.020
   15  0.008  0.001  0.024  0.033
   16  0.000  0.000  0.044  0.044
   17  0.008  0.001  0.024  0.033
   18  0.008  0.001  0.024  0.033
   19  0.008  0.000  0.041  0.050
   20  0.010  0.002  0.009  0.022
   21  0.010  0.002  0.009  0.022
   22  0.001  0.000  0.033  0.035
   23  0.010  0.002  0.009  0.022
   24  0.001  0.000  0.033  0.035
   25  0.008  0.000  0.041  0.050
   26  0.008  0.000  0.041  0.050
   27  0.001  0.000  0.033  0.035
   28  0.001  0.000  0.005  0.006
   29  0.000  0.001  0.005  0.006
   30  0.000  0.001  0.005  0.006
   31  0.000  0.001  0.005  0.006
   32  0.000  0.001  0.005  0.006
   33  0.000  0.001  0.005  0.006
   34  0.000  0.001  0.005  0.006
   35  0.004  0.000  0.000  0.005
   36  0.012  0.003  0.000  0.015
tot    0.149  0.030  0.582  0.761
 
band    15 # energy   -5.45777088 # occ.  2.00000000
 
ion      s      p      d    tot
    1  0.000  0.001  0.015  0.015
    2  0.000  0.000  0.005  0.006
    3  0.008  0.001  0.005  0.015
    4  0.000  0.000  0.005  0.006
    5  0.000  0.000  0.005  0.005
    6  0.006  0.001  0.005  0.012
    7  0.009  0.001  0.005  0.015
    8  0.007  0.001  0.005  0.012
    9  0.000  0.001  0.007  0.008
   10  0.010  0.000  0.020  0.030
   11  0.000  0.001  0.019  0.021
   12  0.003  0.001  0.027  0.030
   13  0.000  0.001  0.019  0.021
   14  0.001  0.001  0.020  0.022
   15  0.003  0.001  0.051  0.055
   16  0.002  0.001  0.027  0.030
   17  0.004  0.001  0.049  0.053
   18  0.015  0.002  0.006  0.023
   19  0.004  0.001  0.052  0.057
   20  0.000  0.000  0.023  0.024
   21  0.000  0.001  0.020  0.022
   22  0.006  0.001  0.029  0.036
   23  0.000  0.001  0.020  0.021
   24  0.023  0.001  0.016  0.041
   25  0.017  0.001  0.004  0.023
   26  0.005  0.001  0.049  0.055
   27  0.005  0.001  0.029  0.035
   28  0.000  0.001  0.005  0.005
   29  0.001  0.000  0.003  0.004
   30  0.006  0.001  0.003  0.010
   31  0.001  0.000  0.003  0.004
   32  0.002  0.001  0.005  0.008
   33  0.006  0.001  0.003  0.010
   34  0.003  0.001  0.005  0.008
   35  0.000  0.001  0.008  0.009
   36  0.000  0.000  0.001  0.001
tot    0.148  0.029  0.574  0.751
 
band    16 # energy   -5.45776916 # occ.  2.00000000
 
ion      s      p      d    tot
    1  0.000  0.001  0.015  0.015
    2  0.010  0.001  0.005  0.016
    3  0.002  0.000  0.005  0.007
    4  0.010  0.001  0.005  0.016
    5  0.000  0.000  0.005  0.005
    6  0.004  0.001  0.005  0.010
    7  0.001  0.000  0.005  0.007
    8  0.003  0.001  0.005  0.010
    9  0.000  0.001  0.007  0.008
   10  0.000  0.001  0.029  0.030
   11  0.001  0.001  0.020  0.022
   12  0.007  0.000  0.023  0.030
   13  0.001  0.001  0.020  0.022
   14  0.000  0.001  0.019  0.020
   15  0.011  0.002  0.019  0.033
   16  0.007  0.000  0.022  0.030
   17  0.011  0.002  0.022  0.034
   18  0.000  0.000  0.064  0.064
   19  0.014  0.001  0.018  0.033
   20  0.000  0.002  0.019  0.021
   21  0.000  0.001  0.022  0.023
   22  0.017  0.001  0.021  0.039
   23  0.000  0.001  0.022  0.023
   24  0.000  0.000  0.033  0.034
   25  0.000  0.000  0.066  0.066
   26  0.013  0.001  0.021  0.035
   27  0.018  0.001  0.020  0.039
   28  0.000  0.001  0.005  0.005
   29  0.005  0.001  0.004  0.010
   30  0.000  0.000  0.005  0.005
   31  0.005  0.001  0.004  0.010
   32  0.004  0.001  0.002  0.007
   33  0.000  0.000  0.004  0.005
   34  0.004  0.001  0.002  0.007
   35  0.000  0.001  0.008  0.009
   36  0.000  0.000  0.001  0.001
tot    0.148  0.029  0.574  0.751
 
band    17 # energy   -5.13287717 # occ.  2.00000000
 
ion      s      p      d    tot
    1  0.000  0.000  0.015  0.016
    2  0.009  0.000  0.012  0.021
    3  0.003  0.001  0.008  0.012
    4  0.009  0.000  0.012  0.021
    5  0.000  0.000  0.028  0.028
    6  0.002  0.000  0.014  0.015
    7  0.003  0.001  0.008  0.012
    8  0.001  0.000  0.013  0.015
    9  0.000  0.001  0.006  0.007
   10  0.000  0.000  0.008  0.008
   11  0.000  0.000  0.045  0.045
   12  0.000  0.000  0.014  0.014
   13  0.000  0.000  0.045  0.045
   14  0.000  0.000  0.047  0.047
   15  0.000  0.000  0.036  0.036
   16  0.000  0.000  0.014  0.015
   17  0.000  0.000  0.036  0.036
   18  0.000  0.000  0.019  0.019
   19  0.000  0.000  0.012  0.012
   20  0.000  0.000  0.035  0.035
   21  0.001  0.000  0.051  0.052
   22  0.000  0.000  0.033  0.033
   23  0.001  0.000  0.051  0.052
   24  0.000  0.000  0.036  0.036
   25  0.000  0.000  0.010  0.010
   26  0.000  0.000  0.012  0.012
   27  0.000  0.000  0.033  0.033
   28  0.000  0.000  0.013  0.013
   29  0.003  0.001  0.006  0.010
   30  0.012  0.001  0.011  0.023
   31  0.003  0.001  0.006  0.010
   32  0.002  0.001  0.013  0.016
   33  0.012  0.001  0.011  0.023
   34  0.003  0.001  0.013  0.017
   35  0.000  0.000  0.020  0.020
   36  0.000  0.003  0.001  0.004
tot    0.064  0.016  0.748  0.828
 
band    18 # energy   -5.13287438 # occ.  2.00000000
 
ion      s      p      d    tot
    1  0.000  0.000  0.015  0.016
    2  0.000  0.000  0.011  0.011
    3  0.006  0.000  0.014  0.020
    4  0.000  0.000  0.010  0.011
    5  0.000  0.000  0.028  0.028
    6  0.007  0.001  0.009  0.017
    7  0.006  0.000  0.014  0.020
    8  0.007  0.001  0.009  0.017
    9  0.000  0.001  0.006  0.007
   10  0.000  0.000  0.016  0.017
   11  0.000  0.000  0.046  0.047
   12  0.000  0.000  0.010  0.010
   13  0.000  0.000  0.046  0.047
   14  0.000  0.000  0.044  0.044
   15  0.000  0.000  0.024  0.025
   16  0.000  0.000  0.010  0.010
   17  0.000  0.000  0.025  0.025
   18  0.000  0.000  0.041  0.042
   19  0.000  0.000  0.010  0.011
   20  0.001  0.000  0.057  0.058
   21  0.000  0.000  0.041  0.041
   22  0.000  0.000  0.035  0.035
   23  0.000  0.000  0.040  0.040
   24  0.000  0.000  0.032  0.033
   25  0.000  0.000  0.012  0.013
   26  0.000  0.000  0.011  0.011
   27  0.000  0.000  0.035  0.035
   28  0.000  0.000  0.013  0.013
   29  0.008  0.001  0.014  0.023
   30  0.000  0.001  0.010  0.010
   31  0.008  0.001  0.014  0.023
   32  0.009  0.001  0.007  0.017
   33  0.000  0.001  0.009  0.010
   34  0.009  0.001  0.007  0.017
   35  0.000  0.000  0.020  0.020
   36  0.000  0.003  0.001  0.004
tot    0.064  0.016  0.748  0.828
 
band    19 # energy   -5.11422789 # occ.  2.00000000
 
ion      s      p      d    tot
    1  0.016  0.001  0.003  0.020
    2  0.000  0.001  0.014  0.014
    3  0.000  0.001  0.014  0.014
    4  0.000  0.001  0.014  0.014
    5  0.004  0.000  0.014  0.018
    6  0.000  0.001  0.014  0.014
    7  0.000  0.001  0.014  0.014
    8  0.000  0.001  0.014  0.014
    9  0.004  0.001  0.003  0.007
   10  0.000  0.000  0.026  0.027
   11  0.000  0.000  0.040  0.040
   12  0.000  0.000  0.026  0.027
   13  0.000  0.000  0.040  0.040
   14  0.000  0.000  0.040  0.040
   15  0.000  0.000  0.033  0.033
   16  0.000  0.000  0.026  0.027
   17  0.000  0.000  0.033  0.033
   18  0.000  0.000  0.033  0.033
   19  0.000  0.000  0.023  0.024
   20  0.001  0.000  0.034  0.035
   21  0.001  0.000  0.034  0.035
   22  0.001  0.000  0.030  0.031
   23  0.001  0.000  0.034  0.035
   24  0.001  0.000  0.030  0.031
   25  0.000  0.000  0.023  0.024
   26  0.000  0.000  0.023  0.024
   27  0.001  0.000  0.030  0.031
   28  0.013  0.001  0.000  0.014
   29  0.000  0.001  0.015  0.016
   30  0.000  0.001  0.015  0.016
   31  0.000  0.001  0.015  0.016
   32  0.000  0.001  0.015  0.016
   33  0.000  0.001  0.015  0.016
   34  0.000  0.001  0.015  0.016
   35  0.014  0.000  0.004  0.018
   36  0.000  0.000  0.003  0.003
tot    0.057  0.013  0.757  0.828
 
band    20 # energy   -5.10788854 # occ.  2.00000000
 
ion      s      p      d    tot
    1  0.000  0.000  0.009  0.009
    2  0.000  0.001  0.019  0.020
    3  0.000  0.001  0.019  0.020
    4  0.000  0.001  0.019  0.020
    5  0.021  0.001  0.000  0.023
    6  0.000  0.001  0.019  0.020
    7  0.000  0.001  0.019  0.020
    8  0.000  0.001  0.019  0.020
    9  0.021  0.000  0.009  0.031
   10  0.000  0.000  0.040  0.040
   11  0.000  0.001  0.032  0.033
   12  0.000  0.000  0.040  0.040
   13  0.000  0.001  0.032  0.033
   14  0.000  0.001  0.032  0.033
   15  0.000  0.000  0.032  0.032
   16  0.000  0.000  0.040  0.040
   17  0.000  0.000  0.032  0.032
   18  0.000  0.000  0.032  0.032
   19  0.001  0.000  0.025  0.026
   20  0.000  0.000  0.032  0.032
   21  0.000  0.000  0.032  0.032
   22  0.000  0.000  0.017  0.018
   23  0.000  0.000  0.032  0.032
   24  0.000  0.000  0.017  0.018
   25  0.001  0.000  0.025  0.026
   26  0.001  0.000  0.025  0.026
   27  0.000  0.000  0.017  0.018
   28  0.006  0.000  0.007  0.012
   29  0.000  0.000  0.012  0.013
   30  0.000  0.000  0.012  0.013
   31  0.000  0.000  0.012  0.013
   32  0.000  0.000  0.012  0.013
   33  0.000  0.000  0.012  0.013
   34  0.000  0.000  0.012  0.013
   35  0.000  0.000  0.003  0.003
   36  0.007  0.000  0.001  0.008
tot    0.060  0.016  0.751  0.827
 
band    21 # energy   -5.07271067 # occ.  2.00000000
 
ion      s      p      d    tot
    1  0.000  0.002  0.014  0.016
    2  0.013  0.001  0.016  0.030
    3  0.009  0.001  0.011  0.021
    4  0.013  0.001  0.016  0.030
    5  0.000  0.001  0.015  0.016
    6  0.000  0.001  0.018  0.019
    7  0.009  0.001  0.011  0.021
    8  0.000  0.001  0.018  0.019
    9  0.000  0.000  0.037  0.037
   10  0.000  0.001  0.055  0.056
   11  0.000  0.000  0.026  0.026
   12  0.000  0.000  0.060  0.060
   13  0.000  0.000  0.026  0.026
   14  0.000  0.000  0.035  0.035
   15  0.000  0.001  0.031  0.032
   16  0.000  0.000  0.060  0.060
   17  0.000  0.001  0.031  0.032
   18  0.000  0.001  0.027  0.028
   19  0.000  0.000  0.025  0.025
   20  0.000  0.000  0.022  0.022
   21  0.000  0.000  0.018  0.019
   22  0.001  0.000  0.010  0.011
   23  0.000  0.000  0.018  0.019
   24  0.004  0.000  0.021  0.025
   25  0.001  0.000  0.036  0.037
   26  0.000  0.000  0.025  0.025
   27  0.001  0.000  0.010  0.011
   28  0.000  0.000  0.011  0.011
   29  0.000  0.000  0.006  0.007
   30  0.004  0.000  0.003  0.007
   31  0.000  0.000  0.006  0.007
   32  0.002  0.000  0.009  0.011
   33  0.004  0.000  0.003  0.007
   34  0.002  0.000  0.008  0.011
   35  0.000  0.001  0.005  0.006
   36  0.000  0.000  0.002  0.002
tot    0.064  0.017  0.741  0.823
 
band    22 # energy   -5.07270437 # occ.  2.00000000
 
ion      s      p      d    tot
    1  0.000  0.002  0.014  0.016
    2  0.002  0.001  0.014  0.016
    3  0.006  0.001  0.019  0.025
    4  0.002  0.001  0.014  0.016
    5  0.000  0.001  0.015  0.016
    6  0.014  0.001  0.012  0.027
    7  0.006  0.001  0.019  0.025
    8  0.014  0.001  0.012  0.027
    9  0.000  0.000  0.037  0.037
   10  0.000  0.000  0.062  0.062
   11  0.000  0.000  0.032  0.032
   12  0.000  0.001  0.057  0.057
   13  0.000  0.000  0.032  0.032
   14  0.000  0.000  0.023  0.023
   15  0.000  0.001  0.028  0.029
   16  0.000  0.001  0.057  0.057