 vasp.6.2.0 18Jan21 (build Jun 12 2021 23:27:24) complex                        
  
 executed on             LinuxIFC date 2022.05.26  19:26:00
 running on   28 total cores
 distrk:  each k-point on   28 cores,    1 groups
 distr:  one band on NCORE=   1 cores,   28 groups


--------------------------------------------------------------------------------------------------------


 INCAR:
   ISMEAR = -5
   SIGMA = 0.1
   ISPIN = 1
   EDIFF = 1.d-5
   EDIFFG = -0.01
   NSW = 0
   NELM = 150
   ENCUT = 500
   ISIF = 2
   IBRION = 2
   LREAL = Auto
   ALGO = Fast
   ICHARG = 11
   LORBIT = 10
   LCHARG = .F.
   LWAVE = .F.

 POTCAR:    PAW_PBE Au 04Oct2007                  
 POTCAR:    PAW_PBE Nb_sv 25May2007               
 POTCAR:    PAW_PBE N 08Apr2002                   
 -----------------------------------------------------------------------------
|                                                                             |
|           W    W    AA    RRRRR   N    N  II  N    N   GGGG   !!!           |
|           W    W   A  A   R    R  NN   N  II  NN   N  G    G  !!!           |
|           W    W  A    A  R    R  N N  N  II  N N  N  G       !!!           |
|           W WW W  AAAAAA  RRRRR   N  N N  II  N  N N  G  GGG   !            |
|           WW  WW  A    A  R   R   N   NN  II  N   NN  G    G                |
|           W    W  A    A  R    R  N    N  II  N    N   GGGG   !!!           |
|                                                                             |
|     For optimal performance we recommend to set                             |
|       NCORE = 2 up to number-of-cores-per-socket                            |
|     NCORE specifies how many cores store one orbital (NPAR=cpu/NCORE).      |
|     This setting can greatly improve the performance of VASP for DFT.       |
|     The default, NCORE=1 might be grossly inefficient on modern             |
|     multi-core architectures or massively parallel machines. Do your        |
|     own testing! More info at https://www.vasp.at/wiki/index.php/NCORE      |
|     Unfortunately you need to use the default for GW and RPA                |
|     calculations (for HF NCORE is supported but not extensively tested      |
|     yet).                                                                   |
|                                                                             |
 -----------------------------------------------------------------------------

 POTCAR:    PAW_PBE Au 04Oct2007                  
   VRHFIN =Au: s1d10                                                                                
   LEXCH  = PE                                                                                      
   EATOM  =   926.0867 eV,   68.0654 Ry                                                             
                                                                                                    
   TITEL  = PAW_PBE Au 04Oct2007                                                                    
   LULTRA =        F    use ultrasoft PP ?                                                          
   IUNSCR =        1    unscreen: 0-lin 1-nonlin 2-no                                               
   RPACOR =    2.330    partial core radius                                                         
   POMASS =  196.966; ZVAL   =   11.000    mass and valenz                                          
   RCORE  =    2.500    outmost cutoff radius                                                       
   RWIGS  =    2.840; RWIGS  =    1.503    wigner-seitz radius (au A)                               
   ENMAX  =  229.943; ENMIN  =  172.457 eV                                                          
   ICORE  =        3    local potential                                                             
   LCOR   =        T    correct aug charges                                                         
   LPAW   =        T    paw PP                                                                      
   EAUG   =  356.670                                                                                
   DEXC   =    0.000                                                                                
   RMAX   =    2.562    core radius for proj-oper                                                   
   RAUG   =    1.300    factor for augmentation sphere                                              
   RDEP   =    2.598    radius for radial grids                                                     
   RDEPT  =    2.193    core radius for aug-charge                                                  
                                                                                                    
   Atomic configuration                                                                             
   16 entries                                                                                       
     n  l   j            E        occ.                                                              
     1  0  0.50    -80748.5001   2.0000                                                             
     2  0  0.50    -14244.7466   2.0000                                                             
     2  1  1.50    -12310.9591   6.0000                                                             
     3  0  0.50     -3362.1768   2.0000                                                             
     3  1  1.50     -2801.5463   6.0000                                                             
     3  2  2.50     -2203.8206  10.0000                                                             
     4  0  0.50      -729.8168   2.0000                                                             
     4  1  1.50      -546.0527   6.0000                                                             
     4  2  2.50      -325.7302  10.0000                                                             
     4  3  3.50       -81.1472  14.0000                                                             
     5  0  0.50      -108.3201   2.0000                                                             
     5  1  1.50       -59.7479   6.0000                                                             
     5  2  2.50        -6.8783  10.0000                                                             
     6  0  0.50        -5.7602   1.0000                                                             
     6  1  1.50        -6.8029   0.0000                                                             
     5  3  2.50        -1.3606   0.0000                                                             
   Description                                                                                      
     l       E           TYP  RCUT    TYP  RCUT                                                     
     2     -6.8782861     23  2.500                                                                 
     2     -8.2388687     23  2.500                                                                 
     0     -5.7601759     23  2.500                                                                 
     0     -0.8493231     23  2.500                                                                 
     1     -2.7211652     23  2.500                                                                 
     1     27.2116520     23  2.500                                                                 
     3     -1.3605826     23  2.500                                                                 
  local pseudopotential read in
  partial core-charges read in
  partial kinetic energy density read in
  atomic valenz-charges read in
  non local Contribution for L=           2  read in
    real space projection operators read in
  non local Contribution for L=           2  read in
    real space projection operators read in
  non local Contribution for L=           0  read in
    real space projection operators read in
  non local Contribution for L=           0  read in
    real space projection operators read in
  non local Contribution for L=           1  read in
    real space projection operators read in
  non local Contribution for L=           1  read in
    real space projection operators read in
    PAW grid and wavefunctions read in
 
   number of l-projection  operators is LMAX  =           6
   number of lm-projection operators is LMMAX =          18
 
 POTCAR:    PAW_PBE Nb_sv 25May2007               
   VRHFIN =Nb: 4p5s4d                                                                               
   LEXCH  = PE                                                                                      
   EATOM  =  1555.1913 eV,  114.3033 Ry                                                             
                                                                                                    
   TITEL  = PAW_PBE Nb_sv 25May2007                                                                 
   LULTRA =        F    use ultrasoft PP ?                                                          
   IUNSCR =        1    unscreen: 0-lin 1-nonlin 2-no                                               
   RPACOR =    1.800    partial core radius                                                         
   POMASS =   92.910; ZVAL   =   13.000    mass and valenz                                          
   RCORE  =    2.400    outmost cutoff radius                                                       
   RWIGS  =    2.400; RWIGS  =    1.270    wigner-seitz radius (au A)                               
   ENMAX  =  293.235; ENMIN  =  219.927 eV                                                          
   ICORE  =        3    local potential                                                             
   LCOR   =        T    correct aug charges                                                         
   LPAW   =        T    paw PP                                                                      
   EAUG   =  455.659                                                                                
   DEXC   =    0.000                                                                                
   RMAX   =    2.456    core radius for proj-oper                                                   
   RAUG   =    1.300    factor for augmentation sphere                                              
   RDEP   =    2.451    radius for radial grids                                                     
   RDEPT  =    1.956    core radius for aug-charge                                                  
                                                                                                    
   Atomic configuration                                                                             
   11 entries                                                                                       
     n  l   j            E        occ.                                                              
     1  0  0.50    -18805.2457   2.0000                                                             
     2  0  0.50     -2630.2869   2.0000                                                             
     2  1  1.50     -2348.4046   6.0000                                                             
     3  0  0.50      -438.8757   2.0000                                                             
     3  1  1.50      -346.7588   6.0000                                                             
     3  2  2.50      -196.2560  10.0000                                                             
     4  0  0.50       -58.3859   2.0000                                                             
     5  0  0.50        -3.9816   1.0000                                                             
     4  1  1.50       -34.5141   6.0000                                                             
     4  2  2.50        -3.0408   4.0000                                                             
     4  3  2.50        -1.3606   0.0000                                                             
   Description                                                                                      
     l       E           TYP  RCUT    TYP  RCUT                                                     
     0    -58.3859094     23  2.200                                                                 
     0     -3.9816262     23  2.200                                                                 
     1    -34.5140738     23  2.200                                                                 
     1     13.6058260     23  2.200                                                                 
     2     -3.0408010     23  2.200                                                                 
     2     -0.1283038     23  2.200                                                                 
     3     -1.3605826     23  2.400                                                                 
  local pseudopotential read in
  partial core-charges read in
  partial kinetic energy density read in
  atomic valenz-charges read in
  non local Contribution for L=           0  read in
    real space projection operators read in
  non local Contribution for L=           0  read in
    real space projection operators read in
  non local Contribution for L=           1  read in
    real space projection operators read in
  non local Contribution for L=           1  read in
    real space projection operators read in
  non local Contribution for L=           2  read in
    real space projection operators read in
  non local Contribution for L=           2  read in
    real space projection operators read in
    PAW grid and wavefunctions read in
 
   number of l-projection  operators is LMAX  =           6
   number of lm-projection operators is LMMAX =          18
 
 POTCAR:    PAW_PBE N 08Apr2002                   
   VRHFIN =N: s2p3                                                                                  
   LEXCH  = PE                                                                                      
   EATOM  =   264.5486 eV,   19.4438 Ry                                                             
                                                                                                    
   TITEL  = PAW_PBE N 08Apr2002                                                                     
   LULTRA =        F    use ultrasoft PP ?                                                          
   IUNSCR =        1    unscreen: 0-lin 1-nonlin 2-no                                               
   RPACOR =    1.200    partial core radius                                                         
   POMASS =   14.001; ZVAL   =    5.000    mass and valenz                                          
   RCORE  =    1.500    outmost cutoff radius                                                       
   RWIGS  =    1.400; RWIGS  =    0.741    wigner-seitz radius (au A)                               
   ENMAX  =  400.000; ENMIN  =  300.000 eV                                                          
   ICORE  =        2    local potential                                                             
   LCOR   =        T    correct aug charges                                                         
   LPAW   =        T    paw PP                                                                      
   EAUG   =  627.112                                                                                
   DEXC   =    0.000                                                                                
   RMAX   =    1.529    core radius for proj-oper                                                   
   RAUG   =    1.300    factor for augmentation sphere                                              
   RDEP   =    1.514    radius for radial grids                                                     
   RDEPT  =    1.338    core radius for aug-charge                                                  
                                                                                                    
   Atomic configuration                                                                             
    4 entries                                                                                       
     n  l   j            E        occ.                                                              
     1  0  0.50      -384.7179   2.0000                                                             
     2  0  0.50       -18.5828   2.0000                                                             
     2  1  0.50        -7.0898   3.0000                                                             
     3  2  1.50        -6.8029   0.0000                                                             
   Description                                                                                      
     l       E           TYP  RCUT    TYP  RCUT                                                     
     0    -18.5828119     23  1.200                                                                 
     0    -13.5018863     23  1.200                                                                 
     1     -7.0897853     23  1.500                                                                 
     1      9.5240782     23  1.500                                                                 
     2     -6.8029130      7  1.500                                                                 
  local pseudopotential read in
  partial core-charges read in
  partial kinetic energy density read in
  atomic valenz-charges read in
  non local Contribution for L=           0  read in
    real space projection operators read in
  non local Contribution for L=           0  read in
    real space projection operators read in
  non local Contribution for L=           1  read in
    real space projection operators read in
  non local Contribution for L=           1  read in
    real space projection operators read in
    PAW grid and wavefunctions read in
 
   number of l-projection  operators is LMAX  =           4
   number of lm-projection operators is LMMAX =           8
 
 Optimization of the real space projectors (new method)

 maximal supplied QI-value         = 15.12
 optimisation between [QCUT,QGAM] = [ 11.34, 22.83] = [ 36.00,145.93] Ry 
 Optimized for a Real-space Cutoff    1.39 Angstroem

   l    n(q)    QCUT    max X(q) W(low)/X(q) W(high)/X(q)  e(spline) 
   2      9    11.338    60.898    0.39E-03    0.42E-03    0.21E-06
   2      9    11.338    58.894    0.40E-03    0.42E-03    0.22E-06
   0      9    11.338   109.617    0.13E-03    0.20E-04    0.13E-06
   0      9    11.338    75.026    0.13E-03    0.20E-04    0.13E-06
   1      9    11.338    16.344    0.33E-04    0.24E-03    0.18E-06
   1      9    11.338    10.160    0.26E-04    0.19E-03    0.15E-06
 Optimization of the real space projectors (new method)

 maximal supplied QI-value         = 15.68
 optimisation between [QCUT,QGAM] = [ 11.45, 22.90] = [ 36.71,146.85] Ry 
 Optimized for a Real-space Cutoff    1.56 Angstroem

   l    n(q)    QCUT    max X(q) W(low)/X(q) W(high)/X(q)  e(spline) 
   0     11    11.450    10.201    0.21E-04    0.96E-05    0.78E-07
   0     11    11.450     8.174    0.31E-04    0.18E-04    0.14E-06
   1     10    11.450     3.488    0.27E-04    0.12E-04    0.96E-07
   1     10    11.450     4.917    0.11E-03    0.11E-03    0.37E-06
   2     10    11.450   153.744    0.37E-03    0.81E-03    0.10E-05
   2     10    11.450   126.342    0.37E-03    0.81E-03    0.10E-05
 Optimization of the real space projectors (new method)

 maximal supplied QI-value         = 25.13
 optimisation between [QCUT,QGAM] = [ 11.31, 22.87] = [ 35.82,146.48] Ry 
 Optimized for a Real-space Cutoff    1.27 Angstroem

   l    n(q)    QCUT    max X(q) W(low)/X(q) W(high)/X(q)  e(spline) 
   0      9    11.310    79.467    0.75E-04    0.16E-03    0.36E-06
   0      9    11.310    66.151    0.74E-04    0.16E-03    0.36E-06
   1      8    11.310    17.416    0.35E-03    0.12E-03    0.95E-06
   1      8    11.310    12.382    0.37E-03    0.13E-03    0.98E-06
  PAW_PBE Au 04Oct2007                  :
 energy of atom  1       EATOM= -926.0867
 kinetic energy error for atom=    0.0042 (will be added to EATOM!!)
  PAW_PBE Nb_sv 25May2007               :
 energy of atom  2       EATOM=-1555.1913
 kinetic energy error for atom=    0.0069 (will be added to EATOM!!)
  PAW_PBE N 08Apr2002                   :
 energy of atom  3       EATOM= -264.5486
 kinetic energy error for atom=    0.0138 (will be added to EATOM!!)
 
 
 POSCAR: Au-Nb-N
  positions in direct lattice
  velocities in cartesian coordinates
 exchange correlation table for  LEXCH =        8
   RHO(1)=    0.500       N(1)  =     2000
   RHO(2)=  100.500       N(2)  =     4000

 VTST: version 3.2, (02/03/18)

 CHAIN: initializing optimizer
 
 OPT: Using VASP Conjugate-Gradient optimizer
 CHAIN: Read ICHAIN            0
 
 POSCAR: Au-Nb-N
  positions in direct lattice
  velocities in cartesian coordinates
 


--------------------------------------------------------------------------------------------------------


 ion  position               nearest neighbor table
   1  0.000  0.000  0.238-  16 2.94  12 2.94   6 2.94   8 2.94   7 2.94   3 2.94  10 2.94   4 2.94
                             2 2.94
   2  0.333  0.000  0.238-   9 2.94  11 2.94  17 2.94  10 2.94   8 2.94   4 2.94   5 2.94   1 2.94
                             3 2.94
   3  0.667  0.000  0.238-   7 2.94  18 2.94  12 2.94   1 2.94  11 2.94   5 2.94   6 2.94   9 2.94
                             2 2.94
   4  0.000  0.333  0.238-  10 2.94   6 2.94   5 2.94  13 2.94   2 2.94  15 2.94   9 2.94   1 2.94
                             7 2.94
   5  0.333  0.333  0.238-  13 2.94   7 2.94  11 2.94   4 2.94   2 2.94  14 2.94   3 2.94   8 2.94
                             6 2.94
   6  0.667  0.333  0.238-  15 2.94  14 2.94   1 2.94  12 2.94   4 2.94   9 2.94   8 2.94   3 2.94
                             5 2.94
   7  0.000  0.667  0.238-  18 2.94   3 2.94  16 2.94   5 2.94   1 2.94  13 2.94   8 2.94   4 2.94
                             9 2.94
   8  0.333  0.667  0.238-   9 2.94  17 2.94   1 2.94   2 2.94  14 2.94  16 2.94   6 2.94   7 2.94
                             5 2.94
   9  0.667  0.667  0.238-   2 2.94   8 2.94  17 2.94   6 2.94  15 2.94   4 2.94   3 2.94  18 2.94
                             7 2.94
  10  0.111  0.111  0.346-  20 2.91  11 2.94  17 2.94   2 2.94   4 2.94   1 2.94  12 2.94  16 2.94
                            13 2.94  15 2.94  26 2.95  19 2.95
  11  0.444  0.111  0.346-  20 2.91  21 2.91  13 2.94   2 2.94  10 2.94  17 2.94   5 2.94   3 2.94
                            18 2.94  14 2.94  12 2.94  27 2.94
  12  0.778  0.111  0.346-  21 2.91  16 2.94  18 2.94   1 2.94  14 2.94  15 2.94   3 2.94   6 2.94
                            10 2.94  11 2.94  25 2.95  19 2.95
  13  0.111  0.444  0.346-  23 2.91  20 2.91   5 2.94  18 2.94  11 2.94   7 2.94   4 2.94  16 2.94
                            10 2.94  14 2.94  15 2.94  22 2.94
  14  0.444  0.444  0.346-  21 2.91  23 2.91  15 2.94   6 2.94  12 2.94   8 2.94  17 2.94   5 2.94
                            16 2.94  13 2.94  11 2.94  24 2.94
  15  0.778  0.444  0.346-  24 2.93  22 2.93  14 2.94   6 2.94  17 2.94  12 2.94   9 2.94   4 2.94
                            10 2.94  13 2.94  18 2.94  19 2.94
  16  0.111  0.778  0.346-  23 2.91  18 2.94  12 2.94   7 2.94   1 2.94   8 2.94  13 2.94  10 2.94
                            14 2.94  17 2.94  25 2.95  26 2.95
  17  0.444  0.778  0.346-  27 2.93  24 2.93   9 2.94  15 2.94   2 2.94  10 2.94  11 2.94   8 2.94
                            14 2.94  16 2.94  18 2.94  26 2.94
  18  0.778  0.778  0.346-  22 2.93  27 2.93  16 2.94   7 2.94  13 2.94  12 2.94   3 2.94  11 2.94
                             9 2.94  15 2.94  17 2.94  25 2.94
  19  0.889  0.223  0.454-  24 2.93  22 2.93  21 2.94  20 2.94  15 2.94  26 2.94  25 2.94  10 2.95
                            12 2.95  28 2.95  32 3.04  31 3.04
  20  0.222  0.222  0.453-  36 2.78  10 2.91  11 2.91  13 2.91  26 2.94  19 2.94  23 2.94  21 2.94
                            27 2.95  22 2.95  29 2.99  31 2.99
  21  0.556  0.222  0.453-  36 2.78  12 2.91  14 2.91  11 2.91  25 2.94  19 2.94  20 2.94  23 2.94
                            27 2.95  24 2.95  30 2.99  32 2.99
  22  0.887  0.557  0.454-  24 2.91  27 2.91  18 2.93  15 2.93  25 2.93  19 2.93  13 2.94  23 2.95
                            20 2.95  35 2.96  33 3.02  31 3.02
  23  0.222  0.556  0.453-  36 2.78  16 2.91  13 2.91  14 2.91  25 2.94  26 2.94  20 2.94  21 2.94
                            22 2.95  24 2.95  33 2.99  34 2.99
  24  0.557  0.557  0.454-  27 2.91  22 2.91  15 2.93  17 2.93  26 2.93  19 2.93  14 2.94  21 2.95
                            23 2.95  35 2.96  32 3.02  34 3.02
  25  0.889  0.889  0.454-  22 2.93  27 2.93  23 2.94  21 2.94  18 2.94  19 2.94  26 2.94  16 2.95
                            12 2.95  28 2.95  33 3.04  30 3.04
  26  0.223  0.889  0.454-  27 2.93  24 2.93  20 2.94  23 2.94  17 2.94  19 2.94  25 2.94  10 2.95
                            16 2.95  28 2.95  29 3.04  34 3.04
  27  0.557  0.887  0.454-  24 2.91  22 2.91  17 2.93  18 2.93  26 2.93  25 2.93  11 2.94  20 2.95
                            21 2.95  35 2.96  29 3.02  30 3.02
  28  0.000  0.000  0.563-  25 2.95  19 2.95  26 2.95  34 2.98  32 2.98  33 2.98  30 2.98  31 2.98
                            29 2.98
  29  0.334  0.009  0.566-  30 2.85  31 2.86  36 2.87  35 2.98  28 2.98  20 2.99  27 3.02  26 3.04
                            34 3.10
  30  0.657  0.009  0.566-  29 2.85  32 2.86  36 2.87  35 2.98  28 2.98  21 2.99  27 3.02  25 3.04
                            33 3.10
  31  0.009  0.334  0.566-  33 2.85  29 2.86  36 2.87  35 2.98  28 2.98  20 2.99  22 3.02  19 3.04
                            32 3.10
  32  0.657  0.334  0.566-  34 2.85  30 2.86  36 2.87  35 2.98  28 2.98  21 2.99  24 3.02  19 3.04
                            31 3.10
  33  0.009  0.657  0.566-  31 2.85  34 2.86  36 2.87  35 2.98  28 2.98  23 2.99  22 3.02  25 3.04
                            30 3.10
  34  0.334  0.657  0.566-  32 2.85  33 2.86  36 2.87  35 2.98  28 2.98  23 2.99  24 3.02  26 3.04
                            29 3.10
  35  0.667  0.667  0.563-  24 2.96  27 2.96  22 2.96  29 2.98  34 2.98  32 2.98  31 2.98  30 2.98
                            33 2.98
  36  0.333  0.333  0.552-  37 1.73  20 2.78  23 2.78  21 2.78  33 2.87  31 2.87  29 2.87  30 2.87
                            34 2.87  32 2.87
  37  0.333  0.333  0.630-  36 1.73
 
  LATTYP: Found a hexagonal cell.
 ALAT       =     8.8135128021
 C/A-ratio  =     2.5184286595
  
  Lattice vectors:
  
 A1 = (  -4.4067569092,  -7.6327256898,   0.0000000000)
 A2 = (   8.8135128021,   0.0000000000,   0.0000000000)
 A3 = (   0.0000000000,   0.0000000000,  22.1962032318)


Analysis of symmetry for initial positions (statically):
=====================================================================
 Subroutine PRICEL returns:
 Original cell was already a primitive cell.
 

 Routine SETGRP: Setting up the symmetry group for a 
 hexagonal supercell.


 Subroutine GETGRP returns: Found  6 space group operations
 (whereof  6 operations were pure point group operations)
 out of a pool of 24 trial point group operations.


The static configuration has the point symmetry C_3v.


Analysis of symmetry for dynamics (positions and initial velocities):
=====================================================================
 Subroutine PRICEL returns:
 Original cell was already a primitive cell.
 

 Routine SETGRP: Setting up the symmetry group for a 
 hexagonal supercell.


 Subroutine GETGRP returns: Found  6 space group operations
 (whereof  6 operations were pure point group operations)
 out of a pool of 24 trial point group operations.


The dynamic configuration has the point symmetry C_3v.


Analysis of constrained symmetry for selective dynamics:
=====================================================================
 Subroutine PRICEL returns:
 Original cell was already a primitive cell.
 

 Routine SETGRP: Setting up the symmetry group for a 
 hexagonal supercell.


 Subroutine GETGRP returns: Found  6 space group operations
 (whereof  6 operations were pure point group operations)
 out of a pool of 24 trial point group operations.


The constrained configuration has the point symmetry C_3v.


 Subroutine INISYM returns: Found  6 space group operations
 (whereof  6 operations are pure point group operations),
 and found     1 'primitive' translations


----------------------------------------------------------------------------------------

                                     Primitive cell                                     

  volume of cell :    1493.1636

  direct lattice vectors                    reciprocal lattice vectors
     8.813512802  0.000000000  0.000000000     0.113462137 -0.065507406  0.000000000
     4.406756909  7.632725690  0.000000000     0.000000000  0.131014796  0.000000000
     0.000000000  0.000000000 22.196203232     0.000000000  0.000000000  0.045052750

  length of vectors
     8.813512802  8.813512802 22.196203232     0.131014796  0.131014796  0.045052750

  position of ions in fractional coordinates (direct lattice)
     0.000000000  0.000000000  0.237895638
     0.333333343  0.000000000  0.237895638
     0.666666687  0.000000000  0.237895638
     1.000000000  0.333333343  0.237895638
     0.333333313  0.333333343  0.237895638
     0.666666687  0.333333343  0.237895638
     1.000000000  0.666666687  0.237895638
     0.333333343  0.666666687  0.237895638
     0.666666627  0.666666687  0.237895638
     0.111111119  0.111111112  0.345965207
     0.444444418  0.111111112  0.345965207
     0.777777791  0.111111112  0.345965207
     0.111111127  0.444444448  0.345965207
     0.444444478  0.444444448  0.345965207
     0.777777731  0.444444448  0.345965207
     0.111111090  0.777777791  0.345965207
     0.444444448  0.777777791  0.345965207
     0.777777851  0.777777791  0.345965207
     0.888618023  0.222763970  0.454446333
     0.222009851  0.222009836  0.452661401
     0.555980358  0.222009836  0.452661401
     0.886669919  0.556665071  0.453631222
     0.222009806  0.555980358  0.452661401
     0.556665071  0.556665071  0.453631222
     0.888618023  0.888618023  0.454446333
     0.222764000  0.888618023  0.454446333
     0.556665011  0.886669919  0.453631222
     0.000000000  0.000000000  0.563133560
     0.333745784  0.009183304  0.565704203
     0.657070942  0.009183304  0.565704203
     0.009183304  0.333745784  0.565704203
     0.657070942  0.333745784  0.565704203
     0.009183304  0.657070942  0.565704203
     0.333745784  0.657070942  0.565704203
     0.666666627  0.666666687  0.563383642
     0.333333313  0.333333343  0.551633869
     0.333333313  0.333333343  0.629683327

  ion indices of the primitive-cell ions
   primitive index   ion index
                 1           1
                 2           2
                 3           3
                 4           4
                 5           5
                 6           6
                 7           7
                 8           8
                 9           9
                10          10
                11          11
                12          12
                13          13
                14          14
                15          15
                16          16
                17          17
                18          18
                19          19
                20          20
                21          21
                22          22
                23          23
                24          24
                25          25
                26          26
                27          27
                28          28
                29          29
                30          30
                31          31
                32          32
                33          33
                34          34
                35          35
                36          36
                37          37

----------------------------------------------------------------------------------------

 
 
 KPOINTS: Automatic mesh                          

Automatic generation of k-mesh.
 Grid dimensions read from file:
 generate k-points for:    8    8    1

 Generating k-lattice:

  Cartesian coordinates                     Fractional coordinates (reciprocal lattice)
     0.014182767 -0.008188426  0.000000000     0.125000000 -0.000000000  0.000000000
     0.000000000  0.016376850  0.000000000     0.000000000  0.125000000  0.000000000
     0.000000000  0.000000000  0.045052750     0.000000000  0.000000000  1.000000000

  Length of vectors
     0.016376850  0.016376850  0.045052750

  Shift w.r.t. Gamma in fractional coordinates (k-lattice)
     0.000000000  0.000000000  0.000000000

 TETIRR: Found     36 inequivalent tetrahedra from      384
 
 Subroutine IBZKPT returns following result:
 ===========================================
 
 Found     10 irreducible k-points:
 
 Following reciprocal coordinates:
            Coordinates               Weight
  0.000000  0.000000  0.000000      1.000000
  0.125000 -0.000000  0.000000      6.000000
  0.250000 -0.000000  0.000000      6.000000
  0.375000  0.000000  0.000000      6.000000
  0.500000 -0.000000  0.000000      3.000000
  0.250000  0.125000  0.000000      6.000000
  0.375000  0.125000  0.000000     12.000000
  0.500000  0.125000  0.000000     12.000000
  0.500000  0.250000  0.000000      6.000000
 -0.375000  0.250000  0.000000      6.000000
 
 Following cartesian coordinates:
            Coordinates               Weight
  0.000000  0.000000  0.000000      1.000000
  0.014183 -0.008188  0.000000      6.000000
  0.028366 -0.016377  0.000000      6.000000
  0.042548 -0.024565  0.000000      6.000000
  0.056731 -0.032754  0.000000      3.000000
  0.028366 -0.000000  0.000000      6.000000
  0.042548 -0.008188  0.000000     12.000000
  0.056731 -0.016377  0.000000     12.000000
  0.056731 -0.000000  0.000000      6.000000
 -0.042548  0.057319  0.000000      6.000000
 


--------------------------------------------------------------------------------------------------------




 Dimension of arrays:
   k-points           NKPTS =     10   k-points in BZ     NKDIM =     10   number of bands    NBANDS=    252
   number of dos      NEDOS =    301   number of ions     NIONS =     37
   non local maximal  LDIM  =      6   non local SUM 2l+1 LMDIM =     18
   total plane-waves  NPLWV = 290304
   max r-space proj   IRMAX =   3166   max aug-charges    IRDMAX=  12088
   dimension x,y,z NGX =    48 NGY =   48 NGZ =  126
   dimension x,y,z NGXF=    96 NGYF=   96 NGZF=  252
   support grid    NGXF=    96 NGYF=   96 NGZF=  252
   ions per type =              35   1   1
   NGX,Y,Z   is equivalent  to a cutoff of   9.05,  9.05,  9.44 a.u.
   NGXF,Y,Z  is equivalent  to a cutoff of  18.11, 18.11, 18.87 a.u.

 SYSTEM =  unknown system                          
 POSCAR =  Au-Nb-N                                 

 Startparameter for this run:
   NWRITE =      2    write-flag & timer
   PREC   = normal    normal or accurate (medium, high low for compatibility)
   ISTART =      0    job   : 0-new  1-cont  2-samecut
   ICHARG =     11    charge: 1-file 2-atom 10-const
   ISPIN  =      1    spin polarized calculation?
   LNONCOLLINEAR =      F non collinear calculations
   LSORBIT =      F    spin-orbit coupling
   INIWAV =      1    electr: 0-lowe 1-rand  2-diag
   LASPH  =      F    aspherical Exc in radial PAW
   METAGGA=      F    non-selfconsistent MetaGGA calc.

 Electronic Relaxation 1
   ENCUT  =  500.0 eV  36.75 Ry    6.06 a.u.  16.07 16.07 40.47*2*pi/ulx,y,z
   ENINI  =  500.0     initial cutoff
   ENAUG  =  627.1 eV  augmentation charge cutoff
   NELM   =    150;   NELMIN=  2; NELMDL= -5     # of ELM steps 
   EDIFF  = 0.1E-04   stopping-criterion for ELM
   LREAL  =      T    real-space projection
   NLSPLINE    = F    spline interpolate recip. space projectors
   LCOMPAT=      F    compatible to vasp.4.4
   GGA_COMPAT  = T    GGA compatible to vasp.4.4-vasp.4.6
   LMAXPAW     = -100 max onsite density
   LMAXMIX     =    2 max onsite mixed and CHGCAR
   VOSKOWN=      0    Vosko Wilk Nusair interpolation
   ROPT   =   -0.00050  -0.00050  -0.00050
 Ionic relaxation
   EDIFFG = -.1E-01   stopping-criterion for IOM
   NSW    =      0    number of steps for IOM
   NBLOCK =      1;   KBLOCK =      1    inner block; outer block 
   IBRION =     -1    ionic relax: 0-MD 1-quasi-New 2-CG
   NFREE  =      1    steps in history (QN), initial steepest desc. (CG)
   ISIF   =      2    stress and relaxation
   IWAVPR =     10    prediction:  0-non 1-charg 2-wave 3-comb
   ISYM   =      2    0-nonsym 1-usesym 2-fastsym
   LCORR  =      T    Harris-Foulkes like correction to forces

   POTIM  = 0.5000    time-step for ionic-motion
   TEIN   =    0.0    initial temperature
   TEBEG  =    0.0;   TEEND  =   0.0 temperature during run
   SMASS  =  -3.00    Nose mass-parameter (am)
   estimated Nose-frequenzy (Omega)   =  0.10E-29 period in steps = 0.13E+47 mass=  -0.178E-26a.u.
   SCALEE = 1.0000    scale energy and forces
   NPACO  =    256;   APACO  = 16.0  distance and # of slots for P.C.
   PSTRESS=    0.0 pullay stress

  Mass of Ions in am
   POMASS = 196.97 92.91 14.00
  Ionic Valenz
   ZVAL   =  11.00 13.00  5.00
  Atomic Wigner-Seitz radii
   RWIGS  =  -1.00 -1.00 -1.00
  virtual crystal weights 
   VCA    =   1.00  1.00  1.00
   NELECT =     403.0000    total number of electrons
   NUPDOWN=      -1.0000    fix difference up-down

 DOS related values:
   EMIN   =  10.00;   EMAX   =-10.00  energy-range for DOS
   EFERMI =   0.00
   ISMEAR =    -5;   SIGMA  =   0.10  broadening in eV -4-tet -1-fermi 0-gaus

 Electronic relaxation 2 (details)
   IALGO  =     68    algorithm
   LDIAG  =      T    sub-space diagonalisation (order eigenvalues)
   LSUBROT=      F    optimize rotation matrix (better conditioning)
   TURBO    =      0    0=normal 1=particle mesh
   IRESTART =      0    0=no restart 2=restart with 2 vectors
   NREBOOT  =      0    no. of reboots
   NMIN     =      0    reboot dimension
   EREF     =   0.00    reference energy to select bands
   IMIX   =      4    mixing-type and parameters
     AMIX     =   0.40;   BMIX     =  1.00
     AMIX_MAG =   1.60;   BMIX_MAG =  1.00
     AMIN     =   0.10
     WC   =   100.;   INIMIX=   1;  MIXPRE=   1;  MAXMIX= -45

 Intra band minimization:
   WEIMIN = 0.0000     energy-eigenvalue tresh-hold
   EBREAK =  0.99E-08  absolut break condition
   DEPER  =   0.30     relativ break condition  

   TIME   =   0.40     timestep for ELM

  volume/ion in A,a.u.               =      40.36       272.33
  Fermi-wavevector in a.u.,A,eV,Ry     =   1.057972  1.999277 15.229057  1.119304
  Thomas-Fermi vector in A             =   2.193264
 
 Write flags
   LWAVE        =      F    write WAVECAR
   LDOWNSAMPLE  =      F    k-point downsampling of WAVECAR
   LCHARG       =      F    write CHGCAR
   LVTOT        =      F    write LOCPOT, total local potential
   LVHAR        =      F    write LOCPOT, Hartree potential only
   LELF         =      F    write electronic localiz. function (ELF)
   LORBIT       =     10    0 simple, 1 ext, 2 COOP (PROOUT), +10 PAW based schemes


 Dipole corrections
   LMONO  =      F    monopole corrections only (constant potential shift)
   LDIPOL =      F    correct potential (dipole corrections)
   IDIPOL =      0    1-x, 2-y, 3-z, 4-all directions 
   EPSILON=  1.0000000 bulk dielectric constant

 Exchange correlation treatment:
   GGA     =    --    GGA type
   LEXCH   =     8    internal setting for exchange type
   VOSKOWN=      0    Vosko Wilk Nusair interpolation
   LHFCALC =     F    Hartree Fock is set to
   LHFONE  =     F    Hartree Fock one center treatment
   AEXX    =    0.0000 exact exchange contribution

 Linear response parameters
   LEPSILON=     F    determine dielectric tensor
   LRPA    =     F    only Hartree local field effects (RPA)
   LNABLA  =     F    use nabla operator in PAW spheres
   LVEL    =     F    velocity operator in full k-point grid
   LINTERFAST=   F  fast interpolation
   KINTER  =     0    interpolate to denser k-point grid
   CSHIFT  =0.1000    complex shift for real part using Kramers Kronig
   OMEGAMAX=  -1.0    maximum frequency
   DEG_THRESHOLD= 0.2000000E-02 threshold for treating states as degnerate
   RTIME   =   -0.100 relaxation time in fs
  (WPLASMAI=    0.000 imaginary part of plasma frequency in eV, 0.658/RTIME)
   DFIELD  = 0.0000000 0.0000000 0.0000000 field for delta impulse in time
 
 Orbital magnetization related:
   ORBITALMAG=     F  switch on orbital magnetization
   LCHIMAG   =     F  perturbation theory with respect to B field
   DQ        =  0.001000  dq finite difference perturbation B field
   LLRAUG    =     F  two centre corrections for induced B field



--------------------------------------------------------------------------------------------------------


 Static calculation
 charge density and potential remain constant during run
 non-spin polarized calculation
 RMM-DIIS sequential band-by-band and
  variant of blocked Davidson during initial phase
 perform sub-space diagonalisation
    before iterative eigenvector-optimisation
 no mixing
 using additional bands           50
 real space projection scheme for non local part
 use partial core corrections
 calculate Harris-corrections to forces 
   (improved forces if not selfconsistent)
 use gradient corrections 
 WARNING: stress and forces are not correct
  (second derivative of E(xc) not defined)
 use of overlap-Matrix (Vanderbilt PP)
 Fermi weights with tetrahedron method with Bloechl corrections


--------------------------------------------------------------------------------------------------------


  energy-cutoff  :      500.00
  volume of cell :     1493.16
      direct lattice vectors                 reciprocal lattice vectors
     8.813512802  0.000000000  0.000000000     0.113462137 -0.065507406  0.000000000
     4.406756909  7.632725690  0.000000000     0.000000000  0.131014796  0.000000000
     0.000000000  0.000000000 22.196203232     0.000000000  0.000000000  0.045052750

  length of vectors
     8.813512802  8.813512802 22.196203232     0.131014796  0.131014796  0.045052750


 
 k-points in units of 2pi/SCALE and weight: Automatic mesh                          
   0.00000000  0.00000000  0.00000000       0.016
   0.01418277 -0.00818843  0.00000000       0.094
   0.02836553 -0.01637685  0.00000000       0.094
   0.04254830 -0.02456528  0.00000000       0.094
   0.05673107 -0.03275370  0.00000000       0.047
   0.02836553 -0.00000000  0.00000000       0.094
   0.04254830 -0.00818843  0.00000000       0.188
   0.05673107 -0.01637685  0.00000000       0.188
   0.05673107 -0.00000000  0.00000000       0.094
  -0.04254830  0.05731898  0.00000000       0.094
 
 k-points in reciprocal lattice and weights: Automatic mesh                          
   0.00000000  0.00000000  0.00000000       0.016
   0.12500000 -0.00000000  0.00000000       0.094
   0.25000000 -0.00000000  0.00000000       0.094
   0.37500000  0.00000000  0.00000000       0.094
   0.50000000 -0.00000000  0.00000000       0.047
   0.25000000  0.12500000  0.00000000       0.094
   0.37500000  0.12500000  0.00000000       0.188
   0.50000000  0.12500000  0.00000000       0.188
   0.50000000  0.25000000  0.00000000       0.094
  -0.37500000  0.25000000  0.00000000       0.094
 
 position of ions in fractional coordinates (direct lattice) 
   0.00000000  0.00000000  0.23789564
   0.33333334  0.00000000  0.23789564
   0.66666669  0.00000000  0.23789564
   0.00000000  0.33333334  0.23789564
   0.33333331  0.33333334  0.23789564
   0.66666669  0.33333334  0.23789564
   0.00000000  0.66666669  0.23789564
   0.33333334  0.66666669  0.23789564
   0.66666663  0.66666669  0.23789564
   0.11111112  0.11111111  0.34596521
   0.44444442  0.11111111  0.34596521
   0.77777779  0.11111111  0.34596521
   0.11111113  0.44444445  0.34596521
   0.44444448  0.44444445  0.34596521
   0.77777773  0.44444445  0.34596521
   0.11111109  0.77777779  0.34596521
   0.44444445  0.77777779  0.34596521
   0.77777785  0.77777779  0.34596521
   0.88861802  0.22276397  0.45444633
   0.22200985  0.22200984  0.45266140
   0.55598036  0.22200984  0.45266140
   0.88666992  0.55666507  0.45363122
   0.22200981  0.55598036  0.45266140
   0.55666507  0.55666507  0.45363122
   0.88861802  0.88861802  0.45444633
   0.22276400  0.88861802  0.45444633
   0.55666501  0.88666992  0.45363122
   0.00000000  0.00000000  0.56313356
   0.33374578  0.00918330  0.56570420
   0.65707094  0.00918330  0.56570420
   0.00918330  0.33374578  0.56570420
   0.65707094  0.33374578  0.56570420
   0.00918330  0.65707094  0.56570420
   0.33374578  0.65707094  0.56570420
   0.66666663  0.66666669  0.56338364
   0.33333331  0.33333334  0.55163387
   0.33333331  0.33333334  0.62968333
 
 position of ions in cartesian coordinates  (Angst):
   0.00000000  0.00000000  5.28037993
   2.93783769  0.00000000  5.28037993
   5.87567538  0.00000000  5.28037993
   1.46891901  2.54424197  5.28037993
   4.40675643  2.54424197  5.28037993
   7.34459439  2.54424197  5.28037993
   2.93783803  5.08848395  5.28037993
   5.87567571  5.08848395  5.28037993
   8.81351288  5.08848395  5.28037993
   1.46891893  0.84808064  7.67911405
   4.40675623  0.84808064  7.67911405
   7.34459418  0.84808064  7.67911405
   2.93783798  3.39232256  7.67911405
   5.87567574  3.39232256  7.67911405
   8.81351263  3.39232256  7.67911405
   4.40675667  5.93656453  7.67911405
   7.34459449  5.93656453  7.67911405
  10.28243270  5.93656453  7.67911405
   8.81351299  1.70029628 10.08698316
   2.93503004  1.69454018 10.04736446
   5.87848338  1.69454018 10.04736446
  10.26776433  4.24887178 10.06889079
   4.40675655  4.24364556 10.04736446
   7.35926237  4.24887178 10.06889079
  11.74776993  6.78257761 10.08698316
   5.87925698  6.78257761 10.08698316
   8.81351299  6.76770827 10.06889079
   0.00000000  0.00000000 12.49942695
   2.98194133  0.07009364 12.55648547
   5.83157175  0.07009364 12.55648547
   1.55167371  2.54739002 12.55648547
   7.26183970  2.54739002 12.55648547
   2.97648908  5.01524226 12.55648547
   5.83702465  5.01524226 12.55648547
   8.81351288  5.08848395 12.50497782
   4.40675643  2.54424197 12.24417747
   4.40675643  2.54424197 13.97657910
 


--------------------------------------------------------------------------------------------------------


 k-point   1 :   0.0000 0.0000 0.0000  plane waves:   37827
 k-point   2 :   0.1250-0.0000 0.0000  plane waves:   37876
 k-point   3 :   0.2500-0.0000 0.0000  plane waves:   37924
 k-point   4 :   0.3750 0.0000 0.0000  plane waves:   37904
 k-point   5 :   0.5000-0.0000 0.0000  plane waves:   37912
 k-point   6 :   0.2500 0.1250 0.0000  plane waves:   37858
 k-point   7 :   0.3750 0.1250 0.0000  plane waves:   37928
 k-point   8 :   0.5000 0.1250 0.0000  plane waves:   37924
 k-point   9 :   0.5000 0.2500 0.0000  plane waves:   37926
 k-point  10 :  -0.3750 0.2500 0.0000  plane waves:   37916

 maximum and minimum number of plane-waves per node :     37928    37827

 maximum number of plane-waves:     37928
 maximum index in each direction: 
   IXMAX=   16   IYMAX=   16   IZMAX=   40
   IXMIN=  -16   IYMIN=  -16   IZMIN=  -40


 serial   3D FFT for wavefunctions
 parallel 3D FFT for charge:
    minimum data exchange during FFTs selected (reduces bandwidth)


 total amount of memory used by VASP MPI-rank0   122690. kBytes
=======================================================================

   base      :      30000. kBytes
   nonlr-proj:      14305. kBytes
   fftplans  :       4330. kBytes
   grid      :      17879. kBytes
   one-center:        575. kBytes
   wavefun   :      55601. kBytes
 
     INWAV:  cpu time    0.0000: real time    0.0000
 initial charge density was supplied:
 number of electron     403.0000067 magnetization 
 keeping initial charge density in first step


--------------------------------------------------------------------------------------------------------


 Maximum index for non-local projection operator         3066
 Maximum index for augmentation-charges          863 (set IRDMAX)


--------------------------------------------------------------------------------------------------------


 First call to EWALD:  gamma=   0.155
 Maximum number of real-space cells 4x 4x 2
 Maximum number of reciprocal cells 2x 2x 5

    FEWALD:  cpu time    0.0013: real time    0.0013


--------------------------------------- Iteration      1(   1)  ---------------------------------------


    POTLOK:  cpu time    0.0418: real time    0.0421
    SETDIJ:  cpu time    0.0048: real time    0.0049
     EDDAV:  cpu time    7.1163: real time    7.1177
 BZINTS: Fermi energy:   11.678046;  403.000000 electrons
         Band energy: 0.138064E+04;  BLOECHL correction:   -0.020863
       DOS:  cpu time    0.0106: real time    0.0136
    --------------------------------------------
      LOOP:  cpu time    7.1735: real time    7.1783

 eigenvalue-minimisations  :  5040
 total energy-change (2. order) : 0.2762559E+04  (-0.1851053E+05)
 number of electron     403.0000067 magnetization 
 augmentation part      403.0000067 magnetization 

 Free energy of the ion-electron system (eV)
  ---------------------------------------------------
  alpha Z        PSCENC =      1037.04486835
  Ewald energy   TEWEN  =     97518.49936878
  -Hartree energ DENC   =   -132747.86249109
  -exchange      EXHF   =         0.00000000
  -V(xc)+E(xc)   XCENC  =       593.19360804
  PAW double counting   =     37157.87596346   -36409.43897584
  entropy T*S    EENTRO =         0.00000000
  eigenvalues    EBANDS =      1380.64158224
  atomic energy  EATOM  =     34232.60550088
  Solvation  Ediel_sol  =         0.00000000
  ---------------------------------------------------
  free energy    TOTEN  =      2762.55942483 eV

  energy without entropy =     2762.55942483  energy(sigma->0) =     2762.55942483


--------------------------------------------------------------------------------------------------------




--------------------------------------- Iteration      1(   2)  ---------------------------------------


     EDDAV:  cpu time    7.8236: real time    7.8238
 BZINTS: Fermi energy:    1.592529;  403.000000 electrons
         Band energy:-0.135663E+04;  BLOECHL correction:   -0.045990
       DOS:  cpu time    0.0102: real time    0.0102
    --------------------------------------------
      LOOP:  cpu time    7.8337: real time    7.8339

 eigenvalue-minimisations  :  5656
 total energy-change (2. order) :-0.2737267E+04  (-0.2558801E+04)
 number of electron     403.0000067 magnetization 
 augmentation part      403.0000067 magnetization 

 Free energy of the ion-electron system (eV)
  ---------------------------------------------------
  alpha Z        PSCENC =      1037.04486835
  Ewald energy   TEWEN  =     97518.49936878
  -Hartree energ DENC   =   -132747.86249109
  -exchange      EXHF   =         0.00000000
  -V(xc)+E(xc)   XCENC  =       593.19360804
  PAW double counting   =     37157.87596346   -36409.43897584
  entropy T*S    EENTRO =         0.00000000
  eigenvalues    EBANDS =     -1356.62590695
  atomic energy  EATOM  =     34232.60550088
  Solvation  Ediel_sol  =         0.00000000
  ---------------------------------------------------
  free energy    TOTEN  =        25.29193563 eV

  energy without entropy =       25.29193563  energy(sigma->0) =       25.29193563


--------------------------------------------------------------------------------------------------------




--------------------------------------- Iteration      1(   3)  ---------------------------------------


     EDDAV:  cpu time    8.7456: real time    8.7458
 BZINTS: Fermi energy:    0.741794;  403.000000 electrons
         Band energy:-0.150151E+04;  BLOECHL correction:   -0.077175
       DOS:  cpu time    0.0097: real time    0.0097
    --------------------------------------------
      LOOP:  cpu time    8.7554: real time    8.7556

 eigenvalue-minimisations  :  6468
 total energy-change (2. order) :-0.1448818E+03  (-0.1401291E+03)
 number of electron     403.0000067 magnetization 
 augmentation part      403.0000067 magnetization 

 Free energy of the ion-electron system (eV)
  ---------------------------------------------------
  alpha Z        PSCENC =      1037.04486835
  Ewald energy   TEWEN  =     97518.49936878
  -Hartree energ DENC   =   -132747.86249109
  -exchange      EXHF   =         0.00000000
  -V(xc)+E(xc)   XCENC  =       593.19360804
  PAW double counting   =     37157.87596346   -36409.43897584
  entropy T*S    EENTRO =         0.00000000
  eigenvalues    EBANDS =     -1501.50771364
  atomic energy  EATOM  =     34232.60550088
  Solvation  Ediel_sol  =         0.00000000
  ---------------------------------------------------
  free energy    TOTEN  =      -119.58987106 eV

  energy without entropy =     -119.58987106  energy(sigma->0) =     -119.58987106


--------------------------------------------------------------------------------------------------------




--------------------------------------- Iteration      1(   4)  ---------------------------------------


     EDDAV:  cpu time    9.8528: real time    9.8529
 BZINTS: Fermi energy:    0.714232;  403.000000 electrons
         Band energy:-0.150600E+04;  BLOECHL correction:   -0.079373
       DOS:  cpu time    0.0101: real time    0.0101
    --------------------------------------------
      LOOP:  cpu time    9.8629: real time    9.8631

 eigenvalue-minimisations  :  7476
 total energy-change (2. order) :-0.4494868E+01  (-0.4457486E+01)
 number of electron     403.0000067 magnetization 
 augmentation part      403.0000067 magnetization 

 Free energy of the ion-electron system (eV)
  ---------------------------------------------------
  alpha Z        PSCENC =      1037.04486835
  Ewald energy   TEWEN  =     97518.49936878
  -Hartree energ DENC   =   -132747.86249109
  -exchange      EXHF   =         0.00000000
  -V(xc)+E(xc)   XCENC  =       593.19360804
  PAW double counting   =     37157.87596346   -36409.43897584
  entropy T*S    EENTRO =         0.00000000
  eigenvalues    EBANDS =     -1506.00258174
  atomic energy  EATOM  =     34232.60550088
  Solvation  Ediel_sol  =         0.00000000
  ---------------------------------------------------
  free energy    TOTEN  =      -124.08473915 eV

  energy without entropy =     -124.08473915  energy(sigma->0) =     -124.08473915


--------------------------------------------------------------------------------------------------------




--------------------------------------- Iteration      1(   5)  ---------------------------------------


     EDDAV:  cpu time    8.9140: real time    8.9141
 BZINTS: Fermi energy:    0.713536;  403.000000 electrons
         Band energy:-0.150613E+04;  BLOECHL correction:   -0.079402
       DOS:  cpu time    0.0101: real time    0.0101
    --------------------------------------------
      LOOP:  cpu time    8.9242: real time    8.9243

 eigenvalue-minimisations  :  6664
 total energy-change (2. order) :-0.1271332E+00  (-0.1270204E+00)
 number of electron     403.0000067 magnetization 
 augmentation part      403.0000067 magnetization 

 Free energy of the ion-electron system (eV)
  ---------------------------------------------------
  alpha Z        PSCENC =      1037.04486835
  Ewald energy   TEWEN  =     97518.49936878
  -Hartree energ DENC   =   -132747.86249109
  -exchange      EXHF   =         0.00000000
  -V(xc)+E(xc)   XCENC  =       593.19360804
  PAW double counting   =     37157.87596346   -36409.43897584
  entropy T*S    EENTRO =         0.00000000
  eigenvalues    EBANDS =     -1506.12971497
  atomic energy  EATOM  =     34232.60550088
  Solvation  Ediel_sol  =         0.00000000
  ---------------------------------------------------
  free energy    TOTEN  =      -124.21187238 eV

  energy without entropy =     -124.21187238  energy(sigma->0) =     -124.21187238


--------------------------------------------------------------------------------------------------------




--------------------------------------- Iteration      1(   6)  ---------------------------------------


    EDDIAG:  cpu time    1.4223: real time    1.4225
  RMM-DIIS:  cpu time    6.0300: real time    6.0300
    ORTHCH:  cpu time    0.2602: real time    0.2602
 BZINTS: Fermi energy:    0.713523;  403.000000 electrons
         Band energy:-0.150613E+04;  BLOECHL correction:   -0.079403
       DOS:  cpu time    0.0103: real time    0.0103
    --------------------------------------------
      LOOP:  cpu time    7.7227: real time    7.7231

 eigenvalue-minimisations  :  7478
 total energy-change (2. order) :-0.2108435E-02  (-0.2107599E-02)
 number of electron     403.0000067 magnetization 
 augmentation part      403.0000067 magnetization 

 Free energy of the ion-electron system (eV)
  ---------------------------------------------------
  alpha Z        PSCENC =      1037.04486835
  Ewald energy   TEWEN  =     97518.49936878
  -Hartree energ DENC   =   -132747.86249109
  -exchange      EXHF   =         0.00000000
  -V(xc)+E(xc)   XCENC  =       593.19360804
  PAW double counting   =     37157.87596346   -36409.43897584
  entropy T*S    EENTRO =         0.00000000
  eigenvalues    EBANDS =     -1506.13182340
  atomic energy  EATOM  =     34232.60550088
  Solvation  Ediel_sol  =         0.00000000
  ---------------------------------------------------
  free energy    TOTEN  =      -124.21398082 eV

  energy without entropy =     -124.21398082  energy(sigma->0) =     -124.21398082


--------------------------------------------------------------------------------------------------------




--------------------------------------- Iteration      1(   7)  ---------------------------------------


    EDDIAG:  cpu time    1.4247: real time    1.4248
  RMM-DIIS:  cpu time    7.5986: real time    7.5987
    ORTHCH:  cpu time    0.2603: real time    0.2603
 BZINTS: Fermi energy:    0.713518;  403.000000 electrons
         Band energy:-0.150613E+04;  BLOECHL correction:   -0.079403
       DOS:  cpu time    0.0100: real time    0.0100
    --------------------------------------------
      LOOP:  cpu time    9.2936: real time    9.2938

 eigenvalue-minimisations  :  9520
 total energy-change (2. order) :-0.9469537E-03  (-0.9429851E-03)
 number of electron     403.0000067 magnetization 
 augmentation part      403.0000067 magnetization 

 Free energy of the ion-electron system (eV)
  ---------------------------------------------------
  alpha Z        PSCENC =      1037.04486835
  Ewald energy   TEWEN  =     97518.49936878
  -Hartree energ DENC   =   -132747.86249109
  -exchange      EXHF   =         0.00000000
  -V(xc)+E(xc)   XCENC  =       593.19360804
  PAW double counting   =     37157.87596346   -36409.43897584
  entropy T*S    EENTRO =         0.00000000
  eigenvalues    EBANDS =     -1506.13277035
  atomic energy  EATOM  =     34232.60550088
  Solvation  Ediel_sol  =         0.00000000
  ---------------------------------------------------
  free energy    TOTEN  =      -124.21492777 eV

  energy without entropy =     -124.21492777  energy(sigma->0) =     -124.21492777


--------------------------------------------------------------------------------------------------------




--------------------------------------- Iteration      1(   8)  ---------------------------------------


    EDDIAG:  cpu time    1.4283: real time    1.4283
  RMM-DIIS:  cpu time    7.1919: real time    7.1919
    ORTHCH:  cpu time    0.2602: real time    0.2602
 BZINTS: Fermi energy:    0.713516;  403.000000 electrons
         Band energy:-0.150613E+04;  BLOECHL correction:   -0.079403
       DOS:  cpu time    0.0103: real time    0.0103
    --------------------------------------------
      LOOP:  cpu time    8.8906: real time    8.8907

 eigenvalue-minimisations  :  8907
 total energy-change (2. order) :-0.2383791E-03  (-0.2272418E-03)
 number of electron     403.0000067 magnetization 
 augmentation part      403.0000067 magnetization 

 Free energy of the ion-electron system (eV)
  ---------------------------------------------------
  alpha Z        PSCENC =      1037.04486835
  Ewald energy   TEWEN  =     97518.49936878
  -Hartree energ DENC   =   -132747.86249109
  -exchange      EXHF   =         0.00000000
  -V(xc)+E(xc)   XCENC  =       593.19360804
  PAW double counting   =     37157.87596346   -36409.43897584
  entropy T*S    EENTRO =         0.00000000
  eigenvalues    EBANDS =     -1506.13300873
  atomic energy  EATOM  =     34232.60550088
  Solvation  Ediel_sol  =         0.00000000
  ---------------------------------------------------
  free energy    TOTEN  =      -124.21516615 eV

  energy without entropy =     -124.21516615  energy(sigma->0) =     -124.21516615


--------------------------------------------------------------------------------------------------------




--------------------------------------- Iteration      1(   9)  ---------------------------------------


    EDDIAG:  cpu time    1.4268: real time    1.4269
  RMM-DIIS:  cpu time    6.2685: real time    6.2685
    ORTHCH:  cpu time    0.2602: real time    0.2602
 BZINTS: Fermi energy:    0.713515;  403.000000 electrons
         Band energy:-0.150613E+04;  BLOECHL correction:   -0.079403
       DOS:  cpu time    0.0101: real time    0.0101
    --------------------------------------------
      LOOP:  cpu time    7.9655: real time    7.9656

 eigenvalue-minimisations  :  7682
 total energy-change (2. order) :-0.9684145E-04  (-0.9570103E-04)
 number of electron     403.0000067 magnetization 
 augmentation part      403.0000067 magnetization 

 Free energy of the ion-electron system (eV)
  ---------------------------------------------------
  alpha Z        PSCENC =      1037.04486835
  Ewald energy   TEWEN  =     97518.49936878
  -Hartree energ DENC   =   -132747.86249109
  -exchange      EXHF   =         0.00000000
  -V(xc)+E(xc)   XCENC  =       593.19360804
  PAW double counting   =     37157.87596346   -36409.43897584
  entropy T*S    EENTRO =         0.00000000
  eigenvalues    EBANDS =     -1506.13310557
  atomic energy  EATOM  =     34232.60550088
  Solvation  Ediel_sol  =         0.00000000
  ---------------------------------------------------
  free energy    TOTEN  =      -124.21526299 eV

  energy without entropy =     -124.21526299  energy(sigma->0) =     -124.21526299


--------------------------------------------------------------------------------------------------------




--------------------------------------- Iteration      1(  10)  ---------------------------------------


    EDDIAG:  cpu time    1.4259: real time    1.4260
  RMM-DIIS:  cpu time    5.4867: real time    5.4867
    ORTHCH:  cpu time    0.2608: real time    0.2608
 BZINTS: Fermi energy:    0.713514;  403.000000 electrons
         Band energy:-0.150613E+04;  BLOECHL correction:   -0.079403
       DOS:  cpu time    0.0101: real time    0.0101
    --------------------------------------------
      LOOP:  cpu time    7.1834: real time    7.1836

 eigenvalue-minimisations  :  6493
 total energy-change (2. order) :-0.4342746E-04  (-0.4345427E-04)
 number of electron     403.0000067 magnetization 
 augmentation part      403.0000067 magnetization 

 Free energy of the ion-electron system (eV)
  ---------------------------------------------------
  alpha Z        PSCENC =      1037.04486835
  Ewald energy   TEWEN  =     97518.49936878
  -Hartree energ DENC   =   -132747.86249109
  -exchange      EXHF   =         0.00000000
  -V(xc)+E(xc)   XCENC  =       593.19360804
  PAW double counting   =     37157.87596346   -36409.43897584
  entropy T*S    EENTRO =         0.00000000
  eigenvalues    EBANDS =     -1506.13314900
  atomic energy  EATOM  =     34232.60550088
  Solvation  Ediel_sol  =         0.00000000
  ---------------------------------------------------
  free energy    TOTEN  =      -124.21530642 eV

  energy without entropy =     -124.21530642  energy(sigma->0) =     -124.21530642


--------------------------------------------------------------------------------------------------------




--------------------------------------- Iteration      1(  11)  ---------------------------------------


    EDDIAG:  cpu time    1.4254: real time    1.4255
  RMM-DIIS:  cpu time    5.5688: real time    5.5689
    ORTHCH:  cpu time    0.2612: real time    0.2612
 BZINTS: Fermi energy:    0.713514;  403.000000 electrons
         Band energy:-0.150613E+04;  BLOECHL correction:   -0.079403
       DOS:  cpu time    0.0103: real time    0.0103
    --------------------------------------------
      LOOP:  cpu time    7.2657: real time    7.2658

 eigenvalue-minimisations  :  6303
 total energy-change (2. order) :-0.1891589E-04  (-0.2122047E-04)
 number of electron     403.0000067 magnetization 
 augmentation part      403.0000067 magnetization 

 Free energy of the ion-electron system (eV)
  ---------------------------------------------------
  alpha Z        PSCENC =      1037.04486835
  Ewald energy   TEWEN  =     97518.49936878
  -Hartree energ DENC   =   -132747.86249109
  -exchange      EXHF   =         0.00000000
  -V(xc)+E(xc)   XCENC  =       593.19360804
  PAW double counting   =     37157.87596346   -36409.43897584
  entropy T*S    EENTRO =         0.00000000
  eigenvalues    EBANDS =     -1506.13316792
  atomic energy  EATOM  =     34232.60550088
  Solvation  Ediel_sol  =         0.00000000
  ---------------------------------------------------
  free energy    TOTEN  =      -124.21532533 eV

  energy without entropy =     -124.21532533  energy(sigma->0) =     -124.21532533


--------------------------------------------------------------------------------------------------------




--------------------------------------- Iteration      1(  12)  ---------------------------------------


    EDDIAG:  cpu time    1.4263: real time    1.4264
  RMM-DIIS:  cpu time    4.7482: real time    4.7483
    ORTHCH:  cpu time    0.2607: real time    0.2607
 BZINTS: Fermi energy:    0.713514;  403.000000 electrons
         Band energy:-0.150613E+04;  BLOECHL correction:   -0.079403
       DOS:  cpu time    0.0101: real time    0.0101
    --------------------------------------------
      LOOP:  cpu time    6.4453: real time    6.4454

 eigenvalue-minimisations  :  5455
 total energy-change (2. order) :-0.9740994E-05  (-0.9934211E-05)
 number of electron     403.0000067 magnetization 
 augmentation part      403.0000067 magnetization 

 Free energy of the ion-electron system (eV)
  ---------------------------------------------------
  alpha Z        PSCENC =      1037.04486835
  Ewald energy   TEWEN  =     97518.49936878
  -Hartree energ DENC   =   -132747.86249109
  -exchange      EXHF   =         0.00000000
  -V(xc)+E(xc)   XCENC  =       593.19360804
  PAW double counting   =     37157.87596346   -36409.43897584
  entropy T*S    EENTRO =         0.00000000
  eigenvalues    EBANDS =     -1506.13317766
  atomic energy  EATOM  =     34232.60550088
  Solvation  Ediel_sol  =         0.00000000
  ---------------------------------------------------
  free energy    TOTEN  =      -124.21533507 eV

  energy without entropy =     -124.21533507  energy(sigma->0) =     -124.21533507


--------------------------------------------------------------------------------------------------------




 average (electrostatic) potential at core
  the test charge radii are     1.2098  1.0703  0.7089
  (the norm of the test charge is              1.0000)
       1 -72.3354       2 -72.3161       3 -72.3160       4 -72.3161       5 -72.3276
       6 -72.3158       7 -72.3160       8 -72.3158       9 -72.3182      10 -72.6608
      11 -72.6464      12 -72.6605      13 -72.6464      14 -72.6461      15 -72.6469
      16 -72.6605      17 -72.6469      18 -72.6470      19 -72.5949      20 -72.9388
      21 -72.9386      22 -72.6341      23 -72.9386      24 -72.6339      25 -72.5949
      26 -72.5949      27 -72.6341      28 -72.3234      29 -72.4529      30 -72.4529
      31 -72.4529      32 -72.4526      33 -72.4529      34 -72.4526      35 -72.3084
      36 -88.0928      37 -67.4776
 
 
 
 E-fermi :   0.7135     XC(G=0):  -6.1564     alpha+bet : -5.8564

 Fermi energy:         0.7135139051

 k-point     1 :       0.0000    0.0000    0.0000
  band No.  band energies     occupation 
      1     -54.3307      2.00000
      2     -30.6465      2.00000
      3     -30.5204      2.00000
      4     -30.5204      2.00000
      5     -11.3130      2.00000
      6      -8.0977      2.00000
      7      -6.9181      2.00000
      8      -6.0143      2.00000
      9      -5.9972      2.00000
     10      -5.9971      2.00000
     11      -5.9678      2.00000
     12      -5.9330      2.00000
     13      -5.9133      2.00000
     14      -5.9086      2.00000
     15      -5.9086      2.00000
     16      -5.5098      2.00000
     17      -5.5098      2.00000
     18      -5.5006      2.00000
     19      -5.4296      2.00000
     20      -5.4296      2.00000
     21      -5.4226      2.00000
     22      -5.1309      2.00000
     23      -5.1309      2.00000
     24      -5.1184      2.00000
     25      -5.0875      2.00000
     26      -5.0645      2.00000
     27      -5.0645      2.00000
     28      -4.9323      2.00000
     29      -4.9322      2.00000
     30      -4.9259      2.00000
     31      -4.9259      2.00000
     32      -4.9250      2.00000
     33      -4.8890      2.00000
     34      -4.7824      2.00000
     35      -4.7687      2.00000
     36      -4.7687      2.00000
     37      -4.7514      2.00000
     38      -4.7514      2.00000
     39      -4.7476      2.00000
     40      -4.7476      2.00000
     41      -4.7135      2.00000
     42      -4.7074      2.00000
     43      -4.6891      2.00000
     44      -4.6891      2.00000
     45      -4.6776      2.00000
     46      -4.2672      2.00000
     47      -4.2672      2.00000
     48      -4.2404      2.00000
     49      -4.2397      2.00000
     50      -4.2397      2.00000
     51      -4.1892      2.00000
     52      -4.1831      2.00000
     53      -4.1831      2.00000
     54      -4.1507      2.00000
     55      -4.1507      2.00000
     56      -4.0742      2.00000
     57      -4.0701      2.00000
     58      -4.0371      2.00000
     59      -3.9881      2.00000
     60      -3.7456      2.00000
     61      -3.7100      2.00000
     62      -3.7100      2.00000
     63      -3.6958      2.00000
     64      -3.6957      2.00000
     65      -3.6933      2.00000
     66      -3.6695      2.00000
     67      -3.6049      2.00000
     68      -3.6049      2.00000
     69      -3.5449      2.00000
     70      -3.5449      2.00000
     71      -3.5290      2.00000
     72      -3.5045      2.00000
     73      -3.5044      2.00000
     74      -3.4707      2.00000
     75      -3.4598      2.00000
     76      -3.4598      2.00000
     77      -3.4212      2.00000
     78      -3.4212      2.00000
     79      -3.4163      2.00000
     80      -3.4063      2.00000
     81      -3.4063      2.00000
     82      -3.3953      2.00000
     83      -3.3953      2.00000
     84      -3.3951      2.00000
     85      -3.3549      2.00000
     86      -3.3549      2.00000
     87      -3.3249      2.00000
     88      -3.3045      2.00000
     89      -3.3023      2.00000
     90      -3.3023      2.00000
     91      -3.2477      2.00000
     92      -3.2477      2.00000
     93      -3.2272      2.00000
     94      -3.2272      2.00000
     95      -3.1979      2.00000
     96      -3.1979      2.00000
     97      -3.1952      2.00000
     98      -3.1396      2.00000
     99      -3.1396      2.00000
    100      -2.9604      2.00000
    101      -2.9604      2.00000
    102      -2.9562      2.00000
    103      -2.9562      2.00000
    104      -2.8337      2.00000
    105      -2.8315      2.00000
    106      -2.8315      2.00000
    107      -2.8119      2.00000
    108      -2.8119      2.00000
    109      -2.8040      2.00000
    110      -2.6751      2.00000
    111      -2.6751      2.00000
    112      -2.6369      2.00000
    113      -2.6048      2.00000
    114      -2.5969      2.00000
    115      -2.5969      2.00000
    116      -2.5654      2.00000
    117      -2.5654      2.00000
    118      -2.5038      2.00000
    119      -2.4934      2.00000
    120      -2.4770      2.00000
    121      -2.4191      2.00000
    122      -2.4191      2.00000
    123      -2.3401      2.00000
    124      -2.3113      2.00000
    125      -2.3113      2.00000
    126      -2.2887      2.00000
    127      -2.2886      2.00000
    128      -2.2688      2.00000
    129      -2.2271      2.00000
    130      -2.2271      2.00000
    131      -2.1952      2.00000
    132      -2.1952      2.00000
    133      -2.1291      2.00000
    134      -2.1291      2.00000
    135      -2.0744      2.00000
    136      -2.0497      2.00000
    137      -2.0496      2.00000
    138      -2.0477      2.00000
    139      -2.0334      2.00000
    140      -2.0267      2.00000
    141      -2.0267      2.00000
    142      -2.0215      2.00000
    143      -2.0214      2.00000
    144      -1.9198      2.00000
    145      -1.9198      2.00000
    146      -1.8545      2.00000
    147      -1.8507      2.00000
    148      -1.8507      2.00000
    149      -1.8221      2.00000
    150      -1.8044      2.00000
    151      -1.8043      2.00000
    152      -1.7943      2.00000
    153      -1.7668      2.00000
    154      -1.7667      2.00000
    155      -1.7551      2.00000
    156      -1.7397      2.00000
    157      -1.6996      2.00000
    158      -1.6996      2.00000
    159      -1.6792      2.00000
    160      -1.6586      2.00000
    161      -1.6586      2.00000
    162      -1.6380      2.00000
    163      -1.6379      2.00000
    164      -1.6373      2.00000
    165      -1.6328      2.00000
    166      -1.5691      2.00000
    167      -1.5691      2.00000
    168      -1.5543      2.00000
    169      -1.5543      2.00000
    170      -1.5522      2.00000
    171      -1.5499      2.00000
    172      -1.5356      2.00000
    173      -1.5356      2.00000
    174      -1.5095      2.00000
    175      -1.4660      2.00000
    176      -1.4660      2.00000
    177      -1.4496      2.00000
    178      -1.4420      2.00000
    179      -1.4357      2.00000
    180      -1.4357      2.00000
    181      -1.4278      2.00000
    182      -1.4134      2.00000
    183      -1.4134      2.00000
    184      -1.3776      2.00000
    185      -1.3578      2.00000
    186      -1.3578      2.00000
    187      -1.3488      2.00000
    188      -1.3104      2.00000
    189      -1.3104      2.00000
    190      -1.2034      2.00000
    191      -1.2034      2.00000
    192      -1.1990      2.00000
    193      -1.1629      2.00000
    194      -1.1629      2.00000
    195      -1.1497      2.00000
    196      -0.9957      2.00000
    197      -0.8892      2.00000
    198      -0.8892      2.00000
    199      -0.2689      2.00000
    200       0.0691      2.00000
    201       0.0691      2.00000
    202       0.1040      2.00000
    203       0.2981      2.00000
    204       0.3151      2.00000
    205       0.3151      2.86488
    206       1.1762      0.00000
    207       1.4314      0.00000
    208       1.4314      0.00000
    209       2.1904      0.00000
    210       2.2083      0.00000
    211       2.2114      0.00000
    212       2.2115      0.00000
    213       2.3078      0.00000
    214       2.3079      0.00000
    215       3.1475      0.00000
    216       3.1475      0.00000
    217       3.4711      0.00000
    218       3.5366      0.00000
    219       3.5366      0.00000
    220       3.7182      0.00000
    221       4.0350      0.00000
    222       4.2894      0.00000
    223       4.2895      0.00000
    224       4.7367      0.00000
    225       5.1428      0.00000
    226       5.3650      0.00000
    227       5.3667      0.00000
    228       5.3667      0.00000
    229       5.4373      0.00000
    230       5.4373      0.00000
    231       5.6140      0.00000
    232       5.6643      0.00000
    233       5.6643      0.00000
    234       5.8240      0.00000
    235       5.8240      0.00000
    236       5.8516      0.00000
    237       6.0355      0.00000
    238       6.1065      0.00000
    239       7.0031      0.00000
    240       7.0586      0.00000
    241       7.0590      0.00000
    242       7.0778      0.00000
    243       7.1161      0.00000
    244       7.1246      0.00000
    245       7.1474      0.00000
    246       7.2511      0.00000
    247       7.2549      0.00000
    248       7.2561      0.00000
    249       7.2607      0.00000
    250       7.2958      0.00000
    251       7.4525      0.00000
    252       7.5390      0.00000

 k-point     2 :       0.1250   -0.0000    0.0000
  band No.  band energies     occupation 
      1     -54.3307      2.00000
      2     -30.6465      2.00000
      3     -30.5204      2.00000
      4     -30.5204      2.00000
      5     -11.3129      2.00000
      6      -8.0469      2.00000
      7      -6.8682      2.00000
      8      -6.2065      2.00000
      9      -6.0374      2.00000
     10      -6.0289      2.00000
     11      -5.9337      2.00000
     12      -5.9096      2.00000
     13      -5.8406      2.00000
     14      -5.8298      2.00000
     15      -5.8065      2.00000
     16      -5.5383      2.00000
     17      -5.4862      2.00000
     18      -5.4782      2.00000
     19      -5.4602      2.00000
     20      -5.4050      2.00000
     21      -5.3993      2.00000
     22      -5.1652      2.00000
     23      -5.1202      2.00000
     24      -5.1170      2.00000
[...]
  0.000   0.000   0.000   0.000   0.000   0.000   0.000   0.000   0.000   0.000   0.000   0.000   0.000   0.000   0.000   0.000
  0.000   0.000   0.000   0.000   0.000   0.000   0.000   0.000   0.000   0.000   0.000   0.000   0.000   0.000   0.000   0.000
  0.000   0.000   0.000   0.000   0.000   0.000   0.000   0.000   0.000   0.000   0.000   0.000   0.000   0.000   0.000   0.000
  0.000   0.000   0.000   0.000   0.000   0.000   0.000   0.000   0.000   0.000   0.000   0.000   0.000   0.000   0.000   0.000
  0.000   0.000   0.000   0.000   0.000   0.000   0.000   0.000   0.000   0.000   0.000   0.000   0.000   0.000   0.000   0.000
  0.000   0.000   0.000   0.000   0.000   0.000   0.000   0.000   0.000   0.000   1.000   0.000   0.000   0.000   0.000   0.000
  0.000   0.000   0.000   0.000   0.000   0.000   0.000   0.000   0.000   0.000   0.000   0.000   0.000   0.000   0.000   0.000
  0.000   0.000   0.000   0.000   0.000   0.000   0.000   0.000   0.000   0.000   0.000   0.000   0.000   0.000   0.000   0.000
  0.000   0.000   0.000   0.000   0.000   0.000   0.000   0.000   0.000   0.000   0.000   0.000   0.000   0.000   0.000   0.000
  0.000   0.000   0.000   0.000   0.000   0.000   0.000   0.000   0.000   0.000   0.000   0.000   0.000   0.000   0.000   0.000
  0.000   0.000   0.000   0.000   0.000   0.000   0.000   0.000   0.000   0.000   0.000   0.000   0.000   0.000   0.000   0.000
  0.000   0.000   0.000   0.000   0.000   0.000   0.000   0.000   0.000   0.000   0.000   0.000   0.000   0.000   0.000   0.000
  0.000   0.000   0.000   0.000   0.000   0.000   0.000   0.000   0.000   0.000   0.000   0.000   0.000   0.000   0.000   0.000


------------------------ aborting loop because EDIFF is reached ----------------------------------------





 total charge

# of ion       s       p       d       tot
------------------------------------------
    1        0.543   0.240   8.765   9.548
    2        0.544   0.241   8.764   9.550
    3        0.544   0.241   8.764   9.550
    4        0.544   0.241   8.764   9.550
    5        0.541   0.241   8.764   9.546
    6        0.544   0.241   8.764   9.550
    7        0.544   0.241   8.764   9.550
    8        0.544   0.241   8.764   9.550
    9        0.541   0.241   8.767   9.549
   10        0.519   0.307   8.772   9.598
   11        0.521   0.308   8.776   9.605
   12        0.519   0.307   8.772   9.598
   13        0.521   0.308   8.776   9.605
   14        0.521   0.308   8.776   9.605
   15        0.514   0.309   8.773   9.597
   16        0.519   0.307   8.772   9.598
   17        0.514   0.309   8.773   9.597
   18        0.514   0.309   8.773   9.597
   19        0.517   0.294   8.775   9.586
   20        0.554   0.331   8.755   9.639
   21        0.554   0.331   8.755   9.639
   22        0.509   0.306   8.773   9.589
   23        0.554   0.331   8.755   9.639
   24        0.509   0.306   8.773   9.589
   25        0.517   0.294   8.775   9.586
   26        0.517   0.294   8.775   9.586
   27        0.509   0.306   8.773   9.589
   28        0.540   0.228   8.758   9.526
   29        0.573   0.237   8.751   9.562
   30        0.573   0.237   8.751   9.562
   31        0.573   0.237   8.751   9.562
   32        0.573   0.237   8.751   9.562
   33        0.573   0.237   8.751   9.562
   34        0.573   0.237   8.751   9.562
   35        0.540   0.231   8.754   9.525
   36        2.198   6.034   2.626  10.858
   37        1.350   2.233   0.000   3.583
--------------------------------------------------
tot         22.361  17.883 309.401 349.645
 
    CHARGE:  cpu time    0.3371: real time    0.3371
    FORLOC:  cpu time    0.0100: real time    0.0100
    FORNL :  cpu time    1.4511: real time    1.4513
    STRESS:  cpu time    4.3416: real time    4.3418
    FORCOR:  cpu time    0.0444: real time    0.0446
    FORHAR:  cpu time    0.0165: real time    0.0166
    OFIELD:  cpu time    0.0002: real time    0.0002

  FORCE on cell =-STRESS in cart. coord.  units (eV):
  Direction    XX          YY          ZZ          XY          YZ          ZX
  --------------------------------------------------------------------------------------
  Alpha Z  1037.04487  1037.04487  1037.04487
  Ewald  120594.53185120594.53233************    -0.00031    -0.00008    -0.00012
  Hartree129513.51161129513.51163************     0.00001    -0.00002    -0.00003
  E(xc)   -1808.35085 -1808.35084 -1814.66892    -0.00001    -0.00000    -0.00000
  Local  ************************262614.63700     0.00186     0.00001    -0.00000
  n-local   -83.18364   -38.39703   -53.96808    22.93832    -1.81956     1.64689
  augment  2382.18188  2382.18338  2404.87145    -0.00130    -0.00001     0.00003
  Kinetic  5675.65619  5684.38670  5761.76161     5.28598     0.30460     0.28034
  Fock        0.00000     0.00000     0.00000     0.00000     0.00000     0.00000
  -------------------------------------------------------------------------------------
  Total     -18.00033   -18.00033     3.10505    -0.00000     0.00000     0.00000
  in kB     -19.31451   -19.31451     3.33174    -0.00000     0.00000     0.00000
  external pressure =      -11.77 kB  Pullay stress =        0.00 kB


 VOLUME and BASIS-vectors are now :
 -----------------------------------------------------------------------------
  energy-cutoff  :      500.00
  volume of cell :     1493.16
      direct lattice vectors                 reciprocal lattice vectors
     8.813512802  0.000000000  0.000000000     0.113462137 -0.065507406  0.000000000
     4.406756909  7.632725690  0.000000000     0.000000000  0.131014796  0.000000000
     0.000000000  0.000000000 22.196203232     0.000000000  0.000000000  0.045052750

  length of vectors
     8.813512802  8.813512802 22.196203232     0.131014796  0.131014796  0.045052750


 FORCES acting on ions
    electron-ion (+dipol)            ewald-force                    non-local-force                 convergence-correction
 -----------------------------------------------------------------------------------------------
   -.196E-04 -.162E-04 0.251E+04   0.520E-04 0.434E-04 -.251E+04   -.919E-17 -.194E-17 -.636E+00   -.240E-03 -.152E-03 -.761E-01
   0.964E+00 0.910E+00 0.251E+04   -.896E+00 -.947E+00 -.251E+04   -.228E-01 0.111E-01 -.307E+00   -.429E-01 0.266E-01 -.517E-01
   -.964E+00 0.910E+00 0.251E+04   0.896E+00 -.947E+00 -.251E+04   0.228E-01 0.111E-01 -.307E+00   0.432E-01 0.286E-01 -.510E-01
   0.127E+01 0.380E+00 0.251E+04   -.127E+01 -.303E+00 -.251E+04   -.181E-02 -.253E-01 -.307E+00   0.170E-02 -.505E-01 -.517E-01
   0.896E-05 -.231E-04 0.251E+04   0.951E-04 0.173E-05 -.251E+04   -.154E-17 0.206E-18 -.402E+00   0.428E-02 0.261E-02 -.620E-01
   -.127E+01 0.380E+00 0.251E+04   0.127E+01 -.303E+00 -.251E+04   0.181E-02 -.253E-01 -.307E+00   -.325E-02 -.496E-01 -.508E-01
   0.306E+00 -.129E+01 0.251E+04   -.372E+00 0.125E+01 -.251E+04   0.210E-01 0.142E-01 -.307E+00   0.464E-01 0.231E-01 -.509E-01
   -.306E+00 -.129E+01 0.251E+04   0.372E+00 0.125E+01 -.251E+04   -.210E-01 0.142E-01 -.307E+00   -.446E-01 0.220E-01 -.508E-01
   0.195E-04 -.415E-04 0.251E+04   0.166E-03 -.202E-04 -.251E+04   0.189E-17 0.158E-17 -.514E+00   -.459E-02 -.237E-02 -.105E+00
   0.906E+01 0.523E+01 0.873E+03   -.887E+01 -.512E+01 -.873E+03   -.210E+00 -.121E+00 -.420E+00   -.243E-01 -.141E-01 0.826E-01
   0.158E-04 0.102E+02 0.887E+03   0.147E-03 -.103E+02 -.887E+03   0.173E-08 0.261E-01 -.439E+00   0.402E-02 0.454E-01 0.992E-01
   -.906E+01 0.523E+01 0.873E+03   0.887E+01 -.512E+01 -.873E+03   0.210E+00 -.121E+00 -.420E+00   0.228E-01 -.130E-01 0.825E-01
   0.881E+01 -.509E+01 0.887E+03   -.893E+01 0.516E+01 -.887E+03   0.226E-01 -.130E-01 -.439E+00   0.416E-01 -.189E-01 0.992E-01
   -.881E+01 -.509E+01 0.887E+03   0.893E+01 0.516E+01 -.887E+03   -.226E-01 -.130E-01 -.439E+00   -.340E-01 -.198E-01 0.984E-01
   0.298E-04 0.250E+01 0.874E+03   0.236E-03 -.248E+01 -.873E+03   0.953E-09 0.143E-01 -.353E+00   -.230E-02 -.651E-01 0.111E+00
   -.220E-04 -.105E+02 0.873E+03   0.163E-03 0.102E+02 -.873E+03   0.161E-07 0.242E+00 -.420E+00   -.666E-04 0.262E-01 0.825E-01
   0.217E+01 -.125E+01 0.874E+03   -.215E+01 0.124E+01 -.873E+03   0.124E-01 -.716E-02 -.353E+00   -.573E-01 0.310E-01 0.111E+00
   -.217E+01 -.125E+01 0.874E+03   0.215E+01 0.124E+01 -.873E+03   -.124E-01 -.716E-02 -.353E+00   0.576E-01 0.330E-01 0.112E+00
   -.426E-04 0.321E+01 -.809E+03   0.512E-04 -.336E+01 0.809E+03   0.526E-08 0.790E-01 0.796E+00   -.677E-03 0.209E-01 0.944E-01
   0.606E+02 0.350E+02 -.708E+03   -.602E+02 -.348E+02 0.709E+03   -.823E+00 -.475E+00 -.663E+00   0.159E-01 0.903E-02 0.119E+00
   -.606E+02 0.350E+02 -.708E+03   0.602E+02 -.348E+02 0.709E+03   0.823E+00 -.475E+00 -.663E+00   -.151E-01 0.955E-02 0.119E+00
   0.165E+02 -.954E+01 -.788E+03   -.170E+02 0.982E+01 0.787E+03   0.500E+00 -.289E+00 0.810E+00   0.567E-01 -.324E-01 0.113E+00
   -.100E-04 -.700E+02 -.708E+03   0.145E-03 0.695E+02 0.709E+03   0.633E-07 0.951E+00 -.663E+00   0.479E-03 -.178E-01 0.119E+00
   -.165E+02 -.954E+01 -.788E+03   0.170E+02 0.982E+01 0.787E+03   -.500E+00 -.289E+00 0.810E+00   -.570E-01 -.328E-01 0.113E+00
   -.278E+01 -.160E+01 -.809E+03   0.291E+01 0.168E+01 0.809E+03   -.684E-01 -.395E-01 0.796E+00   -.177E-01 -.103E-01 0.941E-01
   0.278E+01 -.160E+01 -.809E+03   -.291E+01 0.168E+01 0.809E+03   0.684E-01 -.395E-01 0.796E+00   0.181E-01 -.110E-01 0.944E-01
   0.156E-04 0.191E+02 -.788E+03   0.193E-03 -.196E+02 0.787E+03   0.384E-07 0.577E+00 0.810E+00   -.324E-03 0.652E-01 0.113E+00
   -.175E-04 -.151E-04 -.243E+04   0.314E-04 0.370E-04 0.243E+04   -.152E-17 -.246E-17 0.401E+00   -.122E-03 -.902E-04 0.136E+00
   0.695E+02 0.115E+03 -.245E+04   -.687E+02 -.114E+03 0.245E+04   -.947E+00 -.137E+01 0.700E+00   -.344E-01 0.825E-02 0.627E-01
   -.695E+02 0.115E+03 -.245E+04   0.687E+02 -.114E+03 0.245E+04   0.947E+00 -.137E+01 0.700E+00   0.347E-01 0.102E-01 0.627E-01
   0.134E+03 0.262E+01 -.245E+04   -.133E+03 -.243E+01 0.245E+04   -.166E+01 -.135E+00 0.700E+00   -.998E-02 -.340E-01 0.627E-01
   -.134E+03 0.262E+01 -.245E+04   0.133E+03 -.243E+01 0.245E+04   0.166E+01 -.135E+00 0.700E+00   0.833E-02 -.332E-01 0.626E-01
   0.650E+02 -.118E+03 -.245E+04   -.645E+02 0.117E+03 0.245E+04   -.714E+00 0.151E+01 0.700E+00   0.262E-01 0.249E-01 0.626E-01
   -.650E+02 -.118E+03 -.245E+04   0.645E+02 0.117E+03 0.245E+04   0.714E+00 0.151E+01 0.700E+00   -.246E-01 0.239E-01 0.626E-01
   0.330E-04 -.246E-04 -.244E+04   0.140E-03 -.527E-04 0.244E+04   0.293E-17 -.174E-17 0.379E+00   -.450E-02 -.230E-02 0.127E+00
   0.273E-03 -.156E-03 -.246E+04   0.135E-03 0.122E-04 0.247E+04   -.175E-17 0.254E-17 -.401E+01   0.753E-02 0.460E-02 0.156E-01
   0.121E-03 -.636E-04 -.150E+04   0.212E-04 0.133E-05 0.151E+04   -.358E-18 0.749E-18 -.176E+02   0.194E-02 0.119E-02 0.192E-01
 -----------------------------------------------------------------------------------------------
   -.341E-03 -.958E-03 0.191E+02   0.729E-13 0.914E-13 0.227E-12   -.110E-15 -.220E-15 -.208E+02   0.136E-01 0.865E-02 0.198E+01
 
 
 POSITION                                       TOTAL-FORCE (eV/Angst)
 -----------------------------------------------------------------------------------
      0.00000      0.00000      5.28038         0.000000     -0.000000     -0.078210
      2.93784      0.00000      5.28038         0.002983      0.001582     -0.058313
      5.87568      0.00000      5.28038        -0.002983      0.001582     -0.058313
      1.46892      2.54424      5.28038         0.002861      0.001792     -0.058313
      4.40676      2.54424      5.28038         0.000000     -0.000000     -0.092732
      7.34459      2.54424      5.28038        -0.002861      0.001792     -0.058313
      2.93784      5.08848      5.28038        -0.000121     -0.003374     -0.058313
      5.87568      5.08848      5.28038         0.000121     -0.003374     -0.058313
      8.81351      5.08848      5.28038         0.000000     -0.000000     -0.052273
      1.46892      0.84808      7.67911        -0.038608     -0.022291      0.086640
      4.40676      0.84808      7.67911        -0.000000     -0.064351      0.036390
      7.34459      0.84808      7.67911         0.038608     -0.022291      0.086640
      2.93784      3.39232      7.67911        -0.055729      0.032175      0.036390
      5.87568      3.39232      7.67911         0.055729      0.032175      0.036390
      8.81351      3.39232      7.67911        -0.000000     -0.031965      0.145988
      4.40676      5.93656      7.67911         0.000000      0.044581      0.086640
      7.34459      5.93656      7.67911        -0.027683      0.015983      0.145988
     10.28243      5.93656      7.67911         0.027683      0.015983      0.145988
      8.81351      1.70030     10.08698        -0.000000     -0.054235      0.019305
      2.93503      1.69454     10.04736        -0.400225     -0.231070     -0.382469
      5.87848      1.69454     10.04736         0.400225     -0.231070     -0.382469
     10.26776      4.24887     10.06889         0.077483     -0.044735      0.051260
      4.40676      4.24365     10.04736         0.000000      0.462140     -0.382469
      7.35926      4.24887     10.06889        -0.077483     -0.044735      0.051260
     11.74777      6.78258     10.08698         0.046969      0.027117      0.019305
      5.87926      6.78258     10.08698        -0.046969      0.027117      0.019305
      8.81351      6.76771     10.06889         0.000000      0.089470      0.051260
      0.00000      0.00000     12.49943         0.000000     -0.000000     -0.049474
      2.98194      0.07009     12.55649        -0.181597     -0.346680     -0.227196
      5.83157      0.07009     12.55649         0.181597     -0.346680     -0.227196
      1.55167      2.54739     12.55649        -0.391032      0.016073     -0.227196
      7.26184      2.54739     12.55649         0.391032      0.016073     -0.227196
      2.97649      5.01524     12.55649        -0.209435      0.330607     -0.227196
      5.83702      5.01524     12.55649         0.209435      0.330607     -0.227196
      8.81351      5.08848     12.50498         0.000000     -0.000000      0.014771
      4.40676      2.54424     12.24418         0.000000     -0.000000      2.126521
      4.40676      2.54424     13.97658         0.000000     -0.000000     -0.026892
 -----------------------------------------------------------------------------------
    total drift:                                0.013218      0.007690      0.261539


--------------------------------------------------------------------------------------------------------



  FREE ENERGIE OF THE ION-ELECTRON SYSTEM (eV)
  ---------------------------------------------------
  free  energy   TOTEN  =      -124.21533507 eV

  energy  without entropy=     -124.21533507  energy(sigma->0) =     -124.21533507
 


--------------------------------------------------------------------------------------------------------


    POTLOK:  cpu time    0.0432: real time    0.0432


--------------------------------------------------------------------------------------------------------


 stress matrix after NEB project (eV)
    -18.00033     -0.00000      0.00000
     -0.00000    -18.00033      0.00000
      0.00000      0.00000      3.10505
  FORCES: max atom, RMS     0.026892    0.004421
  FORCE total and by dimension    0.026892    0.026892
  Stress total and by dimension   25.644979   18.000329
     LOOP+:  cpu time  103.6080: real time  103.6191
 -----------------------------------------------------------------------------
|                                                                             |
|           W    W    AA    RRRRR   N    N  II  N    N   GGGG   !!!           |
|           W    W   A  A   R    R  NN   N  II  NN   N  G    G  !!!           |
|           W    W  A    A  R    R  N N  N  II  N N  N  G       !!!           |
|           W WW W  AAAAAA  RRRRR   N  N N  II  N  N N  G  GGG   !            |
|           WW  WW  A    A  R   R   N   NN  II  N   NN  G    G                |
|           W    W  A    A  R    R  N    N  II  N    N   GGGG   !!!           |
|                                                                             |
|     Tetrahedron method does not include variations of the Fermi             |
|     occupations, so forces and stress will be inaccurate. We suggest        |
|     using a different smearing scheme ISMEAR = 1 or 2 for metals in         |
|     relaxations.                                                            |
|                                                                             |
 -----------------------------------------------------------------------------

    4ORBIT:  cpu time    0.0000: real time    0.0000



 total charge

# of ion       s       p       d       tot
------------------------------------------
    1        0.543   0.240   8.765   9.548
    2        0.544   0.241   8.764   9.550
    3        0.544   0.241   8.764   9.550
    4        0.544   0.241   8.764   9.550
    5        0.541   0.241   8.764   9.546
    6        0.544   0.241   8.764   9.550
    7        0.544   0.241   8.764   9.550
    8        0.544   0.241   8.764   9.550
    9        0.541   0.241   8.767   9.549
   10        0.519   0.307   8.772   9.598
   11        0.521   0.308   8.776   9.605
   12        0.519   0.307   8.772   9.598
   13        0.521   0.308   8.776   9.605
   14        0.521   0.308   8.776   9.605
   15        0.514   0.309   8.773   9.597
   16        0.519   0.307   8.772   9.598
   17        0.514   0.309   8.773   9.597
   18        0.514   0.309   8.773   9.597
   19        0.517   0.294   8.775   9.586
   20        0.554   0.331   8.755   9.639
   21        0.554   0.331   8.755   9.639
   22        0.509   0.306   8.773   9.589
   23        0.554   0.331   8.755   9.639
   24        0.509   0.306   8.773   9.589
   25        0.517   0.294   8.775   9.586
   26        0.517   0.294   8.775   9.586
   27        0.509   0.306   8.773   9.589
   28        0.540   0.228   8.758   9.526
   29        0.573   0.237   8.751   9.562
   30        0.573   0.237   8.751   9.562
   31        0.573   0.237   8.751   9.562
   32        0.573   0.237   8.751   9.562
   33        0.573   0.237   8.751   9.562
   34        0.573   0.237   8.751   9.562
   35        0.540   0.231   8.754   9.525
   36        2.198   6.034   2.626  10.858
   37        1.350   2.233   0.000   3.583
--------------------------------------------------
tot         22.361  17.883 309.401 349.645
 
 BZINTS: Fermi energy:    0.713514;  403.000000 electrons
         Band energy:-0.150613E+04;  BLOECHL correction:   -0.079403

 total amount of memory used by VASP MPI-rank0   122690. kBytes
=======================================================================

   base      :      30000. kBytes
   nonlr-proj:      14305. kBytes
   fftplans  :       4330. kBytes
   grid      :      17879. kBytes
   one-center:        575. kBytes
   wavefun   :      55601. kBytes
 
  
  
 General timing and accounting informations for this job:
 ========================================================
  
                  Total CPU time used (sec):      110.954
                            User time (sec):      107.683
                          System time (sec):        3.271
                         Elapsed time (sec):      111.327
  
                   Maximum memory used (kb):      380552.
                   Average memory used (kb):          N/A
  
                          Minor page faults:        90273
                          Major page faults:            0
                 Voluntary context switches:         5042
