PROCAR new format
# of k-points:   10         # of bands:  252         # of ions:   37

 k-point     1 :    0.00000000 0.00000000 0.00000000     weight = 0.01562500

band     1 # energy  -54.33071033 # occ.  2.00000000
 
ion      s      p      d    tot
    1  0.000  0.000  0.000  0.000
    2  0.000  0.000  0.000  0.000
    3  0.000  0.000  0.000  0.000
    4  0.000  0.000  0.000  0.000
    5  0.000  0.000  0.000  0.000
    6  0.000  0.000  0.000  0.000
    7  0.000  0.000  0.000  0.000
    8  0.000  0.000  0.000  0.000
    9  0.000  0.000  0.000  0.000
   10  0.000  0.000  0.000  0.000
   11  0.000  0.000  0.000  0.000
   12  0.000  0.000  0.000  0.000
   13  0.000  0.000  0.000  0.000
   14  0.000  0.000  0.000  0.000
   15  0.000  0.000  0.000  0.000
   16  0.000  0.000  0.000  0.000
   17  0.000  0.000  0.000  0.000
   18  0.000  0.000  0.000  0.000
   19  0.000  0.000  0.000  0.000
   20  0.000  0.000  0.000  0.000
   21  0.000  0.000  0.000  0.000
   22  0.000  0.000  0.000  0.000
   23  0.000  0.000  0.000  0.000
   24  0.000  0.000  0.000  0.000
   25  0.000  0.000  0.000  0.000
   26  0.000  0.000  0.000  0.000
   27  0.000  0.000  0.000  0.000
   28  0.000  0.000  0.000  0.000
   29  0.000  0.000  0.000  0.000
   30  0.000  0.000  0.000  0.000
   31  0.000  0.000  0.000  0.000
   32  0.000  0.000  0.000  0.000
   33  0.000  0.000  0.000  0.000
   34  0.000  0.000  0.000  0.000
   35  0.000  0.000  0.000  0.000
   36  0.991  0.000  0.000  0.991
   37  0.001  0.002  0.000  0.003
tot    0.992  0.002  0.000  0.994
 
band     2 # energy  -30.64649393 # occ.  2.00000000
 
ion      s      p      d    tot
    1  0.000  0.000  0.000  0.000
    2  0.000  0.000  0.000  0.000
    3  0.000  0.000  0.000  0.000
    4  0.000  0.000  0.000  0.000
    5  0.000  0.000  0.000  0.000
    6  0.000  0.000  0.000  0.000
    7  0.000  0.000  0.000  0.000
    8  0.000  0.000  0.000  0.000
    9  0.000  0.000  0.000  0.000
   10  0.000  0.000  0.000  0.000
   11  0.000  0.000  0.000  0.000
   12  0.000  0.000  0.000  0.000
   13  0.000  0.000  0.000  0.000
   14  0.000  0.000  0.000  0.000
   15  0.000  0.000  0.000  0.000
   16  0.000  0.000  0.000  0.000
   17  0.000  0.000  0.000  0.000
   18  0.000  0.000  0.000  0.000
   19  0.000  0.000  0.000  0.000
   20  0.000  0.000  0.000  0.001
   21  0.000  0.000  0.000  0.001
   22  0.000  0.000  0.000  0.000
   23  0.000  0.000  0.000  0.001
   24  0.000  0.000  0.000  0.000
   25  0.000  0.000  0.000  0.000
   26  0.000  0.000  0.000  0.000
   27  0.000  0.000  0.000  0.000
   28  0.000  0.000  0.000  0.000
   29  0.000  0.000  0.000  0.000
   30  0.000  0.000  0.000  0.000
   31  0.000  0.000  0.000  0.000
   32  0.000  0.000  0.000  0.000
   33  0.000  0.000  0.000  0.000
   34  0.000  0.000  0.000  0.000
   35  0.000  0.000  0.000  0.000
   36  0.000  0.947  0.001  0.949
   37  0.019  0.015  0.000  0.034
tot    0.019  0.963  0.002  0.984
 
band     3 # energy  -30.52042828 # occ.  2.00000000
 
ion      s      p      d    tot
    1  0.000  0.000  0.000  0.000
    2  0.000  0.000  0.000  0.000
    3  0.000  0.000  0.000  0.000
    4  0.000  0.000  0.000  0.000
    5  0.000  0.000  0.000  0.000
    6  0.000  0.000  0.000  0.000
    7  0.000  0.000  0.000  0.000
    8  0.000  0.000  0.000  0.000
    9  0.000  0.000  0.000  0.000
   10  0.000  0.000  0.000  0.000
   11  0.000  0.000  0.000  0.000
   12  0.000  0.000  0.000  0.000
   13  0.000  0.000  0.000  0.000
   14  0.000  0.000  0.000  0.000
   15  0.000  0.000  0.000  0.000
   16  0.000  0.000  0.000  0.000
   17  0.000  0.000  0.000  0.000
   18  0.000  0.000  0.000  0.000
   19  0.000  0.000  0.000  0.000
   20  0.000  0.000  0.000  0.000
   21  0.000  0.000  0.000  0.000
   22  0.000  0.000  0.000  0.000
   23  0.000  0.000  0.000  0.000
   24  0.000  0.000  0.000  0.000
   25  0.000  0.000  0.000  0.000
   26  0.000  0.000  0.000  0.000
   27  0.000  0.000  0.000  0.000
   28  0.000  0.000  0.000  0.000
   29  0.000  0.000  0.000  0.000
   30  0.000  0.000  0.000  0.000
   31  0.000  0.000  0.000  0.000
   32  0.000  0.000  0.000  0.000
   33  0.000  0.000  0.000  0.000
   34  0.000  0.000  0.000  0.000
   35  0.000  0.000  0.000  0.000
   36  0.000  0.971  0.000  0.971
   37  0.000  0.000  0.000  0.000
tot    0.000  0.972  0.001  0.974
 
band     4 # energy  -30.52042649 # occ.  2.00000000
 
ion      s      p      d    tot
    1  0.000  0.000  0.000  0.000
    2  0.000  0.000  0.000  0.000
    3  0.000  0.000  0.000  0.000
    4  0.000  0.000  0.000  0.000
    5  0.000  0.000  0.000  0.000
    6  0.000  0.000  0.000  0.000
    7  0.000  0.000  0.000  0.000
    8  0.000  0.000  0.000  0.000
    9  0.000  0.000  0.000  0.000
   10  0.000  0.000  0.000  0.000
   11  0.000  0.000  0.000  0.000
   12  0.000  0.000  0.000  0.000
   13  0.000  0.000  0.000  0.000
   14  0.000  0.000  0.000  0.000
   15  0.000  0.000  0.000  0.000
   16  0.000  0.000  0.000  0.000
   17  0.000  0.000  0.000  0.000
   18  0.000  0.000  0.000  0.000
   19  0.000  0.000  0.000  0.000
   20  0.000  0.000  0.000  0.000
   21  0.000  0.000  0.000  0.000
   22  0.000  0.000  0.000  0.000
   23  0.000  0.000  0.000  0.000
   24  0.000  0.000  0.000  0.000
   25  0.000  0.000  0.000  0.000
   26  0.000  0.000  0.000  0.000
   27  0.000  0.000  0.000  0.000
   28  0.000  0.000  0.000  0.000
   29  0.000  0.000  0.000  0.000
   30  0.000  0.000  0.000  0.000
   31  0.000  0.000  0.000  0.000
   32  0.000  0.000  0.000  0.000
   33  0.000  0.000  0.000  0.000
   34  0.000  0.000  0.000  0.000
   35  0.000  0.000  0.000  0.000
   36  0.000  0.971  0.000  0.971
   37  0.000  0.000  0.000  0.000
tot    0.000  0.972  0.001  0.974
 
band     5 # energy  -11.31302488 # occ.  2.00000000
 
ion      s      p      d    tot
    1  0.000  0.000  0.000  0.000
    2  0.000  0.000  0.000  0.000
    3  0.000  0.000  0.000  0.000
    4  0.000  0.000  0.000  0.000
    5  0.000  0.000  0.000  0.000
    6  0.000  0.000  0.000  0.000
    7  0.000  0.000  0.000  0.000
    8  0.000  0.000  0.000  0.000
    9  0.000  0.000  0.000  0.000
   10  0.000  0.000  0.000  0.000
   11  0.000  0.000  0.000  0.000
   12  0.000  0.000  0.000  0.000
   13  0.000  0.000  0.000  0.000
   14  0.000  0.000  0.000  0.000
   15  0.000  0.000  0.000  0.000
   16  0.000  0.000  0.000  0.000
   17  0.000  0.000  0.000  0.000
   18  0.000  0.000  0.000  0.000
   19  0.000  0.000  0.000  0.000
   20  0.001  0.000  0.001  0.002
   21  0.001  0.000  0.001  0.002
   22  0.000  0.000  0.000  0.000
   23  0.001  0.000  0.001  0.002
   24  0.000  0.000  0.000  0.000
   25  0.000  0.000  0.000  0.000
   26  0.000  0.000  0.000  0.000
   27  0.000  0.000  0.000  0.000
   28  0.000  0.000  0.000  0.000
   29  0.000  0.000  0.000  0.001
   30  0.000  0.000  0.000  0.001
   31  0.000  0.000  0.000  0.001
   32  0.000  0.000  0.000  0.001
   33  0.000  0.000  0.000  0.001
   34  0.000  0.000  0.000  0.001
   35  0.000  0.000  0.000  0.000
   36  0.026  0.036  0.086  0.149
   37  0.615  0.008  0.000  0.623
tot    0.645  0.046  0.089  0.780
 
band     6 # energy   -8.09765839 # occ.  2.00000000
 
ion      s      p      d    tot
    1  0.007  0.001  0.000  0.007
    2  0.007  0.001  0.000  0.007
    3  0.007  0.001  0.000  0.007
    4  0.007  0.001  0.000  0.007
    5  0.007  0.001  0.000  0.007
    6  0.007  0.001  0.000  0.007
    7  0.007  0.001  0.000  0.007
    8  0.007  0.001  0.000  0.007
    9  0.007  0.001  0.000  0.007
   10  0.027  0.000  0.000  0.027
   11  0.028  0.000  0.000  0.028
   12  0.027  0.000  0.000  0.027
   13  0.028  0.000  0.000  0.028
   14  0.028  0.000  0.000  0.028
   15  0.026  0.000  0.000  0.027
   16  0.027  0.000  0.000  0.027
   17  0.026  0.000  0.000  0.027
   18  0.026  0.000  0.000  0.027
   19  0.023  0.000  0.000  0.023
   20  0.026  0.000  0.000  0.027
   21  0.026  0.000  0.000  0.027
   22  0.024  0.000  0.000  0.025
   23  0.026  0.000  0.000  0.027
   24  0.024  0.000  0.000  0.025
   25  0.023  0.000  0.000  0.023
   26  0.023  0.000  0.000  0.023
   27  0.024  0.000  0.000  0.025
   28  0.005  0.000  0.000  0.005
   29  0.004  0.000  0.000  0.005
   30  0.004  0.000  0.000  0.005
   31  0.004  0.000  0.000  0.005
   32  0.004  0.000  0.000  0.005
   33  0.004  0.000  0.000  0.005
   34  0.004  0.000  0.000  0.005
   35  0.005  0.000  0.000  0.005
   36  0.001  0.001  0.000  0.003
   37  0.002  0.000  0.000  0.002
tot    0.562  0.012  0.004  0.578
 
band     7 # energy   -6.91812391 # occ.  2.00000000
 
ion      s      p      d    tot
    1  0.017  0.000  0.001  0.019
    2  0.016  0.000  0.001  0.018
    3  0.016  0.000  0.001  0.018
    4  0.016  0.000  0.001  0.018
    5  0.016  0.000  0.001  0.018
    6  0.016  0.000  0.001  0.018
    7  0.016  0.000  0.001  0.018
    8  0.016  0.000  0.001  0.018
    9  0.016  0.000  0.001  0.018
   10  0.010  0.001  0.002  0.014
   11  0.010  0.002  0.003  0.014
   12  0.010  0.001  0.002  0.014
   13  0.010  0.002  0.003  0.014
   14  0.010  0.002  0.003  0.014
   15  0.010  0.002  0.002  0.014
   16  0.010  0.001  0.002  0.014
   17  0.010  0.002  0.002  0.014
   18  0.010  0.002  0.002  0.014
   19  0.014  0.001  0.004  0.019
   20  0.015  0.001  0.004  0.020
   21  0.015  0.001  0.004  0.020
   22  0.015  0.001  0.004  0.020
   23  0.015  0.001  0.004  0.020
   24  0.015  0.001  0.004  0.020
   25  0.014  0.001  0.004  0.019
   26  0.014  0.001  0.004  0.019
   27  0.015  0.001  0.004  0.020
   28  0.015  0.000  0.001  0.016
   29  0.014  0.001  0.001  0.015
   30  0.014  0.001  0.001  0.015
   31  0.014  0.001  0.001  0.015
   32  0.014  0.001  0.001  0.015
   33  0.014  0.001  0.001  0.015
   34  0.014  0.001  0.001  0.015
   35  0.015  0.000  0.000  0.016
   36  0.003  0.001  0.001  0.006
   37  0.002  0.000  0.000  0.002
tot    0.488  0.032  0.074  0.593
 
band     8 # energy   -6.01428944 # occ.  2.00000000
 
ion      s      p      d    tot
    1  0.001  0.000  0.009  0.011
    2  0.007  0.000  0.007  0.014
    3  0.007  0.000  0.007  0.014
    4  0.007  0.000  0.007  0.014
    5  0.004  0.000  0.004  0.008
    6  0.007  0.000  0.007  0.014
    7  0.007  0.000  0.007  0.014
    8  0.007  0.000  0.007  0.014
    9  0.023  0.001  0.002  0.026
   10  0.008  0.001  0.011  0.020
   11  0.007  0.002  0.006  0.015
   12  0.008  0.001  0.011  0.020
   13  0.007  0.002  0.006  0.015
   14  0.007  0.002  0.006  0.015
   15  0.005  0.001  0.007  0.014
   16  0.008  0.001  0.011  0.020
   17  0.005  0.001  0.007  0.014
   18  0.005  0.001  0.007  0.014
   19  0.001  0.001  0.016  0.018
   20  0.023  0.002  0.016  0.041
   21  0.023  0.002  0.016  0.041
   22  0.004  0.001  0.007  0.012
   23  0.023  0.002  0.016  0.041
   24  0.004  0.001  0.007  0.012
   25  0.001  0.001  0.016  0.018
   26  0.001  0.001  0.016  0.018
   27  0.004  0.001  0.007  0.012
   28  0.015  0.000  0.004  0.019
   29  0.012  0.000  0.010  0.023
   30  0.012  0.000  0.010  0.023
   31  0.012  0.000  0.010  0.023
   32  0.012  0.000  0.010  0.023
   33  0.012  0.000  0.010  0.023
   34  0.012  0.000  0.010  0.023
   35  0.026  0.000  0.006  0.032
   36  0.000  0.001  0.008  0.009
   37  0.000  0.001  0.000  0.001
tot    0.328  0.029  0.325  0.683
 
band     9 # energy   -5.99715792 # occ.  2.00000000
 
ion      s      p      d    tot
    1  0.000  0.000  0.008  0.008
    2  0.003  0.001  0.002  0.006
    3  0.000  0.000  0.003  0.004
    4  0.003  0.001  0.002  0.006
    5  0.000  0.001  0.006  0.007
    6  0.006  0.001  0.003  0.010
    7  0.001  0.000  0.003  0.004
    8  0.006  0.001  0.003  0.010
    9  0.000  0.000  0.001  0.001
   10  0.036  0.002  0.005  0.043
   11  0.012  0.003  0.021  0.036
   12  0.009  0.001  0.026  0.036
   13  0.012  0.003  0.021  0.036
   14  0.049  0.001  0.012  0.061
   15  0.000  0.002  0.006  0.009
   16  0.009  0.001  0.026  0.036
   17  0.000  0.002  0.006  0.009
   18  0.001  0.000  0.011  0.012
   19  0.003  0.003  0.006  0.011
   20  0.066  0.001  0.011  0.078
   21  0.017  0.002  0.032  0.051
   22  0.004  0.001  0.021  0.026
   23  0.016  0.002  0.032  0.050
   24  0.015  0.002  0.005  0.022
   25  0.011  0.000  0.013  0.024
   26  0.003  0.003  0.006  0.012
   27  0.004  0.001  0.021  0.026
   28  0.000  0.000  0.001  0.002
   29  0.006  0.001  0.004  0.011
   30  0.002  0.001  0.003  0.005
   31  0.006  0.001  0.004  0.011
   32  0.001  0.000  0.003  0.004
   33  0.002  0.001  0.003  0.005
   34  0.001  0.000  0.003  0.004
   35  0.000  0.000  0.004  0.004
   36  0.000  0.001  0.005  0.006
   37  0.000  0.000  0.000  0.000
tot    0.305  0.042  0.343  0.690
 
band    10 # energy   -5.99713703 # occ.  2.00000000
 
ion      s      p      d    tot
    1  0.000  0.000  0.008  0.008
    2  0.003  0.001  0.003  0.008
    3  0.006  0.001  0.003  0.010
    4  0.003  0.001  0.003  0.007
    5  0.000  0.001  0.006  0.007
    6  0.000  0.000  0.002  0.003
    7  0.006  0.001  0.003  0.010
    8  0.000  0.000  0.002  0.003
    9  0.000  0.000  0.001  0.001
   10  0.000  0.000  0.033  0.033
   11  0.037  0.001  0.015  0.053
   12  0.027  0.002  0.012  0.041
   13  0.036  0.002  0.015  0.053
   14  0.000  0.004  0.024  0.027
   15  0.001  0.001  0.010  0.011
   16  0.027  0.002  0.012  0.041
   17  0.001  0.001  0.010  0.011
   18  0.000  0.003  0.005  0.008
   19  0.008  0.001  0.011  0.020
   20  0.000  0.002  0.039  0.041
   21  0.049  0.001  0.018  0.069
   22  0.011  0.001  0.011  0.024
   23  0.050  0.001  0.018  0.069
   24  0.000  0.000  0.027  0.027
   25  0.000  0.004  0.003  0.007
   26  0.008  0.001  0.011  0.020
   27  0.012  0.001  0.010  0.023
   28  0.000  0.000  0.001  0.002
   29  0.000  0.000  0.002  0.002
   30  0.004  0.001  0.004  0.009
   31  0.000  0.000  0.002  0.002
   32  0.005  0.001  0.004  0.010
   33  0.004  0.001  0.004  0.009
   34  0.005  0.001  0.004  0.010
   35  0.000  0.000  0.004  0.004
   36  0.000  0.001  0.005  0.006
   37  0.000  0.000  0.000  0.000
tot    0.305  0.042  0.343  0.690
 
band    11 # energy   -5.96778158 # occ.  2.00000000
 
ion      s      p      d    tot
    1  0.024  0.000  0.013  0.037
    2  0.014  0.000  0.016  0.031
    3  0.014  0.000  0.016  0.031
    4  0.014  0.000  0.016  0.031
    5  0.014  0.000  0.017  0.031
    6  0.014  0.000  0.016  0.031
    7  0.014  0.000  0.016  0.031
    8  0.014  0.000  0.016  0.031
    9  0.008  0.000  0.017  0.025
   10  0.002  0.000  0.031  0.033
   11  0.006  0.000  0.025  0.032
   12  0.002  0.000  0.031  0.033
   13  0.006  0.000  0.025  0.032
   14  0.006  0.000  0.025  0.032
   15  0.017  0.001  0.019  0.037
   16  0.002  0.000  0.031  0.033
   17  0.017  0.001  0.019  0.037
   18  0.017  0.001  0.019  0.037
   19  0.003  0.000  0.010  0.013
   20  0.006  0.000  0.016  0.023
   21  0.006  0.000  0.016  0.023
   22  0.000  0.001  0.010  0.011
   23  0.006  0.000  0.016  0.023
   24  0.000  0.001  0.010  0.011
   25  0.003  0.000  0.010  0.013
   26  0.003  0.000  0.010  0.013
   27  0.000  0.001  0.010  0.011
   28  0.000  0.000  0.001  0.001
   29  0.000  0.000  0.001  0.002
   30  0.000  0.000  0.001  0.002
   31  0.000  0.000  0.001  0.002
   32  0.000  0.000  0.001  0.002
   33  0.000  0.000  0.001  0.002
   34  0.000  0.000  0.001  0.002
   35  0.003  0.000  0.000  0.003
   36  0.000  0.000  0.001  0.002
   37  0.000  0.000  0.000  0.001
tot    0.244  0.009  0.491  0.743
 
band    12 # energy   -5.93301373 # occ.  2.00000000
 
ion      s      p      d    tot
    1  0.007  0.001  0.001  0.009
    2  0.000  0.001  0.006  0.007
    3  0.000  0.001  0.006  0.007
    4  0.000  0.001  0.006  0.007
    5  0.018  0.002  0.001  0.020
    6  0.000  0.001  0.006  0.007
    7  0.000  0.001  0.006  0.007
    8  0.000  0.001  0.006  0.007
    9  0.000  0.000  0.002  0.002
   10  0.024  0.003  0.001  0.029
   11  0.021  0.001  0.022  0.044
   12  0.024  0.003  0.001  0.029
   13  0.021  0.001  0.022  0.044
   14  0.021  0.001  0.022  0.044
   15  0.001  0.001  0.024  0.025
   16  0.024  0.003  0.001  0.029
   17  0.001  0.001  0.024  0.025
   18  0.001  0.001  0.024  0.025
   19  0.024  0.002  0.006  0.032
   20  0.006  0.003  0.018  0.027
   21  0.006  0.003  0.018  0.027
   22  0.008  0.000  0.026  0.035
   23  0.006  0.003  0.018  0.027
   24  0.008  0.000  0.026  0.035
   25  0.024  0.002  0.006  0.032
   26  0.024  0.002  0.006  0.032
   27  0.008  0.000  0.026  0.035
   28  0.013  0.001  0.000  0.015
   29  0.000  0.000  0.004  0.004
   30  0.000  0.000  0.004  0.004
   31  0.000  0.000  0.004  0.004
   32  0.000  0.000  0.004  0.004
   33  0.000  0.000  0.004  0.004
   34  0.000  0.000  0.004  0.004
   35  0.003  0.001  0.003  0.007
   36  0.000  0.000  0.000  0.000
   37  0.000  0.000  0.000  0.000
tot    0.295  0.040  0.360  0.695
 
band    13 # energy   -5.91328209 # occ.  2.00000000
 
ion      s      p      d    tot
    1  0.005  0.000  0.000  0.006
    2  0.000  0.000  0.003  0.004
    3  0.000  0.000  0.003  0.004
    4  0.000  0.000  0.003  0.004
    5  0.004  0.000  0.000  0.004
    6  0.000  0.000  0.003  0.004
    7  0.000  0.000  0.003  0.004
    8  0.000  0.000  0.003  0.004
    9  0.005  0.001  0.002  0.007
   10  0.003  0.000  0.017  0.020
   11  0.005  0.002  0.006  0.012
   12  0.003  0.000  0.017  0.020
   13  0.005  0.002  0.006  0.012
   14  0.005  0.002  0.006  0.012
   15  0.016  0.002  0.007  0.025
   16  0.003  0.000  0.017  0.020
   17  0.016  0.002  0.007  0.025
   18  0.017  0.002  0.007  0.025
   19  0.004  0.001  0.016  0.021
   20  0.001  0.000  0.031  0.032
   21  0.001  0.000  0.031  0.032
   22  0.021  0.003  0.010  0.034
   23  0.001  0.000  0.031  0.032
   24  0.021  0.003  0.010  0.034
   25  0.004  0.001  0.016  0.021
   26  0.004  0.001  0.016  0.021
   27  0.021  0.003  0.010  0.034
   28  0.012  0.000  0.015  0.027
   29  0.015  0.000  0.013  0.028
   30  0.015  0.000  0.013  0.028
   31  0.015  0.000  0.013  0.028
   32  0.015  0.000  0.013  0.028
   33  0.015  0.000  0.013  0.028
   34  0.015  0.000  0.013  0.028
   35  0.007  0.000  0.014  0.021
   36  0.006  0.000  0.006  0.013
   37  0.001  0.000  0.000  0.001
tot    0.285  0.026  0.395  0.706
 
band    14 # energy   -5.90860280 # occ.  2.00000000
 
ion      s      p      d    tot
    1  0.000  0.001  0.003  0.004
    2  0.004  0.001  0.003  0.008
    3  0.000  0.000  0.004  0.004
    4  0.005  0.001  0.003  0.009
    5  0.000  0.000  0.005  0.005
    6  0.008  0.001  0.004  0.014
    7  0.001  0.000  0.004  0.005
    8  0.008  0.001  0.004  0.013
    9  0.000  0.001  0.011  0.012
   10  0.000  0.005  0.003  0.008
   11  0.008  0.001  0.011  0.020
   12  0.016  0.002  0.013  0.031
   13  0.007  0.001  0.013  0.021
   14  0.000  0.001  0.026  0.028
   15  0.051  0.001  0.013  0.065
   16  0.019  0.001  0.014  0.034
   17  0.043  0.001  0.017  0.062
   18  0.000  0.001  0.041  0.043
   19  0.032  0.002  0.009  0.043
   20  0.000  0.002  0.011  0.014
   21  0.000  0.001  0.014  0.015
   22  0.025  0.002  0.013  0.039
   23  0.000  0.001  0.014  0.015
   24  0.000  0.004  0.017  0.020
   25  0.000  0.000  0.036  0.036
   26  0.027  0.002  0.013  0.042
   27  0.029  0.001  0.012  0.043
   28  0.000  0.000  0.006  0.007
   29  0.004  0.001  0.002  0.007
   30  0.002  0.000  0.002  0.005
   31  0.004  0.001  0.002  0.007
   32  0.001  0.000  0.001  0.002
   33  0.002  0.000  0.002  0.005
   34  0.000  0.000  0.002  0.002
   35  0.000  0.001  0.004  0.005
   36  0.000  0.000  0.000  0.000
   37  0.000  0.000  0.000  0.000
tot    0.297  0.041  0.355  0.693
 
band    15 # energy   -5.90859841 # occ.  2.00000000
 
ion      s      p      d    tot
    1  0.000  0.001  0.003  0.004
    2  0.005  0.001  0.004  0.010
    3  0.008  0.001  0.004  0.013
    4  0.004  0.001  0.004  0.008
    5  0.000  0.000  0.005  0.005
    6  0.000  0.000  0.003  0.004
    7  0.008  0.001  0.004  0.013
    8  0.001  0.000  0.003  0.005
    9  0.000  0.001  0.011  0.012
   10  0.024  0.000  0.017  0.040
   11  0.002  0.001  0.023  0.026
   12  0.008  0.003  0.007  0.018
   13  0.003  0.001  0.020  0.025
   14  0.010  0.001  0.007  0.018
   15  0.012  0.001  0.035  0.048
   16  0.005  0.004  0.006  0.014
   17  0.020  0.001  0.030  0.051
   18  0.063  0.002  0.006  0.070
   19  0.008  0.001  0.030  0.038
   20  0.000  0.001  0.015  0.016
   21  0.000  0.002  0.012  0.014
   22  0.011  0.003  0.015  0.029
   23  0.000  0.002  0.012  0.014
   24  0.036  0.001  0.011  0.048
   25  0.039  0.002  0.003  0.044
   26  0.012  0.001  0.026  0.039
   27  0.007  0.003  0.016  0.026
   28  0.000  0.000  0.006  0.007
   29  0.000  0.000  0.002  0.002
   30  0.002  0.000  0.002  0.004
   31  0.000  0.000  0.002  0.003
   32  0.004  0.001  0.003  0.007
   33  0.003  0.001  0.002  0.005
   34  0.004  0.001  0.003  0.008
   35  0.000  0.001  0.004  0.005
   36  0.000  0.000  0.000  0.000
   37  0.000  0.000  0.000  0.000
tot    0.297  0.041  0.355  0.693
 
band    16 # energy   -5.50977923 # occ.  2.00000000
 
ion      s      p      d    tot
    1  0.000  0.001  0.004  0.005
    2  0.001  0.001  0.005  0.006
    3  0.009  0.001  0.004  0.015
    4  0.001  0.001  0.005  0.006
    5  0.000  0.001  0.010  0.011
    6  0.004  0.001  0.004  0.009
    7  0.009  0.001  0.004  0.015
    8  0.004  0.001  0.004  0.009
    9  0.000  0.000  0.008  0.008
   10  0.000  0.001  0.050  0.050
   11  0.017  0.001  0.020  0.038
   12  0.007  0.001  0.018  0.027
   13  0.017  0.001  0.020  0.038
   14  0.000  0.000  0.048  0.049
   15  0.002  0.000  0.019  0.021
   16  0.007  0.001  0.018  0.027
   17  0.002  0.000  0.019  0.021
   18  0.000  0.001  0.011  0.013
   19  0.004  0.000  0.018  0.022
   20  0.000  0.000  0.085  0.085
   21  0.015  0.001  0.027  0.043
   22  0.004  0.001  0.019  0.024
   23  0.015  0.001  0.027  0.043
   24  0.000  0.001  0.033  0.034
   25  0.000  0.001  0.010  0.011
   26  0.004  0.000  0.018  0.022
   27  0.004  0.001  0.019  0.024
   28  0.000  0.000  0.008  0.008
   29  0.003  0.001  0.005  0.009
   30  0.008  0.001  0.005  0.015
   31  0.003  0.001  0.005  0.009
   32  0.001  0.000  0.004  0.005
   33  0.008  0.001  0.005  0.015
   34  0.001  0.000  0.004  0.005
   35  0.000  0.000  0.003  0.003
   36  0.000  0.001  0.005  0.006
   37  0.000  0.000  0.000  0.000
tot    0.150  0.028  0.570  0.748
 
band    17 # energy   -5.50975222 # occ.  2.00000000
 
ion      s      p      d    tot
    1  0.000  0.001  0.004  0.005
    2  0.009  0.001  0.004  0.013
    3  0.001  0.000  0.004  0.005
    4  0.009  0.001  0.004  0.013
    5  0.000  0.001  0.010  0.011
    6  0.005  0.001  0.005  0.011
    7  0.001  0.000  0.004  0.005
    8  0.005  0.001  0.005  0.011
    9  0.000  0.000  0.008  0.008
   10  0.010  0.002  0.008  0.019
   11  0.006  0.000  0.039  0.045
   12  0.002  0.001  0.039  0.043
   13  0.006  0.000  0.039  0.045
   14  0.023  0.001  0.011  0.035
   15  0.001  0.001  0.014  0.015
   16  0.002  0.001  0.039  0.043
   17  0.001  0.001  0.014  0.015
   18  0.002  0.000  0.022  0.024
   19  0.001  0.001  0.013  0.015
   20  0.020  0.001  0.008  0.029
   21  0.005  0.000  0.065  0.071
   22  0.001  0.001  0.029  0.031
   23  0.005  0.000  0.065  0.071
   24  0.005  0.001  0.014  0.020
   25  0.005  0.000  0.021  0.026
   26  0.001  0.001  0.013  0.015
   27  0.001  0.001  0.029  0.031
   28  0.000  0.000  0.008  0.008
   29  0.005  0.001  0.004  0.010
   30  0.000  0.000  0.004  0.005
   31  0.005  0.001  0.004  0.010
   32  0.007  0.001  0.005  0.014
   33  0.000  0.000  0.004  0.005
   34  0.007  0.001  0.005  0.014
   35  0.000  0.000  0.003  0.003
   36  0.000  0.001  0.005  0.006
   37  0.000  0.000  0.000  0.000
tot    0.150  0.028  0.570  0.748
 
band    18 # energy   -5.50061057 # occ.  2.00000000
 
ion      s      p      d    tot
    1  0.014  0.002  0.002  0.018
    2  0.000  0.001  0.008  0.008
    3  0.000  0.001  0.008  0.008
    4  0.000  0.001  0.008  0.008
    5  0.000  0.000  0.002  0.002
    6  0.000  0.001  0.008  0.008
    7  0.000  0.001  0.008  0.008
    8  0.000  0.001  0.008  0.008
    9  0.015  0.001  0.000  0.016
   10  0.011  0.001  0.014  0.026
   11  0.003  0.000  0.045  0.048
   12  0.010  0.001  0.014  0.026
   13  0.003  0.000  0.045  0.048
   14  0.003  0.000  0.045  0.048
   15  0.004  0.001  0.020  0.025
   16  0.010  0.001  0.014  0.026
   17  0.004  0.001  0.020  0.025
   18  0.004  0.001  0.020  0.025
   19  0.003  0.001  0.012  0.016
   20  0.001  0.000  0.056  0.057
   21  0.001  0.000  0.056  0.057
   22  0.011  0.001  0.019  0.031
   23  0.001  0.000  0.056  0.057
   24  0.011  0.001  0.019  0.031
   25  0.003  0.001  0.012  0.016
   26  0.003  0.001  0.012  0.016
   27  0.011  0.001  0.019  0.031
   28  0.013  0.001  0.000  0.014
   29  0.000  0.000  0.006  0.007
   30  0.000  0.000  0.006  0.007
   31  0.000  0.000  0.006  0.007
   32  0.000  0.000  0.006  0.007
   33  0.000  0.000  0.006  0.007
   34  0.000  0.000  0.006  0.007
   35  0.006  0.001  0.003  0.010
   36  0.000  0.000  0.001  0.001
   37  0.000  0.000  0.000  0.000
tot    0.144  0.026  0.587  0.757
 
band    19 # energy   -5.42960991 # occ.  2.00000000
 
ion      s      p      d    tot
    1  0.000  0.001  0.014  0.015
    2  0.009  0.001  0.004  0.015
    3  0.001  0.000  0.005  0.006
    4  0.009  0.001  0.004  0.015
    5  0.000  0.000  0.006  0.006
    6  0.004  0.001  0.005  0.010
    7  0.001  0.000  0.005  0.006
    8  0.004  0.001  0.005  0.010
    9  0.000  0.001  0.006  0.007
   10  0.000  0.001  0.031  0.032
   11  0.000  0.001  0.020  0.021
   12  0.008  0.000  0.021  0.030
   13  0.000  0.001  0.020  0.021
   14  0.000  0.001  0.017  0.018
   15  0.010  0.002  0.020  0.032
   16  0.008  0.000  0.021  0.030
   17  0.010  0.002  0.020  0.032
   18  0.000  0.000  0.061  0.061
   19  0.014  0.001  0.020  0.035
   20  0.000  0.002  0.022  0.024
   21  0.000  0.001  0.025  0.026
   22  0.017  0.001  0.020  0.037
   23  0.000  0.001  0.025  0.026
   24  0.000  0.001  0.030  0.031
   25  0.000  0.000  0.067  0.067
   26  0.014  0.001  0.020  0.034
   27  0.017  0.001  0.020  0.037
   28  0.000  0.001  0.005  0.006
   29  0.005  0.001  0.004  0.010
   30  0.000  0.000  0.005  0.006
   31  0.005  0.001  0.004  0.010
   32  0.005  0.001  0.003  0.008
   33  0.000  0.000  0.005  0.006
   34  0.005  0.001  0.003  0.008
   35  0.000  0.001  0.008  0.009
   36  0.000  0.000  0.001  0.001
   37  0.000  0.000  0.000  0.000
tot    0.147  0.028  0.574  0.750
 
band    20 # energy   -5.42960072 # occ.  2.00000000
 
ion      s      p      d    tot
    1  0.000  0.001  0.014  0.015
    2  0.000  0.001  0.005  0.006
    3  0.009  0.001  0.005  0.014
    4  0.000  0.001  0.005  0.006
    5  0.000  0.000  0.006  0.006
    6  0.006  0.001  0.004  0.011
    7  0.009  0.001  0.005  0.014
    8  0.005  0.001  0.004  0.011
    9  0.000  0.001  0.006  0.007
   10  0.011  0.000  0.018  0.029
   11  0.000  0.001  0.018  0.019
   12  0.003  0.001  0.028  0.031
   13  0.000  0.001  0.018  0.019
   14  0.000  0.001  0.021  0.022
   15  0.003  0.001  0.047  0.051
   16  0.003  0.001  0.028  0.031
   17  0.003  0.001  0.048  0.052
   18  0.014  0.002  0.006  0.022
   19  0.005  0.001  0.051  0.056
   20  0.000  0.000  0.026  0.027
   21  0.000  0.001  0.023  0.024
   22  0.005  0.001  0.027  0.033
   23  0.000  0.001  0.023  0.024
   24  0.022  0.001  0.017  0.040
   25  0.018  0.001  0.004  0.024
   26  0.005  0.001  0.051  0.057
   27  0.006  0.001  0.027  0.033
   28  0.000  0.001  0.005  0.006
   29  0.001  0.000  0.004  0.006
   30  0.007  0.001  0.002  0.010
   31  0.001  0.000  0.004  0.006
   32  0.002  0.001  0.005  0.008
   33  0.007  0.001  0.002  0.010
   34  0.002  0.001  0.005  0.008
   35  0.000  0.001  0.008  0.009
   36  0.000  0.000  0.001  0.002
   37  0.000  0.000  0.000  0.000
tot    0.147  0.028  0.574  0.750
 
band    21 # energy   -5.42255708 # occ.  2.00000000
 
ion      s      p      d    tot
    1  0.008  0.000  0.001  0.009
    2  0.000  0.001  0.009  0.009
    3  0.000  0.001  0.009  0.009
    4  0.000  0.001  0.009  0.009
    5  0.018  0.002  0.001  0.020
    6  0.000  0.001  0.009  0.009
    7  0.000  0.001  0.009  0.009
    8  0.000  0.001  0.009  0.009
    9  0.002  0.001  0.002  0.005
   10  0.000  0.000  0.042  0.042
   11  0.006  0.002  0.010  0.018
   12  0.000  0.000  0.042  0.042
   13  0.006  0.002  0.010  0.018
   14  0.006  0.002  0.010  0.018
   15  0.007  0.001  0.026  0.034
   16  0.000  0.000  0.042  0.042
   17  0.007  0.001  0.026  0.034
   18  0.007  0.001  0.026  0.034
   19  0.011  0.001  0.041  0.053
   20  0.009  0.002  0.008  0.019
   21  0.009  0.002  0.008  0.019
   22  0.000  0.000  0.037  0.038
   23  0.009  0.002  0.008  0.019
   24  0.000  0.000  0.038  0.038
   25  0.011  0.001  0.041  0.053
   26  0.011  0.001  0.041  0.053
   27  0.000  0.000  0.037  0.038
   28  0.001  0.001  0.007  0.008
   29  0.000  0.000  0.006  0.006
   30  0.000  0.000  0.006  0.006
   31  0.000  0.000  0.006  0.006
   32  0.000  0.000  0.006  0.006
   33  0.000  0.000  0.006  0.006
   34  0.000  0.000  0.006  0.006
   35  0.002  0.000  0.000  0.002
   36  0.005  0.002  0.000  0.007