PROCAR new format
# of k-points:   10         # of bands:  252         # of ions:   37

 k-point     1 :    0.00000000 0.00000000 0.00000000     weight = 0.01562500

band     1 # energy   -8.83973599 # occ.  2.00000000
 
ion      s      p      d    tot
    1  0.007  0.001  0.000  0.008
    2  0.007  0.001  0.000  0.008
    3  0.007  0.001  0.000  0.008
    4  0.007  0.001  0.000  0.008
    5  0.007  0.001  0.000  0.008
    6  0.007  0.001  0.000  0.008
    7  0.007  0.001  0.000  0.008
    8  0.007  0.001  0.000  0.008
    9  0.007  0.001  0.000  0.008
   10  0.025  0.000  0.000  0.025
   11  0.025  0.000  0.000  0.025
   12  0.025  0.000  0.000  0.025
   13  0.025  0.000  0.000  0.025
   14  0.025  0.000  0.000  0.025
   15  0.025  0.000  0.000  0.025
   16  0.025  0.000  0.000  0.025
   17  0.025  0.000  0.000  0.025
   18  0.025  0.000  0.000  0.025
   19  0.024  0.000  0.000  0.025
   20  0.025  0.000  0.000  0.025
   21  0.025  0.000  0.000  0.025
   22  0.024  0.000  0.000  0.024
   23  0.025  0.000  0.000  0.025
   24  0.024  0.000  0.000  0.024
   25  0.024  0.000  0.000  0.025
   26  0.024  0.000  0.000  0.025
   27  0.024  0.000  0.000  0.024
   28  0.006  0.001  0.000  0.007
   29  0.006  0.001  0.000  0.007
   30  0.006  0.001  0.000  0.007
   31  0.006  0.001  0.000  0.007
   32  0.006  0.001  0.000  0.007
   33  0.006  0.001  0.000  0.007
   34  0.006  0.001  0.000  0.007
   35  0.006  0.001  0.000  0.007
   36  0.006  0.001  0.000  0.006
   37  0.000  0.000  0.000  0.000
tot    0.563  0.016  0.001  0.580
 
band     2 # energy   -7.52491153 # occ.  2.00000000
 
ion      s      p      d    tot
    1  0.018  0.001  0.001  0.020
    2  0.018  0.001  0.001  0.020
    3  0.018  0.001  0.001  0.020
    4  0.018  0.001  0.001  0.020
    5  0.018  0.001  0.001  0.020
    6  0.018  0.001  0.001  0.020
    7  0.018  0.001  0.001  0.020
    8  0.018  0.001  0.001  0.020
    9  0.018  0.001  0.001  0.020
   10  0.010  0.002  0.001  0.012
   11  0.010  0.002  0.001  0.012
   12  0.010  0.002  0.001  0.012
   13  0.010  0.002  0.001  0.012
   14  0.010  0.002  0.001  0.012
   15  0.009  0.002  0.001  0.012
   16  0.010  0.002  0.001  0.012
   17  0.009  0.002  0.001  0.012
   18  0.009  0.002  0.001  0.012
   19  0.011  0.002  0.001  0.014
   20  0.010  0.002  0.001  0.013
   21  0.010  0.002  0.001  0.013
   22  0.011  0.002  0.001  0.014
   23  0.010  0.002  0.001  0.013
   24  0.011  0.002  0.001  0.014
   25  0.011  0.002  0.001  0.014
   26  0.011  0.002  0.001  0.014
   27  0.011  0.002  0.001  0.014
   28  0.018  0.001  0.000  0.020
   29  0.017  0.001  0.000  0.019
   30  0.017  0.001  0.000  0.019
   31  0.017  0.001  0.000  0.019
   32  0.017  0.001  0.000  0.019
   33  0.017  0.001  0.000  0.019
   34  0.017  0.001  0.000  0.019
   35  0.018  0.001  0.000  0.019
   36  0.015  0.000  0.000  0.015
   37  0.001  0.000  0.000  0.001
tot    0.505  0.054  0.019  0.577
 
band     3 # energy   -5.88749836 # occ.  2.00000000
 
ion      s      p      d    tot
    1  0.018  0.000  0.006  0.024
    2  0.014  0.000  0.006  0.021
    3  0.014  0.000  0.006  0.021
    4  0.014  0.000  0.006  0.021
    5  0.004  0.001  0.008  0.012
    6  0.014  0.000  0.006  0.021
    7  0.014  0.000  0.006  0.021
    8  0.014  0.000  0.006  0.021
    9  0.026  0.000  0.004  0.030
   10  0.002  0.003  0.004  0.010
   11  0.016  0.005  0.001  0.023
   12  0.002  0.003  0.004  0.010
   13  0.016  0.005  0.001  0.023
   14  0.017  0.005  0.001  0.023
   15  0.000  0.002  0.005  0.008
   16  0.002  0.003  0.004  0.010
   17  0.000  0.002  0.005  0.008
   18  0.000  0.002  0.005  0.008
   19  0.000  0.003  0.005  0.008
   20  0.017  0.005  0.002  0.024
   21  0.018  0.005  0.002  0.024
   22  0.000  0.004  0.003  0.008
   23  0.018  0.005  0.002  0.024
   24  0.000  0.004  0.003  0.008
   25  0.000  0.003  0.005  0.008
   26  0.000  0.003  0.005  0.008
   27  0.000  0.004  0.003  0.008
   28  0.022  0.000  0.004  0.026
   29  0.015  0.000  0.006  0.021
   30  0.015  0.000  0.006  0.021
   31  0.015  0.000  0.006  0.021
   32  0.014  0.000  0.006  0.021
   33  0.015  0.000  0.006  0.021
   34  0.014  0.000  0.006  0.021
   35  0.024  0.000  0.005  0.029
   36  0.002  0.002  0.004  0.008
   37  0.001  0.000  0.000  0.001
tot    0.380  0.075  0.166  0.621
 
band     4 # energy   -5.85138176 # occ.  2.00000000
 
ion      s      p      d    tot
    1  0.000  0.002  0.005  0.008
    2  0.010  0.002  0.002  0.015
    3  0.000  0.001  0.002  0.003
    4  0.008  0.002  0.002  0.013
    5  0.000  0.003  0.004  0.007
    6  0.003  0.001  0.002  0.007
    7  0.002  0.001  0.002  0.005
    8  0.007  0.002  0.002  0.011
    9  0.000  0.000  0.002  0.002
   10  0.054  0.005  0.003  0.062
   11  0.015  0.008  0.005  0.028
   12  0.006  0.001  0.015  0.023
   13  0.004  0.011  0.005  0.020
   14  0.036  0.001  0.007  0.044
   15  0.001  0.005  0.006  0.012
   16  0.023  0.002  0.011  0.037
   17  0.000  0.007  0.007  0.014
   18  0.002  0.002  0.004  0.008
   19  0.008  0.008  0.004  0.020
   20  0.063  0.004  0.005  0.072
   21  0.007  0.003  0.014  0.025
   22  0.001  0.004  0.011  0.016
   23  0.027  0.004  0.011  0.042
   24  0.012  0.003  0.003  0.019
   25  0.018  0.001  0.007  0.025
   26  0.002  0.012  0.002  0.017
   27  0.005  0.004  0.008  0.017
   28  0.000  0.002  0.003  0.005
   29  0.010  0.003  0.003  0.015
   30  0.001  0.001  0.002  0.004
   31  0.009  0.003  0.003  0.015
   32  0.002  0.001  0.002  0.005
   33  0.004  0.002  0.002  0.007
   34  0.005  0.002  0.002  0.009
   35  0.000  0.000  0.003  0.003
   36  0.000  0.003  0.005  0.008
   37  0.000  0.000  0.000  0.000
tot    0.346  0.115  0.178  0.640
 
band     5 # energy   -5.85137778 # occ.  2.00000000
 
ion      s      p      d    tot
    1  0.000  0.002  0.005  0.008
    2  0.000  0.001  0.002  0.003
    3  0.010  0.002  0.002  0.015
    4  0.002  0.001  0.002  0.005
    5  0.000  0.003  0.004  0.007
    6  0.007  0.002  0.002  0.011
    7  0.008  0.002  0.002  0.013
    8  0.004  0.001  0.002  0.007
    9  0.000  0.000  0.002  0.002
   10  0.002  0.001  0.016  0.019
   11  0.021  0.006  0.006  0.033
   12  0.049  0.004  0.005  0.058
   13  0.033  0.002  0.007  0.041
   14  0.001  0.012  0.004  0.018
   15  0.001  0.004  0.005  0.011
   16  0.032  0.003  0.009  0.044
   17  0.002  0.003  0.004  0.009
   18  0.000  0.007  0.007  0.014
   19  0.011  0.006  0.005  0.021
   20  0.002  0.003  0.015  0.021
   21  0.057  0.004  0.006  0.067
   22  0.011  0.003  0.004  0.018
   23  0.038  0.004  0.009  0.051
   24  0.000  0.004  0.011  0.015
   25  0.001  0.013  0.002  0.016
   26  0.017  0.002  0.006  0.024
   27  0.007  0.004  0.006  0.017
   28  0.000  0.002  0.003  0.005
   29  0.000  0.001  0.002  0.003
   30  0.009  0.002  0.003  0.014
   31  0.001  0.001  0.002  0.004
   32  0.008  0.002  0.003  0.014
   33  0.007  0.002  0.002  0.011
   34  0.005  0.002  0.002  0.009
   35  0.000  0.000  0.003  0.003
   36  0.000  0.003  0.005  0.008
   37  0.000  0.000  0.000  0.000
tot    0.346  0.115  0.178  0.640
 
band     6 # energy   -5.83537206 # occ.  2.00000000
 
ion      s      p      d    tot
    1  0.020  0.003  0.001  0.024
    2  0.000  0.002  0.004  0.006
    3  0.000  0.002  0.004  0.006
    4  0.000  0.002  0.004  0.006
    5  0.000  0.000  0.000  0.001
    6  0.000  0.002  0.004  0.006
    7  0.000  0.002  0.004  0.006
    8  0.000  0.002  0.004  0.006
    9  0.011  0.002  0.000  0.013
   10  0.029  0.005  0.007  0.041
   11  0.003  0.001  0.011  0.015
   12  0.029  0.005  0.007  0.041
   13  0.003  0.001  0.011  0.015
   14  0.003  0.001  0.011  0.015
   15  0.015  0.009  0.003  0.027
   16  0.029  0.005  0.007  0.041
   17  0.015  0.009  0.003  0.027
   18  0.016  0.009  0.003  0.027
   19  0.020  0.009  0.002  0.031
   20  0.000  0.002  0.011  0.013
   21  0.000  0.002  0.011  0.013
   22  0.027  0.003  0.008  0.038
   23  0.000  0.002  0.011  0.013
   24  0.027  0.003  0.008  0.038
   25  0.019  0.009  0.002  0.031
   26  0.020  0.009  0.002  0.031
   27  0.027  0.003  0.008  0.038
   28  0.017  0.002  0.000  0.019
   29  0.000  0.002  0.004  0.006
   30  0.000  0.002  0.004  0.006
   31  0.000  0.002  0.004  0.006
   32  0.000  0.002  0.004  0.006
   33  0.000  0.002  0.004  0.006
   34  0.000  0.002  0.004  0.006
   35  0.014  0.003  0.001  0.018
   36  0.000  0.000  0.000  0.000
   37  0.000  0.000  0.000  0.000
tot    0.345  0.115  0.180  0.639
 
band     7 # energy   -5.82836028 # occ.  2.00000000
 
ion      s      p      d    tot
    1  0.000  0.001  0.003  0.004
    2  0.010  0.003  0.003  0.015
    3  0.001  0.001  0.002  0.004
    4  0.010  0.002  0.002  0.014
    5  0.000  0.001  0.004  0.005
    6  0.004  0.002  0.002  0.008
    7  0.001  0.001  0.002  0.004
    8  0.006  0.002  0.002  0.010
    9  0.000  0.003  0.006  0.009
   10  0.000  0.013  0.002  0.015
   11  0.019  0.003  0.006  0.028
   12  0.006  0.003  0.005  0.014
   13  0.021  0.004  0.005  0.030
   14  0.000  0.001  0.015  0.016
   15  0.042  0.004  0.007  0.054
   16  0.005  0.004  0.005  0.014
   17  0.049  0.004  0.006  0.059
   18  0.000  0.006  0.012  0.018
   19  0.030  0.003  0.007  0.041
   20  0.000  0.011  0.004  0.015
   21  0.000  0.003  0.005  0.008
   22  0.040  0.003  0.006  0.050
   23  0.000  0.004  0.005  0.009
   24  0.000  0.010  0.007  0.017
   25  0.000  0.000  0.017  0.017
   26  0.035  0.004  0.005  0.044
   27  0.034  0.004  0.006  0.045
   28  0.000  0.001  0.005  0.006
   29  0.010  0.002  0.002  0.015
   30  0.001  0.001  0.002  0.005
   31  0.010  0.002  0.003  0.015
   32  0.002  0.001  0.002  0.006
   33  0.002  0.001  0.002  0.006
   34  0.004  0.001  0.002  0.007
   35  0.000  0.003  0.005  0.008
   36  0.000  0.000  0.002  0.002
   37  0.000  0.000  0.000  0.000
tot    0.344  0.116  0.178  0.638
 
band     8 # energy   -5.82835811 # occ.  2.00000000
 
ion      s      p      d    tot
    1  0.000  0.001  0.003  0.004
    2  0.000  0.001  0.002  0.003
    3  0.010  0.002  0.003  0.015
    4  0.001  0.001  0.002  0.004
    5  0.000  0.001  0.004  0.005
    6  0.006  0.002  0.002  0.010
    7  0.009  0.002  0.003  0.014
    8  0.005  0.002  0.002  0.009
    9  0.000  0.003  0.006  0.009
   10  0.007  0.000  0.006  0.014
   11  0.008  0.002  0.011  0.021
   12  0.001  0.011  0.003  0.015
   13  0.005  0.002  0.012  0.020
   14  0.027  0.004  0.002  0.033
   15  0.019  0.005  0.010  0.034
   16  0.002  0.009  0.003  0.015
   17  0.012  0.006  0.010  0.028
   18  0.061  0.003  0.005  0.069
   19  0.013  0.002  0.013  0.027
   20  0.000  0.001  0.005  0.007
   21  0.000  0.009  0.004  0.013
   22  0.010  0.008  0.007  0.025
   23  0.000  0.008  0.005  0.012
   24  0.050  0.002  0.006  0.057
   25  0.044  0.005  0.002  0.051
   26  0.009  0.001  0.014  0.024
   27  0.015  0.007  0.007  0.029
   28  0.000  0.001  0.005  0.006
   29  0.000  0.001  0.002  0.003
   30  0.008  0.002  0.002  0.013
   31  0.000  0.001  0.002  0.003
   32  0.007  0.002  0.003  0.012
   33  0.007  0.002  0.002  0.012
   34  0.006  0.002  0.003  0.011
   35  0.000  0.003  0.005  0.008
   36  0.000  0.000  0.002  0.002
   37  0.000  0.000  0.000  0.000
tot    0.344  0.116  0.178  0.638
 
band     9 # energy   -5.81731565 # occ.  2.00000000
 
ion      s      p      d    tot
    1  0.000  0.000  0.001  0.002
    2  0.003  0.002  0.005  0.010
    3  0.003  0.002  0.005  0.010
    4  0.003  0.002  0.005  0.010
    5  0.036  0.003  0.000  0.039
    6  0.003  0.002  0.005  0.010
    7  0.003  0.002  0.005  0.010
    8  0.003  0.002  0.005  0.010
    9  0.001  0.002  0.004  0.006
   10  0.005  0.005  0.007  0.017
   11  0.017  0.008  0.004  0.029
   12  0.005  0.005  0.007  0.017
   13  0.017  0.008  0.004  0.029
   14  0.017  0.008  0.004  0.029
   15  0.022  0.002  0.009  0.033
   16  0.005  0.005  0.007  0.017
   17  0.022  0.002  0.009  0.033
   18  0.022  0.002  0.009  0.033
   19  0.014  0.001  0.009  0.024
   20  0.018  0.006  0.005  0.029
   21  0.018  0.006  0.005  0.029
   22  0.007  0.006  0.005  0.018
   23  0.018  0.006  0.005  0.029
   24  0.007  0.006  0.005  0.018
   25  0.014  0.001  0.009  0.024
   26  0.014  0.001  0.009  0.024
   27  0.007  0.006  0.005  0.018
   28  0.000  0.001  0.003  0.004
   29  0.003  0.001  0.003  0.008
   30  0.003  0.001  0.003  0.008
   31  0.003  0.001  0.003  0.008
   32  0.003  0.001  0.003  0.008
   33  0.003  0.001  0.003  0.008
   34  0.003  0.001  0.003  0.008
   35  0.000  0.001  0.002  0.002
   36  0.027  0.001  0.001  0.028
   37  0.004  0.000  0.000  0.004
tot    0.355  0.106  0.179  0.639
 
band    10 # energy   -5.07389696 # occ.  2.00000000
 
ion      s      p      d    tot
    1  0.000  0.001  0.008  0.010
    2  0.003  0.001  0.009  0.013
    3  0.003  0.001  0.009  0.013
    4  0.003  0.001  0.009  0.013
    5  0.000  0.001  0.007  0.008
    6  0.003  0.001  0.009  0.013
    7  0.003  0.001  0.009  0.013
    8  0.003  0.001  0.009  0.013
    9  0.026  0.000  0.005  0.031
   10  0.011  0.000  0.022  0.033
   11  0.007  0.000  0.020  0.027
   12  0.011  0.000  0.022  0.033
   13  0.007  0.000  0.020  0.027
   14  0.007  0.000  0.020  0.027
   15  0.000  0.001  0.021  0.023
   16  0.011  0.000  0.022  0.033
   17  0.000  0.001  0.021  0.023
   18  0.000  0.001  0.021  0.023
   19  0.007  0.000  0.020  0.028
   20  0.011  0.000  0.025  0.036
   21  0.011  0.000  0.025  0.037
   22  0.000  0.001  0.021  0.022
   23  0.011  0.000  0.025  0.037
   24  0.000  0.001  0.021  0.022
   25  0.007  0.000  0.020  0.028
   26  0.007  0.000  0.020  0.028
   27  0.000  0.001  0.021  0.022
   28  0.000  0.001  0.007  0.008
   29  0.004  0.001  0.009  0.014
   30  0.004  0.001  0.009  0.014
   31  0.004  0.001  0.009  0.014
   32  0.004  0.001  0.009  0.014
   33  0.004  0.001  0.009  0.014
   34  0.004  0.001  0.009  0.014
   35  0.026  0.000  0.005  0.030
   36  0.000  0.002  0.004  0.006
   37  0.000  0.000  0.000  0.000
tot    0.204  0.029  0.530  0.763
 
band    11 # energy   -5.06698012 # occ.  2.00000000
 
ion      s      p      d    tot
    1  0.041  0.002  0.000  0.043
    2  0.001  0.003  0.010  0.013
    3  0.001  0.003  0.010  0.013
    4  0.001  0.003  0.010  0.013
    5  0.000  0.000  0.002  0.003
    6  0.001  0.003  0.010  0.013
    7  0.001  0.003  0.010  0.013
    8  0.001  0.003  0.010  0.013
    9  0.015  0.003  0.002  0.020
   10  0.004  0.003  0.013  0.020
   11  0.005  0.000  0.016  0.021
   12  0.004  0.003  0.013  0.020
   13  0.005  0.000  0.016  0.021
   14  0.005  0.000  0.016  0.021
   15  0.008  0.002  0.018  0.028
   16  0.004  0.003  0.013  0.020
   17  0.008  0.002  0.018  0.028
   18  0.008  0.002  0.018  0.028
   19  0.002  0.003  0.019  0.024
   20  0.001  0.000  0.017  0.018
   21  0.001  0.000  0.017  0.018
   22  0.014  0.002  0.012  0.029
   23  0.001  0.000  0.017  0.018
   24  0.014  0.002  0.013  0.029
   25  0.002  0.003  0.019  0.025
   26  0.002  0.003  0.019  0.024
   27  0.014  0.002  0.012  0.029
   28  0.043  0.002  0.000  0.046
   29  0.001  0.003  0.010  0.013
   30  0.001  0.003  0.010  0.013
   31  0.001  0.003  0.010  0.013
   32  0.001  0.003  0.010  0.013
   33  0.001  0.003  0.010  0.013
   34  0.001  0.003  0.010  0.013
   35  0.013  0.003  0.004  0.020
   36  0.000  0.000  0.001  0.001
   37  0.000  0.000  0.000  0.000
tot    0.222  0.078  0.418  0.718
 
band    12 # energy   -5.06252139 # occ.  2.00000000
 
ion      s      p      d    tot
    1  0.000  0.002  0.010  0.012
    2  0.019  0.004  0.005  0.028
    3  0.000  0.002  0.005  0.007
    4  0.017  0.003  0.005  0.026
    5  0.000  0.006  0.009  0.015
    6  0.013  0.003  0.006  0.021
    7  0.001  0.002  0.005  0.007
    8  0.015  0.003  0.006  0.024
    9  0.000  0.001  0.013  0.014
   10  0.013  0.004  0.009  0.027
   11  0.006  0.002  0.021  0.029
   12  0.003  0.001  0.015  0.019
   13  0.004  0.002  0.024  0.030
   14  0.019  0.004  0.005  0.028
   15  0.000  0.003  0.016  0.019
   16  0.004  0.002  0.014  0.020
   17  0.000  0.003  0.017  0.020
   18  0.001  0.000  0.008  0.009
   19  0.001  0.003  0.017  0.020
   20  0.021  0.005  0.005  0.031
   21  0.004  0.002  0.026  0.032
   22  0.002  0.001  0.014  0.018
   23  0.006  0.002  0.023  0.032
   24  0.011  0.004  0.009  0.024
   25  0.002  0.000  0.008  0.010
   26  0.000  0.003  0.018  0.022
   27  0.003  0.002  0.014  0.018
   28  0.000  0.002  0.012  0.014
   29  0.017  0.003  0.006  0.026
   30  0.000  0.002  0.005  0.007
   31  0.015  0.003  0.006  0.024
   32  0.014  0.003  0.006  0.023
   33  0.000  0.002  0.005  0.007
   34  0.016  0.003  0.006  0.025
   35  0.000  0.001  0.009  0.011
   36  0.000  0.006  0.005  0.011
   37  0.000  0.000  0.000  0.000
tot    0.226  0.093  0.388  0.706
 
band    13 # energy   -5.06250860 # occ.  2.00000000
 
ion      s      p      d    tot
    1  0.000  0.002  0.010  0.012
    2  0.003  0.002  0.005  0.010
    3  0.021  0.004  0.005  0.031
    4  0.004  0.002  0.005  0.012
    5  0.000  0.006  0.009  0.015
    6  0.009  0.002  0.005  0.016
    7  0.021  0.004  0.006  0.030
    8  0.006  0.002  0.005  0.014
    9  0.000  0.001  0.013  0.014
   10  0.000  0.000  0.017  0.017
   11  0.013  0.003  0.012  0.029
   12  0.010  0.004  0.011  0.025
   13  0.015  0.004  0.010  0.028
   14  0.000  0.002  0.028  0.030
   15  0.000  0.001  0.012  0.013
   16  0.009  0.003  0.012  0.024
   17  0.000  0.001  0.010  0.012
   18  0.000  0.004  0.020  0.023
   19  0.001  0.001  0.012  0.014
   20  0.000  0.001  0.031  0.032
   21  0.017  0.004  0.010  0.031
   22  0.008  0.003  0.011  0.022
   23  0.015  0.004  0.013  0.031
   24  0.000  0.001  0.015  0.016
   25  0.000  0.004  0.021  0.025
   26  0.001  0.001  0.010  0.013
   27  0.007  0.003  0.011  0.021
   28  0.000  0.002  0.012  0.014
   29  0.004  0.002  0.005  0.011
   30  0.021  0.004  0.006  0.031
   31  0.006  0.002  0.005  0.013
   32  0.007  0.002  0.005  0.014
   33  0.021  0.004  0.006  0.030
   34  0.004  0.002  0.005  0.012
   35  0.000  0.001  0.009  0.011
   36  0.000  0.006  0.005  0.011
   37  0.000  0.000  0.000  0.000
tot    0.226  0.093  0.388  0.706
 
band    14 # energy   -5.05607259 # occ.  2.00000000
 
ion      s      p      d    tot
    1  0.000  0.004  0.011  0.016
    2  0.004  0.002  0.005  0.011
    3  0.021  0.004  0.006  0.031
    4  0.003  0.002  0.005  0.011
    5  0.000  0.000  0.012  0.012
    6  0.007  0.002  0.005  0.015
    7  0.021  0.004  0.006  0.031
    8  0.008  0.002  0.005  0.015
    9  0.000  0.005  0.008  0.013
   10  0.009  0.002  0.006  0.016
   11  0.001  0.002  0.013  0.016
   12  0.002  0.003  0.022  0.027
   13  0.001  0.002  0.013  0.016
   14  0.003  0.001  0.010  0.014
   15  0.005  0.001  0.019  0.025
   16  0.002  0.003  0.022  0.027
   17  0.005  0.002  0.019  0.026
   18  0.021  0.006  0.007  0.033
   19  0.005  0.001  0.018  0.024
   20  0.001  0.001  0.011  0.013
   21  0.000  0.002  0.015  0.017
   22  0.003  0.003  0.021  0.027
   23  0.000  0.002  0.015  0.018
   24  0.012  0.002  0.005  0.020
   25  0.021  0.005  0.007  0.033
   26  0.005  0.001  0.018  0.025
   27  0.003  0.003  0.021  0.027
   28  0.000  0.004  0.008  0.013
   29  0.005  0.002  0.005  0.012
   30  0.020  0.004  0.005  0.029
   31  0.004  0.002  0.005  0.012
   32  0.005  0.002  0.006  0.013
   33  0.021  0.004  0.005  0.029
   34  0.006  0.002  0.006  0.014
   35  0.000  0.005  0.010  0.015
   36  0.000  0.000  0.007  0.007
   37  0.000  0.000  0.000  0.000
tot    0.225  0.094  0.383  0.702
 
band    15 # energy   -5.05606237 # occ.  2.00000000
 
ion      s      p      d    tot
    1  0.000  0.004  0.011  0.016
    2  0.018  0.003  0.005  0.026
    3  0.000  0.002  0.005  0.007
    4  0.018  0.003  0.005  0.027
    5  0.000  0.000  0.012  0.012
    6  0.015  0.003  0.006  0.023
    7  0.000  0.002  0.005  0.007
    8  0.014  0.003  0.006  0.023
    9  0.000  0.005  0.008  0.013
   10  0.000  0.003  0.027  0.031
   11  0.002  0.002  0.011  0.015
   12  0.007  0.002  0.011  0.020
   13  0.002  0.002  0.011  0.015
   14  0.000  0.002  0.014  0.017
   15  0.016  0.004  0.011  0.031
   16  0.007  0.002  0.011  0.019
   17  0.015  0.004  0.011  0.030
   18  0.000  0.000  0.023  0.023
   19  0.016  0.004  0.010  0.030
   20  0.000  0.003  0.016  0.019
   21  0.001  0.001  0.012  0.014
   22  0.009  0.002  0.011  0.022
   23  0.001  0.001  0.012  0.014
   24  0.000  0.003  0.026  0.029
   25  0.000  0.000  0.022  0.022
   26  0.015  0.004  0.011  0.030
   27  0.009  0.002  0.010  0.022
   28  0.000  0.004  0.008  0.013
   29  0.016  0.003  0.005  0.024
   30  0.000  0.002  0.006  0.007
   31  0.016  0.003  0.005  0.025
   32  0.015  0.003  0.005  0.023
   33  0.000  0.002  0.006  0.007
   34  0.015  0.003  0.005  0.023
   35  0.000  0.005  0.010  0.015
   36  0.000  0.000  0.007  0.007
   37  0.000  0.000  0.000  0.000
tot    0.225  0.094  0.383  0.702
 
band    16 # energy   -5.02161704 # occ.  2.00000000
 
ion      s      p      d    tot
    1  0.007  0.001  0.001  0.009
    2  0.000  0.003  0.010  0.013
    3  0.000  0.003  0.010  0.013
    4  0.000  0.003  0.010  0.013
    5  0.046  0.003  0.000  0.049
    6  0.000  0.003  0.010  0.013
    7  0.000  0.003  0.010  0.013
    8  0.000  0.003  0.010  0.013
    9  0.007  0.002  0.002  0.010
   10  0.002  0.001  0.020  0.022
   11  0.005  0.004  0.017  0.025
   12  0.002  0.001  0.020  0.022
   13  0.005  0.004  0.017  0.025
   14  0.005  0.004  0.017  0.025
   15  0.007  0.002  0.011  0.020
   16  0.002  0.001  0.020  0.022
   17  0.007  0.002  0.011  0.020
   18  0.007  0.002  0.011  0.020
   19  0.009  0.001  0.015  0.025
   20  0.007  0.004  0.015  0.027
   21  0.007  0.004  0.015  0.027
   22  0.003  0.001  0.017  0.021
   23  0.007  0.004  0.015  0.027
   24  0.003  0.001  0.017  0.021
   25  0.009  0.001  0.015  0.025
   26  0.009  0.001  0.015  0.025
   27  0.003  0.001  0.017  0.021
   28  0.004  0.002  0.003  0.008
   29  0.001  0.003  0.009  0.012
   30  0.001  0.003  0.009  0.012
   31  0.001  0.003  0.009  0.012
   32  0.001  0.003  0.009  0.012
   33  0.001  0.003  0.009  0.012
   34  0.001  0.003  0.009  0.012
   35  0.006  0.002  0.001  0.009
   36  0.044  0.001  0.003  0.048
   37  0.009  0.000  0.000  0.009
tot    0.228  0.082  0.406  0.716
 
band    17 # energy   -4.37703870 # occ.  2.00000000
 
ion      s      p      d    tot
    1  0.021  0.001  0.002  0.023
    2  0.000  0.001  0.018  0.019
    3  0.000  0.001  0.018  0.019
    4  0.000  0.001  0.018  0.019
    5  0.000  0.000  0.000  0.000
    6  0.000  0.001  0.018  0.019
    7  0.000  0.001  0.017  0.019
    8  0.000  0.001  0.018  0.019
    9  0.024  0.001  0.001  0.025
   10  0.001  0.003  0.031  0.035
   11  0.000  0.000  0.004  0.005
   12  0.001  0.003  0.031  0.035
   13  0.000  0.000  0.004  0.005
   14  0.000  0.000  0.004  0.005
   15  0.000  0.002  0.030  0.032
   16  0.001  0.003  0.031  0.035
   17  0.000  0.002  0.030  0.032
   18  0.000  0.002  0.030  0.032
   19  0.000  0.003  0.040  0.044
   20  0.000  0.000  0.022  0.023
   21  0.000  0.000  0.022  0.023
   22  0.001  0.002  0.012  0.014
   23  0.000  0.000  0.022  0.023
   24  0.001  0.002  0.012  0.014
   25  0.000  0.003  0.040  0.044
   26  0.000  0.003  0.040  0.044
   27  0.001  0.002  0.012  0.014
   28  0.029  0.001  0.001  0.032
   29  0.000  0.001  0.018  0.019
   30  0.000  0.001  0.018  0.019
   31  0.000  0.001  0.018  0.019
   32  0.000  0.001  0.018  0.020
   33  0.000  0.001  0.018  0.019
   34  0.000  0.001  0.018  0.020
   35  0.005  0.000  0.001  0.006
   36  0.013  0.000  0.003  0.016
   37  0.006  0.000  0.000  0.006
tot    0.103  0.052  0.642  0.797
 
band    18 # energy   -4.37443715 # occ.  2.00000000
 
ion      s      p      d    tot
    1  0.000  0.001  0.017  0.018
    2  0.015  0.001  0.010  0.026
    3  0.001  0.001  0.010  0.011
    4  0.015  0.001  0.010  0.026
    5  0.000  0.003  0.004  0.007
    6  0.008  0.001  0.011  0.019
    7  0.001  0.001  0.010  0.012
    8  0.008  0.001  0.011  0.020
    9  0.000  0.001  0.036  0.036
   10  0.000  0.005  0.021  0.026
   11  0.000  0.002  0.024  0.026
   12  0.000  0.001  0.017  0.018
   13  0.000  0.001  0.025  0.026
   14  0.001  0.006  0.013  0.021
   15  0.000  0.000  0.045  0.045
   16  0.000  0.001  0.017  0.019
   17  0.000  0.000  0.046  0.046
   18  0.000  0.000  0.004  0.004
   19  0.000  0.000  0.040  0.040
   20  0.001  0.004  0.010  0.015
   21  0.000  0.001  0.037  0.039
   22  0.000  0.002  0.010  0.012
   23  0.000  0.001  0.037  0.038
   24  0.000  0.006  0.022  0.028
   25  0.000  0.000  0.006  0.007
   26  0.000  0.000  0.041  0.041
   27  0.000  0.002  0.010  0.012
   28  0.000  0.000  0.035  0.035
   29  0.004  0.001  0.010  0.015
   30  0.004  0.001  0.009  0.013
   31  0.004  0.001  0.010  0.015
   32  0.015  0.001  0.010  0.026
   33  0.003  0.001  0.009  0.013
   34  0.015  0.001  0.010  0.026
   35  0.000  0.002  0.007  0.008
   36  0.000  0.002  0.005  0.007
   37  0.000  0.000  0.000  0.000
tot    0.099  0.053  0.647  0.799
 
band    19 # energy   -4.37439451 # occ.  2.00000000
 
ion      s      p      d    tot
    1  0.000  0.001  0.017  0.018
    2  0.001  0.001  0.010  0.012
    3  0.015  0.001  0.011  0.027
    4  0.001  0.001  0.010  0.012
    5  0.000  0.003  0.004  0.007
    6  0.008  0.001  0.010  0.019
    7  0.015  0.001  0.011  0.027
    8  0.008  0.001  0.010  0.018
    9  0.000  0.001  0.036  0.036
   10  0.000  0.000  0.015  0.015
   11  0.001  0.005  0.017  0.023
   12  0.000  0.004  0.020  0.024
   13  0.001  0.005  0.017  0.023
   14  0.000  0.000  0.028  0.028
   15  0.000  0.000  0.018  0.019
   16  0.000  0.004  0.020  0.024
   17  0.000  0.000  0.017  0.017
   18  0.000  0.000  0.059  0.059
   19  0.000  0.000  0.018  0.019
   20  0.000  0.000  0.047  0.047
   21  0.001  0.003  0.018  0.023
   22  0.000  0.005  0.018  0.023
   23  0.001  0.003  0.019  0.023
   24  0.000  0.000  0.006  0.006
   25  0.000  0.000  0.052  0.052
   26  0.000  0.000  0.017  0.018
   27  0.000  0.005  0.018  0.023
   28  0.000  0.000  0.035  0.035
   29  0.011  0.001  0.009  0.021
   30  0.011  0.001  0.011  0.023
   31  0.011  0.001  0.009  0.021
   32  0.000  0.001  0.009  0.010
   33  0.012  0.001  0.011  0.023
   34  0.000  0.001  0.009  0.010
   35  0.000  0.002  0.007  0.008
   36  0.000  0.002  0.005  0.007
   37  0.000  0.000  0.000  0.000
tot    0.099  0.053  0.647  0.799
 
band    20 # energy   -4.36981873 # occ.  2.00000000
 
ion      s      p      d    tot
    1  0.000  0.002  0.021  0.023
    2  0.014  0.001  0.010  0.025
    3  0.001  0.001  0.009  0.011
    4  0.014  0.001  0.010  0.025
    5  0.000  0.000  0.032  0.032
    6  0.007  0.001  0.010  0.018
    7  0.001  0.001  0.009  0.011
    8  0.008  0.001  0.010  0.019
    9  0.000  0.002  0.002  0.004
   10  0.000  0.000  0.053  0.053
   11  0.000  0.001  0.018  0.019
   12  0.001  0.002  0.017  0.019
   13  0.000  0.001  0.018  0.019
   14  0.000  0.000  0.039  0.039
   15  0.001  0.005  0.017  0.023
   16  0.001  0.002  0.018  0.020
   17  0.001  0.005  0.018  0.024
   18  0.000  0.000  0.008  0.008
   19  0.001  0.005  0.017  0.023
   20  0.000  0.000  0.032  0.032
   21  0.000  0.002  0.024  0.026
   22  0.000  0.001  0.017  0.018
   23  0.000  0.002  0.024  0.026
   24  0.000  0.000  0.060  0.060
   25  0.000  0.000  0.016  0.017
   26  0.001  0.005  0.017  0.023
   27  0.000  0.001  0.018  0.019
   28  0.000  0.003  0.001  0.004
   29  0.004  0.001  0.010  0.014
   30  0.004  0.001  0.010  0.016
   31  0.004  0.001  0.010  0.014
   32  0.016  0.001  0.010  0.027
   33  0.004  0.001  0.010  0.015
   34  0.016  0.001  0.010  0.027
   35  0.000  0.001  0.030  0.031
   36  0.000  0.000  0.011  0.011
   37  0.000  0.000  0.000  0.000
tot    0.098  0.053  0.647  0.798
 
band    21 # energy   -4.36980349 # occ.  2.00000000
 
ion      s      p      d    tot
    1  0.000  0.002  0.021  0.023
    2  0.001  0.001  0.010  0.011
    3  0.014  0.001  0.010  0.026
    4  0.001  0.001  0.010  0.012
    5  0.000  0.000  0.032  0.032
    6  0.008  0.001  0.009  0.018
    7  0.014  0.001  0.010  0.025
    8  0.007  0.001  0.009  0.018
    9  0.000  0.002  0.002  0.004
   10  0.001  0.002  0.005  0.009
   11  0.000  0.000  0.032  0.032
   12  0.000  0.001  0.042  0.042
   13  0.000  0.000  0.032  0.033
   14  0.000  0.001  0.011  0.012
   15  0.000  0.002  0.012  0.014
   16  0.000  0.001  0.040  0.041
   17  0.000  0.002  0.011  0.013
   18  0.001  0.007  0.021  0.028
   19  0.000  0.002  0.017  0.019
   20  0.000  0.003  0.021  0.024
   21  0.000  0.001  0.030  0.030
   22  0.000  0.000  0.046  0.047
   23  0.000  0.001  0.029  0.030
   24  0.001  0.001  0.004  0.005
   25  0.001  0.007  0.017  0.025
   26  0.000  0.002  0.017  0.019
   27  0.000  0.000  0.045  0.045
   28  0.000  0.003  0.001  0.004
   29  0.012  0.001  0.010  0.023
   30  0.011  0.001  0.009  0.022
   31  0.012  0.001  0.010  0.023
   32  0.000  0.001  0.010  0.011
   33  0.012  0.001  0.009  0.022
   34  0.000  0.001  0.010  0.011
   35  0.000  0.001  0.030  0.031
   36  0.000  0.000  0.011  0.011