 vasp.6.2.0 18Jan21 (build Jun 12 2021 23:27:24) complex                        
  
 executed on             LinuxIFC date 2022.05.30  17:11:07
 running on   28 total cores
 distrk:  each k-point on   28 cores,    1 groups
 distr:  one band on NCORE=   1 cores,   28 groups


--------------------------------------------------------------------------------------------------------


 INCAR:
   ISMEAR = -5
   SIGMA = 0.1
   ISPIN = 1
   EDIFF = 1.d-5
   EDIFFG = -0.01
   NSW = 0
   NELM = 150
   ENCUT = 500
   ISIF = 2
   IBRION = 2
   LREAL = Auto
   ALGO = Fast
   ICHARG = 11
   LORBIT = 10
   LCHARG = .F.
   LWAVE = .F.

 POTCAR:    PAW_PBE Ag 02Apr2005                  
 POTCAR:    PAW_PBE Zr_sv 04Jan2005               
 POTCAR:    PAW_PBE C 08Apr2002                   
 POTCAR:    PAW_PBE O 08Apr2002                   
 POTCAR:    PAW_PBE H 15Jun2001                   
 -----------------------------------------------------------------------------
|                                                                             |
|           W    W    AA    RRRRR   N    N  II  N    N   GGGG   !!!           |
|           W    W   A  A   R    R  NN   N  II  NN   N  G    G  !!!           |
|           W    W  A    A  R    R  N N  N  II  N N  N  G       !!!           |
|           W WW W  AAAAAA  RRRRR   N  N N  II  N  N N  G  GGG   !            |
|           WW  WW  A    A  R   R   N   NN  II  N   NN  G    G                |
|           W    W  A    A  R    R  N    N  II  N    N   GGGG   !!!           |
|                                                                             |
|     For optimal performance we recommend to set                             |
|       NCORE = 2 up to number-of-cores-per-socket                            |
|     NCORE specifies how many cores store one orbital (NPAR=cpu/NCORE).      |
|     This setting can greatly improve the performance of VASP for DFT.       |
|     The default, NCORE=1 might be grossly inefficient on modern             |
|     multi-core architectures or massively parallel machines. Do your        |
|     own testing! More info at https://www.vasp.at/wiki/index.php/NCORE      |
|     Unfortunately you need to use the default for GW and RPA                |
|     calculations (for HF NCORE is supported but not extensively tested      |
|     yet).                                                                   |
|                                                                             |
 -----------------------------------------------------------------------------

 POTCAR:    PAW_PBE Ag 02Apr2005                  
   VRHFIN =Ag : s1 d10                                                                              
   LEXCH  = PE                                                                                      
   EATOM  =  1037.2675 eV,   76.2370 Ry                                                             
                                                                                                    
   TITEL  = PAW_PBE Ag 02Apr2005                                                                    
   LULTRA =        F    use ultrasoft PP ?                                                          
   IUNSCR =        1    unscreen: 0-lin 1-nonlin 2-no                                               
   RPACOR =    2.000    partial core radius                                                         
   POMASS =  107.868; ZVAL   =   11.000    mass and valenz                                          
   RCORE  =    2.500    outmost cutoff radius                                                       
   RWIGS  =    2.840; RWIGS  =    1.503    wigner-seitz radius (au A)                               
   ENMAX  =  249.844; ENMIN  =  187.383 eV                                                          
   ICORE  =        3    local potential                                                             
   LCOR   =        T    correct aug charges                                                         
   LPAW   =        T    paw PP                                                                      
   EAUG   =  412.496                                                                                
   DEXC   =    0.000                                                                                
   RMAX   =    2.560    core radius for proj-oper                                                   
   RAUG   =    1.300    factor for augmentation sphere                                              
   RDEP   =    2.576    radius for radial grids                                                     
   RDEPT  =    2.072    core radius for aug-charge                                                  
                                                                                                    
   Atomic configuration                                                                             
   12 entries                                                                                       
     n  l   j            E        occ.                                                              
     1  0  0.50    -25324.9161   2.0000                                                             
     2  0  0.50     -3728.5341   2.0000                                                             
     2  1  1.50     -3344.0404   6.0000                                                             
     3  0  0.50      -683.5581   2.0000                                                             
     3  1  1.50      -557.3225   6.0000                                                             
     3  2  2.50      -358.3853  10.0000                                                             
     4  0  0.50       -95.0341   2.0000                                                             
     4  1  1.50       -58.5511   6.0000                                                             
     4  2  2.50        -7.4440  10.0000                                                             
     5  0  0.50        -4.4045   1.0000                                                             
     5  1  0.50        -1.3606   0.0000                                                             
     4  3  2.50        -1.3606   0.0000                                                             
   Description                                                                                      
     l       E           TYP  RCUT    TYP  RCUT                                                     
     2     -7.4439781     23  2.400                                                                 
     2     -8.8045607     23  2.400                                                                 
     0     -4.4044681     23  2.400                                                                 
     0      1.9520038     23  2.400                                                                 
     1     -1.3605826     23  2.500                                                                 
     1     27.2116520     23  2.500                                                                 
     3     -4.0817478     23  2.400                                                                 
  local pseudopotential read in
  partial core-charges read in
  partial kinetic energy density read in
  atomic valenz-charges read in
  non local Contribution for L=           2  read in
    real space projection operators read in
  non local Contribution for L=           2  read in
    real space projection operators read in
  non local Contribution for L=           0  read in
    real space projection operators read in
  non local Contribution for L=           0  read in
    real space projection operators read in
  non local Contribution for L=           1  read in
    real space projection operators read in
  non local Contribution for L=           1  read in
    real space projection operators read in
    PAW grid and wavefunctions read in
 
   number of l-projection  operators is LMAX  =           6
   number of lm-projection operators is LMMAX =          18
 
 POTCAR:    PAW_PBE Zr_sv 04Jan2005               
   VRHFIN =Zr: 4s4p5s4d                                                                             
   LEXCH  = PE                                                                                      
   EATOM  =  1284.2219 eV,   94.3876 Ry                                                             
                                                                                                    
   TITEL  = PAW_PBE Zr_sv 04Jan2005                                                                 
   LULTRA =        F    use ultrasoft PP ?                                                          
   IUNSCR =        1    unscreen: 0-lin 1-nonlin 2-no                                               
   RPACOR =    2.200    partial core radius                                                         
   POMASS =   91.224; ZVAL   =   12.000    mass and valenz                                          
   RCORE  =    2.500    outmost cutoff radius                                                       
   RWIGS  =    3.070; RWIGS  =    1.625    wigner-seitz radius (au A)                               
   ENMAX  =  229.898; ENMIN  =  172.424 eV                                                          
   ICORE  =        3    local potential                                                             
   LCOR   =        T    correct aug charges                                                         
   LPAW   =        T    paw PP                                                                      
   EAUG   =  461.257                                                                                
   DEXC   =    0.000                                                                                
   RMAX   =    2.561    core radius for proj-oper                                                   
   RAUG   =    1.300    factor for augmentation sphere                                              
   RDEP   =    2.597    radius for radial grids                                                     
   RDEPT  =    2.007    core radius for aug-charge                                                  
                                                                                                    
   Atomic configuration                                                                             
   11 entries                                                                                       
     n  l   j            E        occ.                                                              
     1  0  0.50    -17820.0161   2.0000                                                             
     2  0  0.50     -2467.0882   2.0000                                                             
     2  1  1.50     -2199.6095   6.0000                                                             
     3  0  0.50      -402.4863   2.0000                                                             
     3  1  1.50      -315.3675   6.0000                                                             
     3  2  2.50      -172.4472  10.0000                                                             
     4  0  0.50       -52.4146   2.0000                                                             
     5  0  0.50        -3.8421   1.0000                                                             
     4  1  1.50       -30.5054   6.0000                                                             
     4  2  2.50        -2.3341   3.0000                                                             
     4  3  2.50        -1.3606   0.0000                                                             
   Description                                                                                      
     l       E           TYP  RCUT    TYP  RCUT                                                     
     0    -52.4145962     23  2.200                                                                 
     0     -3.8421270     23  2.500                                                                 
     1    -30.5053914     23  2.200                                                                 
     1     20.4087390     23  2.200                                                                 
     2     -2.3340816     23  2.500                                                                 
     2     -0.6120942     23  2.500                                                                 
     3     -4.0817478     23  2.500                                                                 
  local pseudopotential read in
  partial core-charges read in
  partial kinetic energy density read in
  atomic valenz-charges read in
  non local Contribution for L=           0  read in
    real space projection operators read in
  non local Contribution for L=           0  read in
    real space projection operators read in
  non local Contribution for L=           1  read in
    real space projection operators read in
  non local Contribution for L=           1  read in
    real space projection operators read in
  non local Contribution for L=           2  read in
    real space projection operators read in
  non local Contribution for L=           2  read in
    real space projection operators read in
    PAW grid and wavefunctions read in
 
   number of l-projection  operators is LMAX  =           6
   number of lm-projection operators is LMMAX =          18
 
 POTCAR:    PAW_PBE C 08Apr2002                   
   VRHFIN =C: s2p2                                                                                  
   LEXCH  = PE                                                                                      
   EATOM  =   147.1560 eV,   10.8157 Ry                                                             
                                                                                                    
   TITEL  = PAW_PBE C 08Apr2002                                                                     
   LULTRA =        F    use ultrasoft PP ?                                                          
   IUNSCR =        1    unscreen: 0-lin 1-nonlin 2-no                                               
   RPACOR =    1.200    partial core radius                                                         
   POMASS =   12.011; ZVAL   =    4.000    mass and valenz                                          
   RCORE  =    1.500    outmost cutoff radius                                                       
   RWIGS  =    1.630; RWIGS  =    0.863    wigner-seitz radius (au A)                               
   ENMAX  =  400.000; ENMIN  =  300.000 eV                                                          
   ICORE  =        2    local potential                                                             
   LCOR   =        T    correct aug charges                                                         
   LPAW   =        T    paw PP                                                                      
   EAUG   =  644.873                                                                                
   DEXC   =    0.000                                                                                
   RMAX   =    1.529    core radius for proj-oper                                                   
   RAUG   =    1.300    factor for augmentation sphere                                              
   RDEP   =    1.501    radius for radial grids                                                     
   RDEPT  =    1.300    core radius for aug-charge                                                  
                                                                                                    
   Atomic configuration                                                                             
    4 entries                                                                                       
     n  l   j            E        occ.                                                              
     1  0  0.50      -273.3789   2.0000                                                             
     2  0  0.50       -13.7508   2.0000                                                             
     2  1  0.50        -5.2854   2.0000                                                             
     3  2  1.50        -5.4423   0.0000                                                             
   Description                                                                                      
     l       E           TYP  RCUT    TYP  RCUT                                                     
     0    -13.7508458     23  1.200                                                                 
     0     -8.2022199     23  1.200                                                                 
     1     -5.2854383     23  1.500                                                                 
     1     34.0145650     23  1.500                                                                 
     2     -5.4423304      7  1.500                                                                 
  local pseudopotential read in
  partial core-charges read in
  partial kinetic energy density read in
  atomic valenz-charges read in
  non local Contribution for L=           0  read in
    real space projection operators read in
  non local Contribution for L=           0  read in
    real space projection operators read in
  non local Contribution for L=           1  read in
    real space projection operators read in
  non local Contribution for L=           1  read in
    real space projection operators read in
    PAW grid and wavefunctions read in
 
   number of l-projection  operators is LMAX  =           4
   number of lm-projection operators is LMMAX =           8
 
 POTCAR:    PAW_PBE O 08Apr2002                   
   VRHFIN =O: s2p4                                                                                  
   LEXCH  = PE                                                                                      
   EATOM  =   432.3788 eV,   31.7789 Ry                                                             
                                                                                                    
   TITEL  = PAW_PBE O 08Apr2002                                                                     
   LULTRA =        F    use ultrasoft PP ?                                                          
   IUNSCR =        1    unscreen: 0-lin 1-nonlin 2-no                                               
   RPACOR =    1.200    partial core radius                                                         
   POMASS =   16.000; ZVAL   =    6.000    mass and valenz                                          
   RCORE  =    1.520    outmost cutoff radius                                                       
   RWIGS  =    1.550; RWIGS  =    0.820    wigner-seitz radius (au A)                               
   ENMAX  =  400.000; ENMIN  =  300.000 eV                                                          
   ICORE  =        2    local potential                                                             
   LCOR   =        T    correct aug charges                                                         
   LPAW   =        T    paw PP                                                                      
   EAUG   =  605.392                                                                                
   DEXC   =    0.000                                                                                
   RMAX   =    1.553    core radius for proj-oper                                                   
   RAUG   =    1.300    factor for augmentation sphere                                              
   RDEP   =    1.550    radius for radial grids                                                     
   RDEPT  =    1.329    core radius for aug-charge                                                  
                                                                                                    
   Atomic configuration                                                                             
    4 entries                                                                                       
     n  l   j            E        occ.                                                              
     1  0  0.50      -514.6923   2.0000                                                             
     2  0  0.50       -23.9615   2.0000                                                             
     2  1  0.50        -9.0305   4.0000                                                             
     3  2  1.50        -9.5241   0.0000                                                             
   Description                                                                                      
     l       E           TYP  RCUT    TYP  RCUT                                                     
     0    -23.9615318     23  1.200                                                                 
     0     -9.5240782     23  1.200                                                                 
     1     -9.0304911     23  1.520                                                                 
     1      8.1634956     23  1.520                                                                 
     2     -9.5240782      7  1.500                                                                 
  local pseudopotential read in
  partial core-charges read in
  partial kinetic energy density read in
  kinetic energy density of atom read in
  atomic valenz-charges read in
  non local Contribution for L=           0  read in
    real space projection operators read in
  non local Contribution for L=           0  read in
    real space projection operators read in
  non local Contribution for L=           1  read in
    real space projection operators read in
  non local Contribution for L=           1  read in
    real space projection operators read in
    PAW grid and wavefunctions read in
 
   number of l-projection  operators is LMAX  =           4
   number of lm-projection operators is LMMAX =           8
 
 POTCAR:    PAW_PBE H 15Jun2001                   
   VRHFIN =H: ultrasoft test                                                                        
   LEXCH  = PE                                                                                      
   EATOM  =    12.4884 eV,    0.9179 Ry                                                             
                                                                                                    
   TITEL  = PAW_PBE H 15Jun2001                                                                     
   LULTRA =        F    use ultrasoft PP ?                                                          
   IUNSCR =        0    unscreen: 0-lin 1-nonlin 2-no                                               
   RPACOR =    0.000    partial core radius                                                         
   POMASS =    1.000; ZVAL   =    1.000    mass and valenz                                          
   RCORE  =    1.100    outmost cutoff radius                                                       
   RWIGS  =    0.700; RWIGS  =    0.370    wigner-seitz radius (au A)                               
   ENMAX  =  250.000; ENMIN  =  200.000 eV                                                          
   RCLOC  =    0.701    cutoff for local pot                                                        
   LCOR   =        T    correct aug charges                                                         
   LPAW   =        T    paw PP                                                                      
   EAUG   =  400.000                                                                                
   RMAX   =    1.123    core radius for proj-oper                                                   
   RAUG   =    1.200    factor for augmentation sphere                                              
   RDEP   =    1.112    radius for radial grids                                                     
   RDEPT  =    0.926    core radius for aug-charge                                                  
                                                                                                    
   Atomic configuration                                                                             
    2 entries                                                                                       
     n  l   j            E        occ.                                                              
     1  0  0.50        -6.4927   1.0000                                                             
     2  1  0.50        -3.4015   0.0000                                                             
   Description                                                                                      
     l       E           TYP  RCUT    TYP  RCUT                                                     
     0     -6.4927494     23  1.100                                                                 
     0      6.8029130     23  1.100                                                                 
     1     -4.0817478     23  1.100                                                                 
  local pseudopotential read in
  atomic valenz-charges read in
  non local Contribution for L=           0  read in
    real space projection operators read in
  non local Contribution for L=           0  read in
    real space projection operators read in
  non local Contribution for L=           1  read in
    real space projection operators read in
    PAW grid and wavefunctions read in
 
   number of l-projection  operators is LMAX  =           3
   number of lm-projection operators is LMMAX =           5
 
 Optimization of the real space projectors (new method)

 maximal supplied QI-value         = 15.12
 optimisation between [QCUT,QGAM] = [ 11.34, 22.83] = [ 36.00,145.93] Ry 
 Optimized for a Real-space Cutoff    1.43 Angstroem

   l    n(q)    QCUT    max X(q) W(low)/X(q) W(high)/X(q)  e(spline) 
   2      9    11.338    53.897    0.16E-03    0.20E-03    0.28E-06
   2      9    11.338    52.416    0.16E-03    0.20E-03    0.29E-06
   0     10    11.338   122.045    0.31E-04    0.76E-04    0.15E-06
   0     10    11.338    73.629    0.30E-04    0.72E-04    0.15E-06
   1      9    11.338    15.255    0.20E-03    0.19E-04    0.17E-06
   1      9    11.338     9.562    0.16E-03    0.15E-04    0.14E-06
 Optimization of the real space projectors (new method)

 maximal supplied QI-value         = 15.12
 optimisation between [QCUT,QGAM] = [ 11.34, 22.83] = [ 36.00,145.93] Ry 
 Optimized for a Real-space Cutoff    1.47 Angstroem

   l    n(q)    QCUT    max X(q) W(low)/X(q) W(high)/X(q)  e(spline) 
   0     10    11.338    12.107    0.38E-04    0.13E-04    0.27E-07
   0     10    11.338     9.948    0.69E-04    0.30E-04    0.38E-07
   1     10    11.338     3.563    0.26E-04    0.18E-04    0.40E-07
   1     10    11.338     4.524    0.25E-03    0.39E-04    0.44E-06
   2      9    11.338    87.261    0.26E-03    0.91E-05    0.26E-06
   2      9    11.338    70.950    0.25E-03    0.91E-05    0.25E-06
 Optimization of the real space projectors (new method)

 maximal supplied QI-value         = 25.13
 optimisation between [QCUT,QGAM] = [ 11.31, 22.87] = [ 35.82,146.48] Ry 
 Optimized for a Real-space Cutoff    1.00 Angstroem

   l    n(q)    QCUT    max X(q) W(low)/X(q) W(high)/X(q)  e(spline) 
   0      7    11.310   115.676    0.43E-03    0.13E-02    0.19E-06
   0      7    11.310    87.132    0.43E-03    0.13E-02    0.18E-06
   1      6    11.310     4.429    0.42E-03    0.74E-03    0.11E-06
   1      6    11.310     2.733    0.34E-03    0.55E-03    0.92E-07
 Optimization of the real space projectors (new method)

 maximal supplied QI-value         = 24.76
 optimisation between [QCUT,QGAM] = [ 11.39, 22.77] = [ 36.31,145.25] Ry 
 Optimized for a Real-space Cutoff    1.00 Angstroem

   l    n(q)    QCUT    max X(q) W(low)/X(q) W(high)/X(q)  e(spline) 
   0      7    11.387    20.381    0.39E-03    0.13E-02    0.15E-06
   0      7    11.387    15.268    0.42E-03    0.14E-02    0.17E-06
   1      6    11.387     5.964    0.41E-03    0.11E-02    0.17E-06
   1      6    11.387     5.382    0.39E-03    0.87E-03    0.15E-06
 Optimization of the real space projectors (new method)

 maximal supplied QI-value         = 34.20
 optimisation between [QCUT,QGAM] = [ 11.29, 22.57] = [ 35.68,142.71] Ry 
 Optimized for a Real-space Cutoff    1.16 Angstroem

   l    n(q)    QCUT    max X(q) W(low)/X(q) W(high)/X(q)  e(spline) 
   0      8    11.287    19.460    0.40E-03    0.73E-03    0.16E-06
   0      8    11.287    12.209    0.38E-03    0.70E-03    0.15E-06
   1      7    11.287     4.655    0.22E-03    0.25E-04    0.22E-06
  PAW_PBE Ag 02Apr2005                  :
 energy of atom  1       EATOM=-1037.2675
 kinetic energy error for atom=    0.0052 (will be added to EATOM!!)
  PAW_PBE Zr_sv 04Jan2005               :
 energy of atom  2       EATOM=-1284.2219
 kinetic energy error for atom=    0.0049 (will be added to EATOM!!)
  PAW_PBE C 08Apr2002                   :
 energy of atom  3       EATOM= -147.1560
 kinetic energy error for atom=    0.0076 (will be added to EATOM!!)
  PAW_PBE O 08Apr2002                   :
 energy of atom  4       EATOM= -432.3788
 kinetic energy error for atom=    0.0224 (will be added to EATOM!!)
  PAW_PBE H 15Jun2001                   :
 energy of atom  5       EATOM=  -12.4884
 kinetic energy error for atom=    0.0020 (will be added to EATOM!!)
 
 
 POSCAR: Ag-Zr-COH
  positions in direct lattice
  velocities in cartesian coordinates
 exchange correlation table for  LEXCH =        8
   RHO(1)=    0.500       N(1)  =     2000
   RHO(2)=  100.500       N(2)  =     4000

 VTST: version 3.2, (02/03/18)

 CHAIN: initializing optimizer
 
 OPT: Using VASP Conjugate-Gradient optimizer
 CHAIN: Read ICHAIN            0
 
 POSCAR: Ag-Zr-COH
  positions in direct lattice
  velocities in cartesian coordinates
 


--------------------------------------------------------------------------------------------------------


 ion  position               nearest neighbor table
   1  0.000  0.000  0.199-   2 2.93   8 2.93   7 2.93   6 2.93   4 2.93  12 2.93  16 2.93  10 2.93
                             3 2.93
   2  0.333  0.000  0.199-   1 2.93   8 2.93   9 2.93   3 2.93   4 2.93   5 2.93  10 2.93  17 2.93
                            11 2.93
   3  0.667  0.000  0.199-   9 2.93   2 2.93   5 2.93  11 2.93   7 2.93  18 2.93   1 2.93   6 2.93
                            12 2.93
   4  0.000  0.333  0.199-   5 2.93   6 2.93   2 2.93   1 2.93   7 2.93  13 2.93  15 2.93   9 2.93
                            10 2.93
   5  0.333  0.333  0.199-   4 2.93   3 2.93   7 2.93   2 2.93   8 2.93  14 2.93  13 2.93  11 2.93
                             6 2.93
   6  0.667  0.333  0.199-   4 2.93   9 2.93   1 2.93  15 2.93   8 2.93  12 2.93   3 2.93   5 2.93
                            14 2.93
   7  0.000  0.667  0.199-   8 2.93   1 2.93   5 2.93   3 2.93   4 2.93  16 2.93  18 2.93  13 2.93
                             9 2.93
   8  0.333  0.667  0.199-   7 2.93   1 2.93   2 2.93   9 2.93   5 2.93  16 2.93   6 2.93  17 2.93
                            14 2.93
   9  0.667  0.667  0.199-   3 2.93   2 2.93   8 2.93   6 2.93  17 2.93   4 2.93  15 2.93   7 2.93
                            18 2.93
  10  0.111  0.111  0.289-  20 2.91  19 2.92  26 2.92  12 2.93  16 2.93  15 2.93  17 2.93  13 2.93
                            11 2.93   2 2.93   1 2.93   4 2.93
  11  0.444  0.111  0.289-  21 2.91  20 2.91  14 2.93  17 2.93  18 2.93   3 2.93  12 2.93  13 2.93
                            10 2.93   5 2.93   2 2.93  27 2.93
  12  0.778  0.111  0.289-  21 2.91  25 2.92  19 2.92  10 2.93  16 2.93  18 2.93  15 2.93  11 2.93
                             1 2.93  14 2.93   6 2.93   3 2.93
  13  0.111  0.444  0.289-  20 2.91  23 2.91  15 2.93  14 2.93  18 2.93  10 2.93  11 2.93  16 2.93
                             4 2.93   5 2.93   7 2.93  22 2.93
  14  0.444  0.444  0.289-  23 2.91  21 2.91  13 2.93  11 2.93  16 2.93   5 2.93  12 2.93  17 2.93
                             8 2.93  15 2.93   6 2.93  24 2.93
  15  0.778  0.444  0.289-  19 2.92  13 2.93  10 2.93  12 2.93  17 2.93  18 2.93   4 2.93   6 2.93
                             9 2.93  14 2.93  24 2.93  22 2.93
  16  0.111  0.778  0.289-  23 2.91  26 2.92  25 2.92  18 2.93  12 2.93  10 2.93  14 2.93  17 2.93
                            13 2.93   7 2.93   8 2.93   1 2.93
  17  0.444  0.778  0.289-  26 2.92  11 2.93  10 2.93   9 2.93  18 2.93  15 2.93  16 2.93   2 2.93
                            14 2.93   8 2.93  27 2.93  24 2.93
  18  0.778  0.778  0.289-  25 2.92  16 2.93  12 2.93  13 2.93  11 2.93  17 2.93  15 2.93   7 2.93
                             3 2.93   9 2.93  22 2.93  27 2.93
  19  0.889  0.222  0.378-  10 2.92  12 2.92  15 2.92  26 2.93  25 2.93  20 2.93  21 2.93  24 2.93
                            22 2.93  28 2.93  32 2.97  31 2.97
  20  0.222  0.222  0.378-  13 2.91  11 2.91  10 2.91  36 2.92  21 2.93  23 2.93  27 2.93  22 2.93
                            19 2.93  26 2.93  31 2.97  29 2.97
  21  0.555  0.222  0.378-  11 2.91  14 2.91  12 2.91  36 2.92  20 2.93  23 2.93  27 2.93  24 2.93
                            25 2.93  19 2.93  30 2.97  32 2.97
  22  0.889  0.556  0.379-  24 2.93  27 2.93  23 2.93  20 2.93  18 2.93  15 2.93  13 2.93  25 2.93
                            19 2.93  35 2.94  33 2.95  31 2.95
  23  0.222  0.555  0.378-  14 2.91  13 2.91  16 2.91  36 2.92  21 2.93  20 2.93  22 2.93  24 2.93
                            26 2.93  25 2.93  34 2.97  33 2.97
  24  0.556  0.556  0.379-  27 2.93  22 2.93  23 2.93  21 2.93  15 2.93  17 2.93  14 2.93  19 2.93
                            26 2.93  35 2.94  32 2.95  34 2.95
  25  0.889  0.889  0.378-  16 2.92  12 2.92  18 2.92  26 2.93  19 2.93  23 2.93  21 2.93  22 2.93
                            27 2.93  28 2.93  33 2.97  30 2.97
  26  0.222  0.889  0.378-  16 2.92  10 2.92  17 2.92  25 2.93  19 2.93  23 2.93  20 2.93  27 2.93
                            24 2.93  28 2.93  34 2.97  29 2.97
  27  0.556  0.889  0.379-  24 2.93  22 2.93  20 2.93  21 2.93  17 2.93  18 2.93  11 2.93  26 2.93
                            25 2.93  35 2.94  29 2.95  30 2.95
  28  0.000  0.000  0.468-  29 2.93  34 2.93  33 2.93  32 2.93  31 2.93  30 2.93  26 2.93  25 2.93
                            19 2.93
  29  0.334  0.000  0.470-  30 2.93  36 2.93  35 2.93  31 2.93  28 2.93  34 2.94  27 2.95  26 2.97
                            20 2.97
  30  0.666  0.000  0.470-  29 2.93  36 2.93  35 2.93  32 2.93  28 2.93  33 2.94  27 2.95  25 2.97
                            21 2.97
  31  0.000  0.334  0.470-  33 2.93  36 2.93  35 2.93  29 2.93  28 2.93  32 2.94  22 2.95  19 2.97
                            20 2.97
  32  0.666  0.334  0.470-  34 2.93  36 2.93  35 2.93  30 2.93  28 2.93  31 2.94  24 2.95  19 2.97
                            21 2.97
  33  0.000  0.666  0.470-  31 2.93  36 2.93  35 2.93  34 2.93  28 2.93  30 2.94  22 2.95  25 2.97
                            23 2.97
  34  0.334  0.666  0.470-  32 2.93  36 2.93  35 2.93  33 2.93  28 2.93  29 2.94  24 2.95  26 2.97
                            23 2.97
  35  0.667  0.667  0.469-  30 2.93  29 2.93  32 2.93  34 2.93  31 2.93  33 2.93  24 2.94  27 2.94
                            22 2.94
  36  0.333  0.333  0.468-  37 2.03  21 2.92  20 2.92  23 2.92  31 2.93  33 2.93  30 2.93  29 2.93
                            34 2.93  32 2.93
  37  0.333  0.333  0.544-  38 1.27  36 2.03
  38  0.333  0.333  0.592-  39 0.96  37 1.27
  39  0.333  0.333  0.628-  38 0.96
 
  LATTYP: Found a hexagonal cell.
 ALAT       =     8.7913665772
 C/A-ratio  =     3.0233954145
  
  Lattice vectors:
  
 A1 = (  -4.3956832886,  -7.6135467898,   0.0000000000)
 A2 = (   8.7913665771,   0.0000000000,   0.0000000000)
 A3 = (   0.0000000000,   0.0000000000,  26.5797773968)


Analysis of symmetry for initial positions (statically):
=====================================================================
 Subroutine PRICEL returns:
 Original cell was already a primitive cell.
 

 Routine SETGRP: Setting up the symmetry group for a 
 hexagonal supercell.


 Subroutine GETGRP returns: Found  6 space group operations
 (whereof  6 operations were pure point group operations)
 out of a pool of 24 trial point group operations.


The static configuration has the point symmetry C_3v.


Analysis of symmetry for dynamics (positions and initial velocities):
=====================================================================
 Subroutine PRICEL returns:
 Original cell was already a primitive cell.
 

 Routine SETGRP: Setting up the symmetry group for a 
 hexagonal supercell.


 Subroutine GETGRP returns: Found  6 space group operations
 (whereof  6 operations were pure point group operations)
 out of a pool of 24 trial point group operations.


The dynamic configuration has the point symmetry C_3v.


Analysis of constrained symmetry for selective dynamics:
=====================================================================
 Subroutine PRICEL returns:
 Original cell was already a primitive cell.
 

 Routine SETGRP: Setting up the symmetry group for a 
 hexagonal supercell.


 Subroutine GETGRP returns: Found  6 space group operations
 (whereof  6 operations were pure point group operations)
 out of a pool of 24 trial point group operations.


The constrained configuration has the point symmetry C_3v.


 Subroutine INISYM returns: Found  6 space group operations
 (whereof  6 operations are pure point group operations),
 and found     1 'primitive' translations


----------------------------------------------------------------------------------------

                                     Primitive cell                                     

  volume of cell :    1779.0770

  direct lattice vectors                    reciprocal lattice vectors
     8.791366577  0.000000000  0.000000000     0.113747958 -0.065672414  0.000000000
     4.395683289  7.613546790  0.000000000     0.000000000  0.131344829  0.000000000
     0.000000000  0.000000000 26.579777397     0.000000000  0.000000000  0.037622587

  length of vectors
     8.791366577  8.791366577 26.579777397     0.131344829  0.131344829  0.037622587

  position of ions in fractional coordinates (direct lattice)
     0.000000000  0.000000000  0.198729585
     0.333333313  0.000000000  0.198729585
     0.666666627  0.000000000  0.198729585
     1.000000000  0.333333343  0.198729585
     0.333333313  0.333333343  0.198729585
     0.666666687  0.333333343  0.198729585
     1.000000000  0.666666687  0.198729585
     0.333333313  0.666666687  0.198729585
     0.666666627  0.666666687  0.198729585
     0.111111104  0.111111112  0.288749421
     0.444444448  0.111111112  0.288749421
     0.777777791  0.111111112  0.288749421
     0.111111097  0.444444448  0.288749421
     0.444444418  0.444444448  0.288749421
     0.777777791  0.444444448  0.288749421
     0.111111104  0.777777791  0.288749421
     0.444444448  0.777777791  0.288749421
     0.777777791  0.777777791  0.288749421
     0.888999251  0.222001514  0.378080741
     0.222276674  0.222276689  0.377823187
     0.555446592  0.222276689  0.377823187
     0.888861266  0.555569397  0.378793075
     0.222276689  0.555446652  0.377823187
     0.555569397  0.555569397  0.378793075
     0.888999251  0.888999251  0.378080741
     0.222001484  0.888999251  0.378080741
     0.555569337  0.888861266  0.378793075
     0.000000000  0.000000000  0.468284241
     0.333557519  0.000155156  0.469662186
     0.666287264  0.000155156  0.469662186
     0.000155156  0.333557549  0.469662186
     0.666287324  0.333557549  0.469662186
     0.000155156  0.666287324  0.469662186
     0.333557519  0.666287324  0.469662186
     0.666666627  0.666666687  0.469361134
     0.333333313  0.333333343  0.467511110
     0.333333313  0.333333343  0.543783827
     0.333333313  0.333333343  0.591701779
     0.333333313  0.333333343  0.627677185

  ion indices of the primitive-cell ions
   primitive index   ion index
                 1           1
                 2           2
                 3           3
                 4           4
                 5           5
                 6           6
                 7           7
                 8           8
                 9           9
                10          10
                11          11
                12          12
                13          13
                14          14
                15          15
                16          16
                17          17
                18          18
                19          19
                20          20
                21          21
                22          22
                23          23
                24          24
                25          25
                26          26
                27          27
                28          28
                29          29
                30          30
                31          31
                32          32
                33          33
                34          34
                35          35
                36          36
                37          37
                38          38
                39          39

----------------------------------------------------------------------------------------

 
 
 KPOINTS: Automatic mesh                          

Automatic generation of k-mesh.
 Grid dimensions read from file:
 generate k-points for:    8    8    1

 Generating k-lattice:

  Cartesian coordinates                     Fractional coordinates (reciprocal lattice)
     0.014218495 -0.008209052  0.000000000     0.125000000 -0.000000000  0.000000000
     0.000000000  0.016418104  0.000000000     0.000000000  0.125000000  0.000000000
     0.000000000  0.000000000  0.037622587     0.000000000  0.000000000  1.000000000

  Length of vectors
     0.016418104  0.016418104  0.037622587

  Shift w.r.t. Gamma in fractional coordinates (k-lattice)
     0.000000000  0.000000000  0.000000000

 TETIRR: Found     36 inequivalent tetrahedra from      384
 
 Subroutine IBZKPT returns following result:
 ===========================================
 
 Found     10 irreducible k-points:
 
 Following reciprocal coordinates:
            Coordinates               Weight
  0.000000  0.000000  0.000000      1.000000
  0.125000 -0.000000  0.000000      6.000000
  0.250000 -0.000000  0.000000      6.000000
  0.375000 -0.000000  0.000000      6.000000
  0.500000 -0.000000  0.000000      3.000000
  0.250000  0.125000  0.000000      6.000000
  0.375000  0.125000  0.000000     12.000000
  0.500000  0.125000  0.000000     12.000000
  0.500000  0.250000  0.000000      6.000000
 -0.375000  0.250000  0.000000      6.000000
 
 Following cartesian coordinates:
            Coordinates               Weight
  0.000000  0.000000  0.000000      1.000000
  0.014218 -0.008209  0.000000      6.000000
  0.028437 -0.016418  0.000000      6.000000
  0.042655 -0.024627  0.000000      6.000000
  0.056874 -0.032836  0.000000      3.000000
  0.028437 -0.000000  0.000000      6.000000
  0.042655 -0.008209  0.000000     12.000000
  0.056874 -0.016418  0.000000     12.000000
  0.056874 -0.000000  0.000000      6.000000
 -0.042655  0.057463  0.000000      6.000000
 


--------------------------------------------------------------------------------------------------------




 Dimension of arrays:
   k-points           NKPTS =     10   k-points in BZ     NKDIM =     10   number of bands    NBANDS=    252
   number of dos      NEDOS =    301   number of ions     NIONS =     39
   non local maximal  LDIM  =      6   non local SUM 2l+1 LMDIM =     18
   total plane-waves  NPLWV = 345600
   max r-space proj   IRMAX =   2658   max aug-charges    IRDMAX=   9750
   dimension x,y,z NGX =    48 NGY =   48 NGZ =  150
   dimension x,y,z NGXF=    96 NGYF=   96 NGZF=  300
   support grid    NGXF=    96 NGYF=   96 NGZF=  300
   ions per type =              35   1   1   1   1
   NGX,Y,Z   is equivalent  to a cutoff of   9.08,  9.08,  9.38 a.u.
   NGXF,Y,Z  is equivalent  to a cutoff of  18.15, 18.15, 18.76 a.u.

 SYSTEM =  unknown system                          
 POSCAR =  Ag-Zr-COH                               

 Startparameter for this run:
   NWRITE =      2    write-flag & timer
   PREC   = normal    normal or accurate (medium, high low for compatibility)
   ISTART =      0    job   : 0-new  1-cont  2-samecut
   ICHARG =     11    charge: 1-file 2-atom 10-const
   ISPIN  =      1    spin polarized calculation?
   LNONCOLLINEAR =      F non collinear calculations
   LSORBIT =      F    spin-orbit coupling
   INIWAV =      1    electr: 0-lowe 1-rand  2-diag
   LASPH  =      F    aspherical Exc in radial PAW
   METAGGA=      F    non-selfconsistent MetaGGA calc.

 Electronic Relaxation 1
   ENCUT  =  500.0 eV  36.75 Ry    6.06 a.u.  16.03 16.03 48.46*2*pi/ulx,y,z
   ENINI  =  500.0     initial cutoff
   ENAUG  =  644.9 eV  augmentation charge cutoff
   NELM   =    150;   NELMIN=  2; NELMDL= -5     # of ELM steps 
   EDIFF  = 0.1E-04   stopping-criterion for ELM
   LREAL  =      T    real-space projection
   NLSPLINE    = F    spline interpolate recip. space projectors
   LCOMPAT=      F    compatible to vasp.4.4
   GGA_COMPAT  = T    GGA compatible to vasp.4.4-vasp.4.6
   LMAXPAW     = -100 max onsite density
   LMAXMIX     =    2 max onsite mixed and CHGCAR
   VOSKOWN=      0    Vosko Wilk Nusair interpolation
   ROPT   =   -0.00050  -0.00050  -0.00050  -0.00050
   ROPT   =   -0.00050
 Ionic relaxation
   EDIFFG = -.1E-01   stopping-criterion for IOM
   NSW    =      0    number of steps for IOM
   NBLOCK =      1;   KBLOCK =      1    inner block; outer block 
   IBRION =     -1    ionic relax: 0-MD 1-quasi-New 2-CG
   NFREE  =      1    steps in history (QN), initial steepest desc. (CG)
   ISIF   =      2    stress and relaxation
   IWAVPR =     10    prediction:  0-non 1-charg 2-wave 3-comb
   ISYM   =      2    0-nonsym 1-usesym 2-fastsym
   LCORR  =      T    Harris-Foulkes like correction to forces

   POTIM  = 0.5000    time-step for ionic-motion
   TEIN   =    0.0    initial temperature
   TEBEG  =    0.0;   TEEND  =   0.0 temperature during run
   SMASS  =  -3.00    Nose mass-parameter (am)
   estimated Nose-frequenzy (Omega)   =  0.10E-29 period in steps = 0.13E+47 mass=  -0.177E-26a.u.
   SCALEE = 1.0000    scale energy and forces
   NPACO  =    256;   APACO  = 16.0  distance and # of slots for P.C.
   PSTRESS=    0.0 pullay stress

  Mass of Ions in am
   POMASS = 107.87 91.22 12.01 16.00  1.00
  Ionic Valenz
   ZVAL   =  11.00 12.00  4.00  6.00  1.00
  Atomic Wigner-Seitz radii
   RWIGS  =  -1.00 -1.00 -1.00 -1.00 -1.00
  virtual crystal weights 
   VCA    =   1.00  1.00  1.00  1.00  1.00
   NELECT =     408.0000    total number of electrons
   NUPDOWN=      -1.0000    fix difference up-down

 DOS related values:
   EMIN   =  10.00;   EMAX   =-10.00  energy-range for DOS
   EFERMI =   0.00
   ISMEAR =    -5;   SIGMA  =   0.10  broadening in eV -4-tet -1-fermi 0-gaus

 Electronic relaxation 2 (details)
   IALGO  =     68    algorithm
   LDIAG  =      T    sub-space diagonalisation (order eigenvalues)
   LSUBROT=      F    optimize rotation matrix (better conditioning)
   TURBO    =      0    0=normal 1=particle mesh
   IRESTART =      0    0=no restart 2=restart with 2 vectors
   NREBOOT  =      0    no. of reboots
   NMIN     =      0    reboot dimension
   EREF     =   0.00    reference energy to select bands
   IMIX   =      4    mixing-type and parameters
     AMIX     =   0.40;   BMIX     =  1.00
     AMIX_MAG =   1.60;   BMIX_MAG =  1.00
     AMIN     =   0.10
     WC   =   100.;   INIMIX=   1;  MIXPRE=   1;  MAXMIX= -45

 Intra band minimization:
   WEIMIN = 0.0000     energy-eigenvalue tresh-hold
   EBREAK =  0.99E-08  absolut break condition
   DEPER  =   0.30     relativ break condition  

   TIME   =   0.40     timestep for ELM

  volume/ion in A,a.u.               =      45.62       307.84
  Fermi-wavevector in a.u.,A,eV,Ry     =   1.002067  1.893632 13.662123  1.004138
  Thomas-Fermi vector in A             =   2.134530
 
 Write flags
   LWAVE        =      F    write WAVECAR
   LDOWNSAMPLE  =      F    k-point downsampling of WAVECAR
   LCHARG       =      F    write CHGCAR
   LVTOT        =      F    write LOCPOT, total local potential
   LVHAR        =      F    write LOCPOT, Hartree potential only
   LELF         =      F    write electronic localiz. function (ELF)
   LORBIT       =     10    0 simple, 1 ext, 2 COOP (PROOUT), +10 PAW based schemes


 Dipole corrections
   LMONO  =      F    monopole corrections only (constant potential shift)
   LDIPOL =      F    correct potential (dipole corrections)
   IDIPOL =      0    1-x, 2-y, 3-z, 4-all directions 
   EPSILON=  1.0000000 bulk dielectric constant

 Exchange correlation treatment:
   GGA     =    --    GGA type
   LEXCH   =     8    internal setting for exchange type
   VOSKOWN=      0    Vosko Wilk Nusair interpolation
   LHFCALC =     F    Hartree Fock is set to
   LHFONE  =     F    Hartree Fock one center treatment
   AEXX    =    0.0000 exact exchange contribution

 Linear response parameters
   LEPSILON=     F    determine dielectric tensor
   LRPA    =     F    only Hartree local field effects (RPA)
   LNABLA  =     F    use nabla operator in PAW spheres
   LVEL    =     F    velocity operator in full k-point grid
   LINTERFAST=   F  fast interpolation
   KINTER  =     0    interpolate to denser k-point grid
   CSHIFT  =0.1000    complex shift for real part using Kramers Kronig
   OMEGAMAX=  -1.0    maximum frequency
   DEG_THRESHOLD= 0.2000000E-02 threshold for treating states as degnerate
   RTIME   =   -0.100 relaxation time in fs
  (WPLASMAI=    0.000 imaginary part of plasma frequency in eV, 0.658/RTIME)
   DFIELD  = 0.0000000 0.0000000 0.0000000 field for delta impulse in time
 
 Orbital magnetization related:
   ORBITALMAG=     F  switch on orbital magnetization
   LCHIMAG   =     F  perturbation theory with respect to B field
   DQ        =  0.001000  dq finite difference perturbation B field
   LLRAUG    =     F  two centre corrections for induced B field



--------------------------------------------------------------------------------------------------------


 Static calculation
 charge density and potential remain constant during run
 non-spin polarized calculation
 RMM-DIIS sequential band-by-band and
  variant of blocked Davidson during initial phase
 perform sub-space diagonalisation
    before iterative eigenvector-optimisation
 no mixing
 using additional bands           48
 real space projection scheme for non local part
 use partial core corrections
 calculate Harris-corrections to forces 
   (improved forces if not selfconsistent)
 use gradient corrections 
 WARNING: stress and forces are not correct
  (second derivative of E(xc) not defined)
 use of overlap-Matrix (Vanderbilt PP)
 Fermi weights with tetrahedron method with Bloechl corrections


--------------------------------------------------------------------------------------------------------


  energy-cutoff  :      500.00
  volume of cell :     1779.08
      direct lattice vectors                 reciprocal lattice vectors
     8.791366577  0.000000000  0.000000000     0.113747958 -0.065672414  0.000000000
     4.395683289  7.613546790  0.000000000     0.000000000  0.131344829  0.000000000
     0.000000000  0.000000000 26.579777397     0.000000000  0.000000000  0.037622587

  length of vectors
     8.791366577  8.791366577 26.579777397     0.131344829  0.131344829  0.037622587


 
 k-points in units of 2pi/SCALE and weight: Automatic mesh                          
   0.00000000  0.00000000  0.00000000       0.016
   0.01421849 -0.00820905  0.00000000       0.094
   0.02843699 -0.01641810  0.00000000       0.094
   0.04265548 -0.02462716  0.00000000       0.094
   0.05687398 -0.03283621  0.00000000       0.047
   0.02843699 -0.00000000  0.00000000       0.094
   0.04265548 -0.00820905  0.00000000       0.188
   0.05687398 -0.01641810  0.00000000       0.188
   0.05687398 -0.00000000  0.00000000       0.094
  -0.04265548  0.05746336  0.00000000       0.094
 
 k-points in reciprocal lattice and weights: Automatic mesh                          
   0.00000000  0.00000000  0.00000000       0.016
   0.12500000 -0.00000000  0.00000000       0.094
   0.25000000 -0.00000000  0.00000000       0.094
   0.37500000 -0.00000000  0.00000000       0.094
   0.50000000 -0.00000000  0.00000000       0.047
   0.25000000  0.12500000  0.00000000       0.094
   0.37500000  0.12500000  0.00000000       0.188
   0.50000000  0.12500000  0.00000000       0.188
   0.50000000  0.25000000  0.00000000       0.094
  -0.37500000  0.25000000  0.00000000       0.094
 
 position of ions in fractional coordinates (direct lattice) 
   0.00000000  0.00000000  0.19872959
   0.33333331  0.00000000  0.19872959
   0.66666663  0.00000000  0.19872959
   0.00000000  0.33333334  0.19872959
   0.33333331  0.33333334  0.19872959
   0.66666669  0.33333334  0.19872959
   0.00000000  0.66666669  0.19872959
   0.33333331  0.66666669  0.19872959
   0.66666663  0.66666669  0.19872959
   0.11111110  0.11111111  0.28874942
   0.44444445  0.11111111  0.28874942
   0.77777779  0.11111111  0.28874942
   0.11111110  0.44444445  0.28874942
   0.44444442  0.44444445  0.28874942
   0.77777779  0.44444445  0.28874942
   0.11111110  0.77777779  0.28874942
   0.44444445  0.77777779  0.28874942
   0.77777779  0.77777779  0.28874942
   0.88899925  0.22200151  0.37808074
   0.22227667  0.22227669  0.37782319
   0.55544659  0.22227669  0.37782319
   0.88886127  0.55556940  0.37879308
   0.22227669  0.55544665  0.37782319
   0.55556940  0.55556940  0.37879308
   0.88899925  0.88899925  0.37808074
   0.22200148  0.88899925  0.37808074
   0.55556934  0.88886127  0.37879308
   0.00000000  0.00000000  0.46828424
   0.33355752  0.00015516  0.46966219
   0.66628726  0.00015516  0.46966219
   0.00015516  0.33355755  0.46966219
   0.66628732  0.33355755  0.46966219
   0.00015516  0.66628732  0.46966219
   0.33355752  0.66628732  0.46966219
   0.66666663  0.66666669  0.46936113
   0.33333331  0.33333334  0.46751111
   0.33333331  0.33333334  0.54378383
   0.33333331  0.33333334  0.59170178
   0.33333331  0.33333334  0.62767719
 
 position of ions in cartesian coordinates  (Angst):
   0.00000000  0.00000000  5.28218814
   2.93045535  0.00000000  5.28218814
   5.86091070  0.00000000  5.28218814
   1.46522781  2.53784900  5.28218814
   4.39568315  2.53784900  5.28218814
   7.32613904  2.53784900  5.28218814
   2.93045562  5.07569801  5.28218814
   5.86091096  5.07569801  5.28218814
   8.79136632  5.07569801  5.28218814
   1.46522770  0.84594965  7.67489535
   4.39568332  0.84594965  7.67489535
   7.32613893  0.84594965  7.67489535
   2.93045542  3.38379860  7.67489535
   5.86091083  3.38379860  7.67489535
   8.79136671  3.38379860  7.67489535
   4.39568328  5.92164760  7.67489535
   7.32613890  5.92164760  7.67489535
  10.25659451  5.92164760  7.67489535
   8.79136665  1.69021891 10.04930193
   2.93117365  1.69231397 10.04245621
   5.86019253  1.69231397 10.04245621
  10.25641234  4.22985360 10.06823562
   4.39568342  4.22891908 10.04245621
   7.32632134  4.22985360 10.06823562
  11.72327746  6.76843739 10.04930193
   5.85945558  6.76843739 10.04930193
   8.79136631  6.76738684 10.06823562
   0.00000000  0.00000000 12.44689088
   2.93310845  0.00118129 12.48351635
   5.85825760  0.00118129 12.48351635
   1.46757738  2.53955601 12.48351635
   7.32378946  2.53955601 12.48351635
   2.93015209  5.07280972 12.48351635
   5.86121449  5.07280972 12.48351635
   8.79136632  5.07569801 12.47551447
   4.39568315  2.53784900 12.42634123
   4.39568315  2.53784900 14.45365308
   4.39568315  2.53784900 15.72730156
   4.39568315  2.53784900 16.68351986
 


--------------------------------------------------------------------------------------------------------


 k-point   1 :   0.0000 0.0000 0.0000  plane waves:   44983
 k-point   2 :   0.1250-0.0000 0.0000  plane waves:   45042
 k-point   3 :   0.2500-0.0000 0.0000  plane waves:   45130
 k-point   4 :   0.3750-0.0000 0.0000  plane waves:   45154
 k-point   5 :   0.5000-0.0000 0.0000  plane waves:   45200
 k-point   6 :   0.2500 0.1250 0.0000  plane waves:   45136
 k-point   7 :   0.3750 0.1250 0.0000  plane waves:   45202
 k-point   8 :   0.5000 0.1250 0.0000  plane waves:   45204
 k-point   9 :   0.5000 0.2500 0.0000  plane waves:   45196
 k-point  10 :  -0.3750 0.2500 0.0000  plane waves:   45180

 maximum and minimum number of plane-waves per node :     45204    44983

 maximum number of plane-waves:     45204
 maximum index in each direction: 
   IXMAX=   16   IYMAX=   16   IZMAX=   48
   IXMIN=  -16   IYMIN=  -16   IZMIN=  -48


 serial   3D FFT for wavefunctions
 parallel 3D FFT for charge:
    minimum data exchange during FFTs selected (reduces bandwidth)


 total amount of memory used by VASP MPI-rank0   140129. kBytes
=======================================================================

   base      :      30000. kBytes
   nonlr-proj:      15163. kBytes
   fftplans  :       5150. kBytes
   grid      :      23126. kBytes
   one-center:        606. kBytes
   wavefun   :      66084. kBytes
 
     INWAV:  cpu time    0.0000: real time    0.0000
 initial charge density was supplied:
 number of electron     408.0000361 magnetization 
 keeping initial charge density in first step


--------------------------------------------------------------------------------------------------------


 Maximum index for non-local projection operator         2525
 Maximum index for augmentation-charges          698 (set IRDMAX)


--------------------------------------------------------------------------------------------------------


 First call to EWALD:  gamma=   0.146
 Maximum number of real-space cells 4x 4x 2
 Maximum number of reciprocal cells 2x 2x 5

    FEWALD:  cpu time    0.0013: real time    0.0013


--------------------------------------- Iteration      1(   1)  ---------------------------------------


    POTLOK:  cpu time    0.0623: real time    0.0625
    SETDIJ:  cpu time    0.0047: real time    0.0048
     EDDAV:  cpu time    8.3240: real time    8.3255
 BZINTS: Fermi energy:    9.125756;  407.977703 electrons
         Band energy: 0.865650E+03;  BLOECHL correction:   -0.028610
 WARNING: Fermi level nearly degenerate with energies of tetrahedron. This may
     result in numerical instabilities because the density changes by tiny
     changes of the Fermi energy. If the calculation converges, the total
     energy will still be reliable. If you notice convergence issues, you can
     try to
     *) Use a Gamma centered k-point grid
     *) Use tetrahedron method without corrections ISMEAR = -4
     *) Don't use tetrahedron method
        ISMEAR = 0 for semiconductors, 1 or 2 for metals

       DOS:  cpu time    0.0087: real time    0.0088
    --------------------------------------------
      LOOP:  cpu time    8.3998: real time    8.4016

 eigenvalue-minimisations  :  5040
 total energy-change (2. order) : 0.2546175E+04  (-0.1834452E+05)
 number of electron     408.0000361 magnetization 
 augmentation part      408.0000361 magnetization 

 Free energy of the ion-electron system (eV)
  ---------------------------------------------------
  alpha Z        PSCENC =       656.63340713
  Ewald energy   TEWEN  =    164134.96152863
  -Hartree energ DENC   =   -202546.67300189
  -exchange      EXHF   =         0.00000000
  -V(xc)+E(xc)   XCENC  =      -295.85642998
  PAW double counting   =     40786.68172255   -39235.81501004
  entropy T*S    EENTRO =         0.00000000
  eigenvalues    EBANDS =       865.85314412
  atomic energy  EATOM  =     38180.38915477
  Solvation  Ediel_sol  =         0.00000000
  ---------------------------------------------------
  free energy    TOTEN  =      2546.17451530 eV

  energy without entropy =     2546.17451530  energy(sigma->0) =     2546.17451530


--------------------------------------------------------------------------------------------------------




--------------------------------------- Iteration      1(   2)  ---------------------------------------


     EDDAV:  cpu time    8.8231: real time    8.8233
 BZINTS: Fermi energy:    1.156159;  408.000000 electrons
         Band energy:-0.167732E+04;  BLOECHL correction:   -0.034577
       DOS:  cpu time    0.0100: real time    0.0100
    --------------------------------------------
      LOOP:  cpu time    8.8331: real time    8.8333

 eigenvalue-minimisations  :  5404
 total energy-change (2. order) :-0.2543177E+04  (-0.2425889E+04)
 number of electron     408.0000361 magnetization 
 augmentation part      408.0000361 magnetization 

 Free energy of the ion-electron system (eV)
  ---------------------------------------------------
  alpha Z        PSCENC =       656.63340713
  Ewald energy   TEWEN  =    164134.96152863
  -Hartree energ DENC   =   -202546.67300189
  -exchange      EXHF   =         0.00000000
  -V(xc)+E(xc)   XCENC  =      -295.85642998
  PAW double counting   =     40786.68172255   -39235.81501004
  entropy T*S    EENTRO =         0.00000000
  eigenvalues    EBANDS =     -1677.32389801
  atomic energy  EATOM  =     38180.38915477
  Solvation  Ediel_sol  =         0.00000000
  ---------------------------------------------------
  free energy    TOTEN  =         2.99747316 eV

  energy without entropy =        2.99747316  energy(sigma->0) =        2.99747316


--------------------------------------------------------------------------------------------------------




--------------------------------------- Iteration      1(   3)  ---------------------------------------


     EDDAV:  cpu time   10.2279: real time   10.2279
 BZINTS: Fermi energy:    0.481036;  408.000000 electrons
         Band energy:-0.179081E+04;  BLOECHL correction:   -0.030723
       DOS:  cpu time    0.0095: real time    0.0095
    --------------------------------------------
      LOOP:  cpu time   10.2373: real time   10.2373

 eigenvalue-minimisations  :  6468
 total energy-change (2. order) :-0.1134859E+03  (-0.1114051E+03)
 number of electron     408.0000361 magnetization 
 augmentation part      408.0000361 magnetization 

 Free energy of the ion-electron system (eV)
  ---------------------------------------------------
  alpha Z        PSCENC =       656.63340713
  Ewald energy   TEWEN  =    164134.96152863
  -Hartree energ DENC   =   -202546.67300189
  -exchange      EXHF   =         0.00000000
  -V(xc)+E(xc)   XCENC  =      -295.85642998
  PAW double counting   =     40786.68172255   -39235.81501004
  entropy T*S    EENTRO =         0.00000000
  eigenvalues    EBANDS =     -1790.80983932
  atomic energy  EATOM  =     38180.38915477
  Solvation  Ediel_sol  =         0.00000000
  ---------------------------------------------------
  free energy    TOTEN  =      -110.48846815 eV

  energy without entropy =     -110.48846815  energy(sigma->0) =     -110.48846815


--------------------------------------------------------------------------------------------------------




--------------------------------------- Iteration      1(   4)  ---------------------------------------


     EDDAV:  cpu time   11.6907: real time   11.6907
 BZINTS: Fermi energy:    0.450606;  408.000000 electrons
         Band energy:-0.179438E+04;  BLOECHL correction:   -0.037812
       DOS:  cpu time    0.0098: real time    0.0098
    --------------------------------------------
      LOOP:  cpu time   11.7006: real time   11.7006

 eigenvalue-minimisations  :  7616
 total energy-change (2. order) :-0.3567871E+01  (-0.3538813E+01)
 number of electron     408.0000361 magnetization 
 augmentation part      408.0000361 magnetization 

 Free energy of the ion-electron system (eV)
  ---------------------------------------------------
  alpha Z        PSCENC =       656.63340713
  Ewald energy   TEWEN  =    164134.96152863
  -Hartree energ DENC   =   -202546.67300189
  -exchange      EXHF   =         0.00000000
  -V(xc)+E(xc)   XCENC  =      -295.85642998
  PAW double counting   =     40786.68172255   -39235.81501004
  entropy T*S    EENTRO =         0.00000000
  eigenvalues    EBANDS =     -1794.37771003
  atomic energy  EATOM  =     38180.38915477
  Solvation  Ediel_sol  =         0.00000000
  ---------------------------------------------------
  free energy    TOTEN  =      -114.05633886 eV

  energy without entropy =     -114.05633886  energy(sigma->0) =     -114.05633886


--------------------------------------------------------------------------------------------------------




--------------------------------------- Iteration      1(   5)  ---------------------------------------


     EDDAV:  cpu time    9.4958: real time    9.4958
 BZINTS: Fermi energy:    0.449307;  408.000000 electrons
         Band energy:-0.179444E+04;  BLOECHL correction:   -0.037817
       DOS:  cpu time    0.0096: real time    0.0096
    --------------------------------------------
      LOOP:  cpu time    9.5054: real time    9.5054

 eigenvalue-minimisations  :  5936
 total energy-change (2. order) :-0.6361378E-01  (-0.6361480E-01)
 number of electron     408.0000361 magnetization 
 augmentation part      408.0000361 magnetization 

 Free energy of the ion-electron system (eV)
  ---------------------------------------------------
  alpha Z        PSCENC =       656.63340713
  Ewald energy   TEWEN  =    164134.96152863
  -Hartree energ DENC   =   -202546.67300189
  -exchange      EXHF   =         0.00000000
  -V(xc)+E(xc)   XCENC  =      -295.85642998
  PAW double counting   =     40786.68172255   -39235.81501004
  entropy T*S    EENTRO =         0.00000000
  eigenvalues    EBANDS =     -1794.44132381
  atomic energy  EATOM  =     38180.38915477
  Solvation  Ediel_sol  =         0.00000000
  ---------------------------------------------------
  free energy    TOTEN  =      -114.11995264 eV

  energy without entropy =     -114.11995264  energy(sigma->0) =     -114.11995264


--------------------------------------------------------------------------------------------------------




--------------------------------------- Iteration      1(   6)  ---------------------------------------


    EDDIAG:  cpu time    1.6854: real time    1.6887
  RMM-DIIS:  cpu time    6.3020: real time    6.3020
    ORTHCH:  cpu time    0.3007: real time    0.3007
 BZINTS: Fermi energy:    0.449289;  408.000000 electrons
         Band energy:-0.179444E+04;  BLOECHL correction:   -0.037817
       DOS:  cpu time    0.0100: real time    0.0100
    --------------------------------------------
      LOOP:  cpu time    8.2981: real time    8.3014

 eigenvalue-minimisations  :  6611
 total energy-change (2. order) :-0.1253199E-02  (-0.1252758E-02)
 number of electron     408.0000361 magnetization 
 augmentation part      408.0000361 magnetization 

 Free energy of the ion-electron system (eV)
  ---------------------------------------------------
  alpha Z        PSCENC =       656.63340713
  Ewald energy   TEWEN  =    164134.96152863
  -Hartree energ DENC   =   -202546.67300189
  -exchange      EXHF   =         0.00000000
  -V(xc)+E(xc)   XCENC  =      -295.85642998
  PAW double counting   =     40786.68172255   -39235.81501004
  entropy T*S    EENTRO =         0.00000000
  eigenvalues    EBANDS =     -1794.44257701
  atomic energy  EATOM  =     38180.38915477
  Solvation  Ediel_sol  =         0.00000000
  ---------------------------------------------------
  free energy    TOTEN  =      -114.12120584 eV

  energy without entropy =     -114.12120584  energy(sigma->0) =     -114.12120584


--------------------------------------------------------------------------------------------------------




--------------------------------------- Iteration      1(   7)  ---------------------------------------


    EDDIAG:  cpu time    1.6813: real time    1.6814
  RMM-DIIS:  cpu time    9.3171: real time    9.3171
    ORTHCH:  cpu time    0.3009: real time    0.3009
 BZINTS: Fermi energy:    0.449280;  408.000000 electrons
         Band energy:-0.179444E+04;  BLOECHL correction:   -0.037818
       DOS:  cpu time    0.0096: real time    0.0096
    --------------------------------------------
      LOOP:  cpu time   11.3089: real time   11.3090

 eigenvalue-minimisations  :  9698
 total energy-change (2. order) :-0.1126878E-02  (-0.1103501E-02)
 number of electron     408.0000361 magnetization 
 augmentation part      408.0000361 magnetization 

 Free energy of the ion-electron system (eV)
  ---------------------------------------------------
  alpha Z        PSCENC =       656.63340713
  Ewald energy   TEWEN  =    164134.96152863
  -Hartree energ DENC   =   -202546.67300189
  -exchange      EXHF   =         0.00000000
  -V(xc)+E(xc)   XCENC  =      -295.85642998
  PAW double counting   =     40786.68172255   -39235.81501004
  entropy T*S    EENTRO =         0.00000000
  eigenvalues    EBANDS =     -1794.44370389
  atomic energy  EATOM  =     38180.38915477
  Solvation  Ediel_sol  =         0.00000000
  ---------------------------------------------------
  free energy    TOTEN  =      -114.12233272 eV

  energy without entropy =     -114.12233272  energy(sigma->0) =     -114.12233272


--------------------------------------------------------------------------------------------------------




--------------------------------------- Iteration      1(   8)  ---------------------------------------


    EDDIAG:  cpu time    1.6824: real time    1.6825
  RMM-DIIS:  cpu time    7.2805: real time    7.2804
    ORTHCH:  cpu time    0.3002: real time    0.3002
 BZINTS: Fermi energy:    0.449278;  408.000000 electrons
         Band energy:-0.179444E+04;  BLOECHL correction:   -0.037818
       DOS:  cpu time    0.0094: real time    0.0094
    --------------------------------------------
      LOOP:  cpu time    9.2725: real time    9.2726

 eigenvalue-minimisations  :  7220
 total energy-change (2. order) :-0.1403689E-03  (-0.1357989E-03)
 number of electron     408.0000361 magnetization 
 augmentation part      408.0000361 magnetization 

 Free energy of the ion-electron system (eV)
  ---------------------------------------------------
  alpha Z        PSCENC =       656.63340713
  Ewald energy   TEWEN  =    164134.96152863
  -Hartree energ DENC   =   -202546.67300189
  -exchange      EXHF   =         0.00000000
  -V(xc)+E(xc)   XCENC  =      -295.85642998
  PAW double counting   =     40786.68172255   -39235.81501004
  entropy T*S    EENTRO =         0.00000000
  eigenvalues    EBANDS =     -1794.44384426
  atomic energy  EATOM  =     38180.38915477
  Solvation  Ediel_sol  =         0.00000000
  ---------------------------------------------------
  free energy    TOTEN  =      -114.12247309 eV

  energy without entropy =     -114.12247309  energy(sigma->0) =     -114.12247309


--------------------------------------------------------------------------------------------------------




--------------------------------------- Iteration      1(   9)  ---------------------------------------


    EDDIAG:  cpu time    1.6820: real time    1.6821
  RMM-DIIS:  cpu time    6.3884: real time    6.3884
    ORTHCH:  cpu time    0.3008: real time    0.3008
 BZINTS: Fermi energy:    0.449277;  408.000000 electrons
         Band energy:-0.179444E+04;  BLOECHL correction:   -0.037818
       DOS:  cpu time    0.0098: real time    0.0098
    --------------------------------------------
      LOOP:  cpu time    8.3810: real time    8.3811

 eigenvalue-minimisations  :  6095
 total energy-change (2. order) :-0.4763997E-04  (-0.4404045E-04)
 number of electron     408.0000361 magnetization 
 augmentation part      408.0000361 magnetization 

 Free energy of the ion-electron system (eV)
  ---------------------------------------------------
  alpha Z        PSCENC =       656.63340713
  Ewald energy   TEWEN  =    164134.96152863
  -Hartree energ DENC   =   -202546.67300189
  -exchange      EXHF   =         0.00000000
  -V(xc)+E(xc)   XCENC  =      -295.85642998
  PAW double counting   =     40786.68172255   -39235.81501004
  entropy T*S    EENTRO =         0.00000000
  eigenvalues    EBANDS =     -1794.44389190
  atomic energy  EATOM  =     38180.38915477
  Solvation  Ediel_sol  =         0.00000000
  ---------------------------------------------------
  free energy    TOTEN  =      -114.12252073 eV

  energy without entropy =     -114.12252073  energy(sigma->0) =     -114.12252073


--------------------------------------------------------------------------------------------------------




--------------------------------------- Iteration      1(  10)  ---------------------------------------


    EDDIAG:  cpu time    1.6846: real time    1.6849
  RMM-DIIS:  cpu time    5.8348: real time    5.8348
    ORTHCH:  cpu time    0.3003: real time    0.3003
 BZINTS: Fermi energy:    0.449276;  408.000000 electrons
         Band energy:-0.179444E+04;  BLOECHL correction:   -0.037819
       DOS:  cpu time    0.0100: real time    0.0100
    --------------------------------------------
      LOOP:  cpu time    7.8298: real time    7.8300

 eigenvalue-minimisations  :  5636
 total energy-change (2. order) :-0.2085141E-04  (-0.2018364E-04)
 number of electron     408.0000361 magnetization 
 augmentation part      408.0000361 magnetization 

 Free energy of the ion-electron system (eV)
  ---------------------------------------------------
  alpha Z        PSCENC =       656.63340713
  Ewald energy   TEWEN  =    164134.96152863
  -Hartree energ DENC   =   -202546.67300189
  -exchange      EXHF   =         0.00000000
  -V(xc)+E(xc)   XCENC  =      -295.85642998
  PAW double counting   =     40786.68172255   -39235.81501004
  entropy T*S    EENTRO =         0.00000000
  eigenvalues    EBANDS =     -1794.44391275
  atomic energy  EATOM  =     38180.38915477
  Solvation  Ediel_sol  =         0.00000000
  ---------------------------------------------------
  free energy    TOTEN  =      -114.12254158 eV

  energy without entropy =     -114.12254158  energy(sigma->0) =     -114.12254158


--------------------------------------------------------------------------------------------------------




--------------------------------------- Iteration      1(  11)  ---------------------------------------


    EDDIAG:  cpu time    1.6847: real time    1.6847
  RMM-DIIS:  cpu time    5.2920: real time    5.2920
    ORTHCH:  cpu time    0.3002: real time    0.3002
 BZINTS: Fermi energy:    0.449276;  408.000000 electrons
         Band energy:-0.179444E+04;  BLOECHL correction:   -0.037819
       DOS:  cpu time    0.0101: real time    0.0101
    --------------------------------------------
      LOOP:  cpu time    7.2869: real time    7.2870

 eigenvalue-minimisations  :  4913
 total energy-change (2. order) :-0.9263633E-05  (-0.9801457E-05)
 number of electron     408.0000361 magnetization 
 augmentation part      408.0000361 magnetization 

 Free energy of the ion-electron system (eV)
  ---------------------------------------------------
  alpha Z        PSCENC =       656.63340713
  Ewald energy   TEWEN  =    164134.96152863
  -Hartree energ DENC   =   -202546.67300189
  -exchange      EXHF   =         0.00000000
  -V(xc)+E(xc)   XCENC  =      -295.85642998
  PAW double counting   =     40786.68172255   -39235.81501004
  entropy T*S    EENTRO =         0.00000000
  eigenvalues    EBANDS =     -1794.44392202
  atomic energy  EATOM  =     38180.38915477
  Solvation  Ediel_sol  =         0.00000000
  ---------------------------------------------------
  free energy    TOTEN  =      -114.12255084 eV

  energy without entropy =     -114.12255084  energy(sigma->0) =     -114.12255084


--------------------------------------------------------------------------------------------------------




 average (electrostatic) potential at core
  the test charge radii are     1.1249  1.0638  0.6991  0.7215  0.5201
  (the norm of the test charge is              1.0000)
       1 -78.4649       2 -78.4534       3 -78.4533       4 -78.4534       5 -78.4353
       6 -78.4531       7 -78.4533       8 -78.4531       9 -78.4628      10 -78.7035
      11 -78.6819      12 -78.7034      13 -78.6819      14 -78.6818      15 -78.6826
      16 -78.7034      17 -78.6825      18 -78.6826      19 -78.6918      20 -78.8720
      21 -78.8721      22 -78.6542      23 -78.8721      24 -78.6544      25 -78.6917
      26 -78.6918      27 -78.6541      28 -78.4956      29 -78.5799      30 -78.5799
      31 -78.5799      32 -78.5798      33 -78.5799      34 -78.5798      35 -78.4755
      36 -83.1888      37 -56.0204      38 -78.4080      39 -42.9565
 
 
 
 E-fermi :   0.4493     XC(G=0):  -5.1163     alpha+bet : -4.8382

 Fermi energy:         0.4492755925

 k-point     1 :       0.0000    0.0000    0.0000
  band No.  band energies     occupation 
      1     -48.3064      2.00000
      2     -26.4787      2.00000
      3     -26.4787      2.00000
      4     -26.3145      2.00000
      5     -23.3570      2.00000
      6     -14.0889      2.00000
      7      -6.7185      2.00000
      8      -6.0990      2.00000
      9      -6.0989      2.00000
     10      -5.9895      2.00000
     11      -5.7230      2.00000
     12      -5.5469      2.00000
     13      -5.4331      2.00000
     14      -5.4331      2.00000
     15      -5.4214      2.00000
     16      -5.4212      2.00000
     17      -5.4212      2.00000
     18      -5.4120      2.00000
     19      -5.4023      2.00000
     20      -5.3885      2.00000
     21      -5.3828      2.00000
     22      -5.3828      2.00000
     23      -5.3724      2.00000
     24      -5.3724      2.00000
     25      -5.3147      2.00000
     26      -5.2245      2.00000
     27      -5.2245      2.00000
     28      -5.2165      2.00000
     29      -5.2023      2.00000
[...]
  0.000   0.000   0.000   0.000   0.000   0.000   0.000   0.000   0.000   0.000   1.000   0.000   0.000   0.000   0.000   0.000
  0.000   0.000   0.000   0.000   0.000   0.000   0.000   0.000   0.000   0.000   0.000   0.000   0.000   0.000   0.000   0.000
  0.000   0.000   0.000   0.000   0.000   0.000   0.000   0.000   0.000   0.000   0.000   0.000   0.000   0.000   0.000   0.000
  0.000   0.000   0.000   0.000   0.000   0.000   0.000   0.000   0.000   0.000   0.000   0.000   0.000   0.000   0.000   0.000
  0.000   0.000   0.000   0.000   0.000   0.000   0.000   0.000   0.000   0.000   0.000   0.000   0.000   0.000   0.000   0.000
  0.000   0.000   0.000   0.000   0.000   0.000   0.000   0.000   0.000   0.000   0.000   0.000   0.000   0.000   0.000   0.000
  0.000   0.000   0.000   0.000   0.000   0.000   0.000   0.000   0.000   0.000   0.000   0.000   0.000   0.000   0.000   0.000
  0.000   0.000   0.000   0.000   0.000   0.000   0.000   0.000   0.000   0.000   0.000   0.000   0.000   0.000   0.000   0.000


------------------------ aborting loop because EDIFF is reached ----------------------------------------





 total charge

# of ion       s       p       d       tot
------------------------------------------
    1        0.418   0.201   9.179   9.797
    2        0.415   0.204   9.177   9.796
    3        0.415   0.204   9.177   9.796
    4        0.415   0.204   9.177   9.796
    5        0.423   0.202   9.174   9.799
    6        0.415   0.204   9.177   9.796
    7        0.415   0.204   9.177   9.796
    8        0.415   0.204   9.177   9.796
    9        0.415   0.202   9.179   9.796
   10        0.409   0.270   9.162   9.841
   11        0.410   0.265   9.168   9.843
   12        0.409   0.270   9.162   9.841
   13        0.410   0.265   9.168   9.843
   14        0.410   0.265   9.168   9.843
   15        0.403   0.269   9.163   9.836
   16        0.409   0.270   9.162   9.841
   17        0.403   0.269   9.163   9.836
   18        0.403   0.269   9.163   9.836
   19        0.403   0.267   9.164   9.834
   20        0.438   0.288   9.143   9.868
   21        0.438   0.288   9.143   9.868
   22        0.395   0.271   9.165   9.831
   23        0.438   0.288   9.143   9.868
   24        0.395   0.271   9.165   9.831
   25        0.403   0.267   9.164   9.834
   26        0.403   0.267   9.164   9.834
   27        0.395   0.271   9.165   9.831
   28        0.409   0.206   9.176   9.790
   29        0.444   0.216   9.156   9.816
   30        0.444   0.216   9.156   9.816
   31        0.444   0.216   9.156   9.816
   32        0.444   0.216   9.156   9.816
   33        0.444   0.216   9.156   9.816
   34        0.444   0.216   9.156   9.816
   35        0.409   0.205   9.177   9.792
   36        2.194   5.985   1.685   9.864
   37        0.940   1.391   0.000   2.331
   38        1.523   3.751   0.000   5.275
   39        0.569   0.138   0.000   0.707
--------------------------------------------------
tot         19.826  19.690 322.466 361.982
 
    CHARGE:  cpu time    0.4456: real time    0.4457
    FORLOC:  cpu time    0.0142: real time    0.0142
    FORNL :  cpu time    1.7471: real time    1.7473
    STRESS:  cpu time    5.2350: real time    5.2352
    FORCOR:  cpu time    0.0691: real time    0.0691
    FORHAR:  cpu time    0.0222: real time    0.0224
    OFIELD:  cpu time    0.0003: real time    0.0003

  FORCE on cell =-STRESS in cart. coord.  units (eV):
  Direction    XX          YY          ZZ          XY          YZ          ZX
  --------------------------------------------------------------------------------------
  Alpha Z   656.63341   656.63341   656.63341
  Ewald  187003.50879187003.50890************     0.00004     0.00000     0.00006
  Hartree197287.69589197287.69593************     0.00002     0.00000     0.00001
  E(xc)   -2128.07559 -2128.07565 -2131.87466     0.00006     0.00000     0.00001
  Local  ************************395305.42387     0.00065    -0.00008    -0.00020
  n-local  -359.00490  -342.74491  -355.58952     9.98191    -0.45614     0.57094
  augment  3228.17954  3228.17984  3241.71691    -0.00027    -0.00003    -0.00004
  Kinetic  5201.16459  5202.11420  5191.26705     3.87598     0.73145    -0.14900
  Fock        0.00000     0.00000     0.00000     0.00000     0.00000     0.00000
  -------------------------------------------------------------------------------------
  Total      -6.65114    -6.65114     0.45058    -0.00000     0.00000    -0.00000
  in kB      -5.98980    -5.98980     0.40577    -0.00000     0.00000    -0.00000
  external pressure =       -3.86 kB  Pullay stress =        0.00 kB


 VOLUME and BASIS-vectors are now :
 -----------------------------------------------------------------------------
  energy-cutoff  :      500.00
  volume of cell :     1779.08
      direct lattice vectors                 reciprocal lattice vectors
     8.791366577  0.000000000  0.000000000     0.113747958 -0.065672414  0.000000000
     4.395683289  7.613546790  0.000000000     0.000000000  0.131344829  0.000000000
     0.000000000  0.000000000 26.579777397     0.000000000  0.000000000  0.037622587

  length of vectors
     8.791366577  8.791366577 26.579777397     0.131344829  0.131344829  0.037622587


 FORCES acting on ions
    electron-ion (+dipol)            ewald-force                    non-local-force                 convergence-correction
 -----------------------------------------------------------------------------------------------
   0.456E-04 -.284E-04 0.286E+04   -.953E-04 0.593E-04 -.286E+04   -.323E-17 -.375E-18 -.192E+01   -.914E-04 -.161E-03 0.734E-02
   -.101E+00 0.469E+00 0.286E+04   0.192E-01 -.581E+00 -.286E+04   0.108E+00 0.193E+00 -.150E+01   -.226E-01 -.754E-01 0.441E-01
   0.101E+00 0.469E+00 0.286E+04   -.191E-01 -.581E+00 -.286E+04   -.108E+00 0.193E+00 -.150E+01   0.220E-01 -.735E-01 0.448E-01
   0.356E+00 -.322E+00 0.286E+04   -.494E+00 0.307E+00 -.286E+04   0.221E+00 -.326E-02 -.150E+01   -.763E-01 0.183E-01 0.440E-01
   -.447E-05 -.183E-04 0.286E+04   0.981E-04 -.201E-05 -.286E+04   0.328E-17 0.158E-18 -.910E+00   0.616E-02 0.374E-02 0.193E+00
   -.356E+00 -.322E+00 0.286E+04   0.494E+00 0.307E+00 -.286E+04   -.221E+00 -.326E-02 -.150E+01   0.750E-01 0.192E-01 0.447E-01
   0.456E+00 -.147E+00 0.286E+04   -.513E+00 0.274E+00 -.286E+04   0.113E+00 -.190E+00 -.150E+01   -.522E-01 0.564E-01 0.447E-01
   -.456E+00 -.147E+00 0.286E+04   0.513E+00 0.274E+00 -.286E+04   -.113E+00 -.190E+00 -.150E+01   0.538E-01 0.554E-01 0.447E-01
   0.371E-04 -.126E-04 0.286E+04   0.792E-04 -.643E-04 -.286E+04   -.170E-17 0.132E-17 -.182E+01   -.660E-02 -.336E-02 0.637E-02
   0.184E+01 0.106E+01 0.102E+04   -.154E+01 -.888E+00 -.102E+04   -.259E+00 -.150E+00 -.685E+00   -.653E-01 -.380E-01 0.157E+00
   -.282E-04 0.553E+01 0.102E+04   0.410E-04 -.553E+01 -.102E+04   0.734E-12 0.112E+00 -.140E+00   0.619E-02 -.128E+00 0.131E+00
   -.184E+01 0.106E+01 0.102E+04   0.154E+01 -.888E+00 -.102E+04   0.259E+00 -.150E+00 -.685E+00   0.642E-01 -.375E-01 0.156E+00
   0.479E+01 -.276E+01 0.102E+04   -.479E+01 0.276E+01 -.102E+04   0.968E-01 -.559E-01 -.140E+00   -.108E+00 0.694E-01 0.131E+00
   -.479E+01 -.276E+01 0.102E+04   0.479E+01 0.276E+01 -.102E+04   -.968E-01 -.559E-01 -.140E+00   0.118E+00 0.682E-01 0.129E+00
   0.149E-04 -.315E+01 0.102E+04   -.109E-03 0.303E+01 -.102E+04   0.572E-12 0.871E-01 -.776E+00   -.122E-02 0.265E-01 0.120E+00
   -.708E-05 -.212E+01 0.102E+04   0.208E-04 0.178E+01 -.102E+04   0.196E-11 0.299E+00 -.685E+00   -.387E-03 0.743E-01 0.155E+00
   -.273E+01 0.157E+01 0.102E+04   0.262E+01 -.151E+01 -.102E+04   0.755E-01 -.436E-01 -.776E+00   0.223E-01 -.140E-01 0.120E+00
   0.273E+01 0.157E+01 0.102E+04   -.262E+01 -.151E+01 -.102E+04   -.755E-01 -.436E-01 -.776E+00   -.220E-01 -.125E-01 0.121E+00
   0.401E-04 -.183E+01 -.845E+03   -.130E-03 0.190E+01 0.845E+03   0.392E-12 0.597E-01 0.889E+00   0.927E-03 -.107E+00 -.882E-01
   0.207E+02 0.119E+02 -.815E+03   -.196E+02 -.113E+02 0.815E+03   -.101E+01 -.583E+00 -.776E+00   -.239E+00 -.139E+00 -.128E+00
   -.207E+02 0.119E+02 -.815E+03   0.196E+02 -.113E+02 0.815E+03   0.101E+01 -.583E+00 -.776E+00   0.228E+00 -.140E+00 -.128E+00
   0.985E+01 -.568E+01 -.850E+03   -.991E+01 0.572E+01 0.850E+03   0.138E+00 -.796E-01 0.316E+00   -.596E-01 0.417E-01 -.120E+00
   -.552E-04 -.239E+02 -.815E+03   0.458E-04 0.226E+02 0.815E+03   0.766E-11 0.117E+01 -.776E+00   -.676E-02 0.267E+00 -.128E+00
   -.985E+01 -.568E+01 -.850E+03   0.991E+01 0.572E+01 0.850E+03   -.138E+00 -.796E-01 0.316E+00   0.717E-01 0.422E-01 -.120E+00
   0.159E+01 0.916E+00 -.845E+03   -.165E+01 -.952E+00 0.845E+03   -.517E-01 -.298E-01 0.889E+00   0.909E-01 0.530E-01 -.886E-01
   -.159E+01 0.916E+00 -.845E+03   0.165E+01 -.952E+00 0.845E+03   0.517E-01 -.298E-01 0.889E+00   -.815E-01 0.547E-01 -.882E-01
   0.199E-04 0.114E+02 -.850E+03   0.109E-03 -.114E+02 0.850E+03   0.105E-11 0.159E+00 0.316E+00   0.449E-02 -.722E-01 -.120E+00
   0.553E-04 -.356E-04 -.271E+04   -.119E-03 0.788E-04 0.271E+04   0.245E-17 -.294E-17 0.173E+01   0.412E-04 0.907E-04 -.196E-01
   0.343E+02 0.524E+02 -.270E+04   -.336E+02 -.514E+02 0.270E+04   -.636E+00 -.988E+00 0.115E+01   -.101E+00 -.960E-01 -.100E+00
   -.343E+02 0.524E+02 -.270E+04   0.336E+02 -.514E+02 0.270E+04   0.636E+00 -.988E+00 0.115E+01   0.100E+00 -.947E-01 -.100E+00
   0.626E+02 0.350E+01 -.270E+04   -.613E+02 -.342E+01 0.270E+04   -.117E+01 -.573E-01 0.115E+01   -.133E+00 -.394E-01 -.995E-01
   -.626E+02 0.350E+01 -.270E+04   0.613E+02 -.342E+01 0.270E+04   0.117E+01 -.573E-01 0.115E+01   0.133E+00 -.386E-01 -.983E-01
   0.283E+02 -.559E+02 -.270E+04   -.277E+02 0.548E+02 0.270E+04   -.537E+00 0.105E+01 0.115E+01   -.316E-01 0.135E+00 -.998E-01
   -.283E+02 -.559E+02 -.270E+04   0.277E+02 0.548E+02 0.270E+04   0.537E+00 0.105E+01 0.115E+01   0.328E-01 0.134E+00 -.984E-01
   0.189E-04 -.891E-05 -.272E+04   0.106E-03 -.676E-04 0.272E+04   -.709E-18 0.152E-17 0.183E+01   -.631E-02 -.294E-02 -.489E-01
   0.238E-03 -.140E-03 -.272E+04   0.112E-03 0.106E-04 0.273E+04   -.146E-17 0.477E-18 -.308E+01   0.509E-02 0.299E-02 -.255E-01
   0.853E-05 -.769E-04 -.107E+04   0.130E-04 0.128E-06 0.104E+04   -.508E-18 0.410E-18 0.222E+02   0.116E-02 0.697E-03 0.157E-01
   0.242E-03 -.923E-04 -.168E+04   0.619E-05 0.668E-08 0.169E+04   -.131E-17 -.847E-18 -.252E+01   0.382E-02 0.233E-02 0.859E-02
   0.706E-05 -.143E-04 -.321E+03   0.431E-06 -.114E-08 0.330E+03   -.483E-19 -.268E-19 -.870E+01   0.202E-03 0.123E-03 0.477E-02
 -----------------------------------------------------------------------------------------------
   0.892E-03 -.974E-03 -.102E+01   -.141E-12 0.490E-13 -.330E-11   0.218E-15 0.153E-17 0.112E+01   0.255E-01 0.131E-01 0.256E-01
 
 
 POSITION                                       TOTAL-FORCE (eV/Angst)
 -----------------------------------------------------------------------------------
      0.00000      0.00000      5.28219         0.000000     -0.000000     -0.037092
      2.93046      0.00000      5.28219         0.004306      0.006162      0.018180
      5.86091      0.00000      5.28219        -0.004306      0.006162      0.018180
      1.46523      2.53785      5.28219         0.007490      0.000648      0.018180
      4.39568      2.53785      5.28219         0.000000     -0.000000     -0.023194
      7.32614      2.53785      5.28219        -0.007490      0.000648      0.018180
      2.93046      5.07570      5.28219         0.003183     -0.006810      0.018180
      5.86091      5.07570      5.28219        -0.003183     -0.006810      0.018180
      8.79137      5.07570      5.28219         0.000000      0.000000      0.002084
      1.46523      0.84595      7.67490        -0.022532     -0.013009     -0.063994
      4.39568      0.84595      7.67490        -0.000000     -0.018224     -0.046423
      7.32614      0.84595      7.67490         0.022532     -0.013009     -0.063994
      2.93046      3.38380      7.67490        -0.015782      0.009112     -0.046423
      5.86091      3.38380      7.67490         0.015782      0.009112     -0.046423
      8.79137      3.38380      7.67490        -0.000000     -0.009030      0.003935
      4.39568      5.92165      7.67490         0.000000      0.026017     -0.063994
      7.32614      5.92165      7.67490        -0.007820      0.004515      0.003935
     10.25659      5.92165      7.67490         0.007820      0.004515      0.003935
      8.79137      1.69022     10.04930         0.000000      0.026552      0.076531
      2.93117      1.69231     10.04246        -0.129729     -0.074899     -0.122766
      5.86019      1.69231     10.04246         0.129729     -0.074899     -0.122766
     10.25641      4.22985     10.06824         0.009939     -0.005738      0.047637
      4.39568      4.22892     10.04246         0.000000      0.149798     -0.122766
      7.32632      4.22985     10.06824        -0.009939     -0.005738      0.047637
     11.72328      6.76844     10.04930        -0.022995     -0.013276      0.076531
      5.85946      6.76844     10.04930         0.022995     -0.013276      0.076531
      8.79137      6.76739     10.06824         0.000000      0.011476      0.047637
      0.00000      0.00000     12.44689         0.000000      0.000000     -0.025404
      2.93311      0.00118     12.48352        -0.045523     -0.050172      0.059946
      5.85826      0.00118     12.48352         0.045523     -0.050172      0.059946
      1.46758      2.53956     12.48352        -0.066212     -0.014338      0.059946
      7.32379      2.53956     12.48352         0.066212     -0.014338      0.059946
      2.93015      5.07281     12.48352        -0.020689      0.064510      0.059946
      5.86121      5.07281     12.48352         0.020689      0.064510      0.059946
      8.79137      5.07570     12.47551         0.000000     -0.000000     -0.045246
      4.39568      2.53785     12.42634         0.000000      0.000000      0.016674
      4.39568      2.53785     14.45365         0.000000      0.000000     -0.048182
      4.39568      2.53785     15.72730         0.000000     -0.000000      0.006698
      4.39568      2.53785     16.68352         0.000000     -0.000000      0.000146
 -----------------------------------------------------------------------------------
    total drift:                                0.026377      0.012084      0.119878


--------------------------------------------------------------------------------------------------------



  FREE ENERGIE OF THE ION-ELECTRON SYSTEM (eV)
  ---------------------------------------------------
  free  energy   TOTEN  =      -114.12255084 eV

  energy  without entropy=     -114.12255084  energy(sigma->0) =     -114.12255084
 


--------------------------------------------------------------------------------------------------------


    POTLOK:  cpu time    0.0640: real time    0.0640


--------------------------------------------------------------------------------------------------------


 stress matrix after NEB project (eV)
     -6.65114     -0.00000     -0.00000
     -0.00000     -6.65114      0.00000
      0.00000      0.00000      0.45058
  FORCES: max atom, RMS     0.048182    0.007789
  FORCE total and by dimension    0.048645    0.048182
  Stress total and by dimension    9.416921    6.651142
     LOOP+:  cpu time  108.6988: real time  108.7097
 -----------------------------------------------------------------------------
|                                                                             |
|           W    W    AA    RRRRR   N    N  II  N    N   GGGG   !!!           |
|           W    W   A  A   R    R  NN   N  II  NN   N  G    G  !!!           |
|           W    W  A    A  R    R  N N  N  II  N N  N  G       !!!           |
|           W WW W  AAAAAA  RRRRR   N  N N  II  N  N N  G  GGG   !            |
|           WW  WW  A    A  R   R   N   NN  II  N   NN  G    G                |
|           W    W  A    A  R    R  N    N  II  N    N   GGGG   !!!           |
|                                                                             |
|     Tetrahedron method does not include variations of the Fermi             |
|     occupations, so forces and stress will be inaccurate. We suggest        |
|     using a different smearing scheme ISMEAR = 1 or 2 for metals in         |
|     relaxations.                                                            |
|                                                                             |
 -----------------------------------------------------------------------------

    4ORBIT:  cpu time    0.0000: real time    0.0000



 total charge

# of ion       s       p       d       tot
------------------------------------------
    1        0.418   0.201   9.179   9.797
    2        0.415   0.204   9.177   9.796
    3        0.415   0.204   9.177   9.796
    4        0.415   0.204   9.177   9.796
    5        0.423   0.202   9.174   9.799
    6        0.415   0.204   9.177   9.796
    7        0.415   0.204   9.177   9.796
    8        0.415   0.204   9.177   9.796
    9        0.415   0.202   9.179   9.796
   10        0.409   0.270   9.162   9.841
   11        0.410   0.265   9.168   9.843
   12        0.409   0.270   9.162   9.841
   13        0.410   0.265   9.168   9.843
   14        0.410   0.265   9.168   9.843
   15        0.403   0.269   9.163   9.836
   16        0.409   0.270   9.162   9.841
   17        0.403   0.269   9.163   9.836
   18        0.403   0.269   9.163   9.836
   19        0.403   0.267   9.164   9.834
   20        0.438   0.288   9.143   9.868
   21        0.438   0.288   9.143   9.868
   22        0.395   0.271   9.165   9.831
   23        0.438   0.288   9.143   9.868
   24        0.395   0.271   9.165   9.831
   25        0.403   0.267   9.164   9.834
   26        0.403   0.267   9.164   9.834
   27        0.395   0.271   9.165   9.831
   28        0.409   0.206   9.176   9.790
   29        0.444   0.216   9.156   9.816
   30        0.444   0.216   9.156   9.816
   31        0.444   0.216   9.156   9.816
   32        0.444   0.216   9.156   9.816
   33        0.444   0.216   9.156   9.816
   34        0.444   0.216   9.156   9.816
   35        0.409   0.205   9.177   9.792
   36        2.194   5.985   1.685   9.864
   37        0.940   1.391   0.000   2.331
   38        1.523   3.751   0.000   5.275
   39        0.569   0.138   0.000   0.707
--------------------------------------------------
tot         19.826  19.690 322.466 361.982
 
 BZINTS: Fermi energy:    0.449276;  408.000000 electrons
         Band energy:-0.179444E+04;  BLOECHL correction:   -0.037819

 total amount of memory used by VASP MPI-rank0   140129. kBytes
=======================================================================

   base      :      30000. kBytes
   nonlr-proj:      15163. kBytes
   fftplans  :       5150. kBytes
   grid      :      23126. kBytes
   one-center:        606. kBytes
   wavefun   :      66084. kBytes
 
  
  
 General timing and accounting informations for this job:
 ========================================================
  
                  Total CPU time used (sec):      117.194
                            User time (sec):      113.597
                          System time (sec):        3.597
                         Elapsed time (sec):      117.771
  
                   Maximum memory used (kb):      413776.
                   Average memory used (kb):          N/A
  
                          Minor page faults:        83295
                          Major page faults:            0
                 Voluntary context switches:        13946
