PROCAR new format
# of k-points:   10         # of bands:  252         # of ions:   39

 k-point     1 :    0.00000000 0.00000000 0.00000000     weight = 0.01562500

band     1 # energy  -48.30642736 # occ.  2.00000000
 
ion      s      p      d    tot
    1  0.000  0.000  0.000  0.000
    2  0.000  0.000  0.000  0.000
    3  0.000  0.000  0.000  0.000
    4  0.000  0.000  0.000  0.000
    5  0.000  0.000  0.000  0.000
    6  0.000  0.000  0.000  0.000
    7  0.000  0.000  0.000  0.000
    8  0.000  0.000  0.000  0.000
    9  0.000  0.000  0.000  0.000
   10  0.000  0.000  0.000  0.000
   11  0.000  0.000  0.000  0.000
   12  0.000  0.000  0.000  0.000
   13  0.000  0.000  0.000  0.000
   14  0.000  0.000  0.000  0.000
   15  0.000  0.000  0.000  0.000
   16  0.000  0.000  0.000  0.000
   17  0.000  0.000  0.000  0.000
   18  0.000  0.000  0.000  0.000
   19  0.000  0.000  0.000  0.000
   20  0.000  0.000  0.000  0.000
   21  0.000  0.000  0.000  0.000
   22  0.000  0.000  0.000  0.000
   23  0.000  0.000  0.000  0.000
   24  0.000  0.000  0.000  0.000
   25  0.000  0.000  0.000  0.000
   26  0.000  0.000  0.000  0.000
   27  0.000  0.000  0.000  0.000
   28  0.000  0.000  0.000  0.000
   29  0.000  0.000  0.000  0.000
   30  0.000  0.000  0.000  0.000
   31  0.000  0.000  0.000  0.000
   32  0.000  0.000  0.000  0.000
   33  0.000  0.000  0.000  0.000
   34  0.000  0.000  0.000  0.000
   35  0.000  0.000  0.000  0.000
   36  0.993  0.000  0.000  0.993
   37  0.000  0.000  0.000  0.000
   38  0.000  0.000  0.000  0.000
   39  0.000  0.000  0.000  0.000
tot    0.993  0.000  0.000  0.993
 
band     2 # energy  -26.47869393 # occ.  2.00000000
 
ion      s      p      d    tot
    1  0.000  0.000  0.000  0.000
    2  0.000  0.000  0.000  0.000
    3  0.000  0.000  0.000  0.000
    4  0.000  0.000  0.000  0.000
    5  0.000  0.000  0.000  0.000
    6  0.000  0.000  0.000  0.000
    7  0.000  0.000  0.000  0.000
    8  0.000  0.000  0.000  0.000
    9  0.000  0.000  0.000  0.000
   10  0.000  0.000  0.000  0.000
   11  0.000  0.000  0.000  0.000
   12  0.000  0.000  0.000  0.000
   13  0.000  0.000  0.000  0.000
   14  0.000  0.000  0.000  0.000
   15  0.000  0.000  0.000  0.000
   16  0.000  0.000  0.000  0.000
   17  0.000  0.000  0.000  0.000
   18  0.000  0.000  0.000  0.000
   19  0.000  0.000  0.000  0.000
   20  0.000  0.000  0.000  0.000
   21  0.000  0.000  0.000  0.000
   22  0.000  0.000  0.000  0.000
   23  0.000  0.000  0.000  0.000
   24  0.000  0.000  0.000  0.000
   25  0.000  0.000  0.000  0.000
   26  0.000  0.000  0.000  0.000
   27  0.000  0.000  0.000  0.000
   28  0.000  0.000  0.000  0.000
   29  0.000  0.000  0.000  0.000
   30  0.000  0.000  0.000  0.000
   31  0.000  0.000  0.000  0.000
   32  0.000  0.000  0.000  0.000
   33  0.000  0.000  0.000  0.000
   34  0.000  0.000  0.000  0.000
   35  0.000  0.000  0.000  0.000
   36  0.000  0.970  0.000  0.970
   37  0.000  0.000  0.000  0.000
   38  0.000  0.000  0.000  0.000
   39  0.000  0.000  0.000  0.000
tot    0.000  0.971  0.001  0.973
 
band     3 # energy  -26.47868615 # occ.  2.00000000
 
ion      s      p      d    tot
    1  0.000  0.000  0.000  0.000
    2  0.000  0.000  0.000  0.000
    3  0.000  0.000  0.000  0.000
    4  0.000  0.000  0.000  0.000
    5  0.000  0.000  0.000  0.000
    6  0.000  0.000  0.000  0.000
    7  0.000  0.000  0.000  0.000
    8  0.000  0.000  0.000  0.000
    9  0.000  0.000  0.000  0.000
   10  0.000  0.000  0.000  0.000
   11  0.000  0.000  0.000  0.000
   12  0.000  0.000  0.000  0.000
   13  0.000  0.000  0.000  0.000
   14  0.000  0.000  0.000  0.000
   15  0.000  0.000  0.000  0.000
   16  0.000  0.000  0.000  0.000
   17  0.000  0.000  0.000  0.000
   18  0.000  0.000  0.000  0.000
   19  0.000  0.000  0.000  0.000
   20  0.000  0.000  0.000  0.000
   21  0.000  0.000  0.000  0.000
   22  0.000  0.000  0.000  0.000
   23  0.000  0.000  0.000  0.000
   24  0.000  0.000  0.000  0.000
   25  0.000  0.000  0.000  0.000
   26  0.000  0.000  0.000  0.000
   27  0.000  0.000  0.000  0.000
   28  0.000  0.000  0.000  0.000
   29  0.000  0.000  0.000  0.000
   30  0.000  0.000  0.000  0.001
   31  0.000  0.000  0.000  0.000
   32  0.000  0.000  0.000  0.000
   33  0.000  0.000  0.000  0.001
   34  0.000  0.000  0.000  0.000
   35  0.000  0.000  0.000  0.000
   36  0.000  0.970  0.000  0.970
   37  0.000  0.000  0.000  0.000
   38  0.000  0.000  0.000  0.000
   39  0.000  0.000  0.000  0.000
tot    0.000  0.971  0.001  0.973
 
band     4 # energy  -26.31452324 # occ.  2.00000000
 
ion      s      p      d    tot
    1  0.000  0.000  0.000  0.000
    2  0.000  0.000  0.000  0.000
    3  0.000  0.000  0.000  0.000
    4  0.000  0.000  0.000  0.000
    5  0.000  0.000  0.000  0.000
    6  0.000  0.000  0.000  0.000
    7  0.000  0.000  0.000  0.000
    8  0.000  0.000  0.000  0.000
    9  0.000  0.000  0.000  0.000
   10  0.000  0.000  0.000  0.000
   11  0.000  0.000  0.000  0.000
   12  0.000  0.000  0.000  0.000
   13  0.000  0.000  0.000  0.000
   14  0.000  0.000  0.000  0.000
   15  0.000  0.000  0.000  0.000
   16  0.000  0.000  0.000  0.000
   17  0.000  0.000  0.000  0.000
   18  0.000  0.000  0.000  0.000
   19  0.000  0.000  0.000  0.000
   20  0.000  0.000  0.000  0.000
   21  0.000  0.000  0.000  0.000
   22  0.000  0.000  0.000  0.000
   23  0.000  0.000  0.000  0.000
   24  0.000  0.000  0.000  0.000
   25  0.000  0.000  0.000  0.000
   26  0.000  0.000  0.000  0.000
   27  0.000  0.000  0.000  0.000
   28  0.000  0.000  0.000  0.000
   29  0.000  0.000  0.000  0.000
   30  0.000  0.000  0.000  0.000
   31  0.000  0.000  0.000  0.000
   32  0.000  0.000  0.000  0.000
   33  0.000  0.000  0.000  0.000
   34  0.000  0.000  0.000  0.000
   35  0.000  0.000  0.000  0.000
   36  0.000  0.958  0.000  0.958
   37  0.005  0.003  0.000  0.008
   38  0.000  0.000  0.000  0.000
   39  0.000  0.000  0.000  0.000
tot    0.006  0.962  0.001  0.968
 
band     5 # energy  -23.35702475 # occ.  2.00000000
 
ion      s      p      d    tot
    1  0.000  0.000  0.000  0.000
    2  0.000  0.000  0.000  0.000
    3  0.000  0.000  0.000  0.000
    4  0.000  0.000  0.000  0.000
    5  0.000  0.000  0.000  0.000
    6  0.000  0.000  0.000  0.000
    7  0.000  0.000  0.000  0.000
    8  0.000  0.000  0.000  0.000
    9  0.000  0.000  0.000  0.000
   10  0.000  0.000  0.000  0.000
   11  0.000  0.000  0.000  0.000
   12  0.000  0.000  0.000  0.000
   13  0.000  0.000  0.000  0.000
   14  0.000  0.000  0.000  0.000
   15  0.000  0.000  0.000  0.000
   16  0.000  0.000  0.000  0.000
   17  0.000  0.000  0.000  0.000
   18  0.000  0.000  0.000  0.000
   19  0.000  0.000  0.000  0.000
   20  0.000  0.000  0.000  0.000
   21  0.000  0.000  0.000  0.000
   22  0.000  0.000  0.000  0.000
   23  0.000  0.000  0.000  0.000
   24  0.000  0.000  0.000  0.000
   25  0.000  0.000  0.000  0.000
   26  0.000  0.000  0.000  0.000
   27  0.000  0.000  0.000  0.000
   28  0.000  0.000  0.000  0.000
   29  0.000  0.000  0.000  0.000
   30  0.000  0.000  0.000  0.000
   31  0.000  0.000  0.000  0.000
   32  0.000  0.000  0.000  0.000
   33  0.000  0.000  0.000  0.000
   34  0.000  0.000  0.000  0.000
   35  0.000  0.000  0.000  0.000
   36  0.000  0.001  0.000  0.001
   37  0.070  0.054  0.000  0.123
   38  0.728  0.004  0.000  0.733
   39  0.067  0.014  0.000  0.081
tot    0.864  0.073  0.000  0.938
 
band     6 # energy  -14.08885479 # occ.  2.00000000
 
ion      s      p      d    tot
    1  0.000  0.000  0.000  0.000
    2  0.000  0.000  0.000  0.000
    3  0.000  0.000  0.000  0.000
    4  0.000  0.000  0.000  0.000
    5  0.000  0.000  0.000  0.000
    6  0.000  0.000  0.000  0.000
    7  0.000  0.000  0.000  0.000
    8  0.000  0.000  0.000  0.000
    9  0.000  0.000  0.000  0.000
   10  0.000  0.000  0.000  0.000
   11  0.000  0.000  0.000  0.000
   12  0.000  0.000  0.000  0.000
   13  0.000  0.000  0.000  0.000
   14  0.000  0.000  0.000  0.000
   15  0.000  0.000  0.000  0.000
   16  0.000  0.000  0.000  0.000
   17  0.000  0.000  0.000  0.000
   18  0.000  0.000  0.000  0.000
   19  0.000  0.000  0.000  0.000
   20  0.000  0.000  0.000  0.000
   21  0.000  0.000  0.000  0.000
   22  0.000  0.000  0.000  0.000
   23  0.000  0.000  0.000  0.000
   24  0.000  0.000  0.000  0.000
   25  0.000  0.000  0.000  0.000
   26  0.000  0.000  0.000  0.000
   27  0.000  0.000  0.000  0.000
   28  0.000  0.000  0.000  0.000
   29  0.000  0.000  0.000  0.000
   30  0.000  0.000  0.000  0.000
   31  0.000  0.000  0.000  0.000
   32  0.000  0.000  0.000  0.000
   33  0.000  0.000  0.000  0.000
   34  0.000  0.000  0.000  0.000
   35  0.000  0.000  0.000  0.000
   36  0.000  0.001  0.001  0.002
   37  0.152  0.056  0.000  0.208
   38  0.013  0.528  0.000  0.541
   39  0.201  0.032  0.000  0.233
tot    0.366  0.617  0.001  0.984
 
band     7 # energy   -6.71848828 # occ.  2.00000000
 
ion      s      p      d    tot
    1  0.006  0.001  0.000  0.006
    2  0.005  0.001  0.000  0.006
    3  0.005  0.001  0.000  0.006
    4  0.005  0.001  0.000  0.006
    5  0.005  0.001  0.000  0.006
    6  0.005  0.001  0.000  0.006
    7  0.005  0.001  0.000  0.006
    8  0.005  0.001  0.000  0.006
    9  0.005  0.001  0.000  0.006
   10  0.022  0.000  0.000  0.023
   11  0.022  0.000  0.000  0.022
   12  0.022  0.000  0.000  0.023
   13  0.022  0.000  0.000  0.022
   14  0.022  0.000  0.000  0.022
   15  0.021  0.000  0.000  0.021
   16  0.022  0.000  0.000  0.023
   17  0.021  0.000  0.000  0.021
   18  0.021  0.000  0.000  0.021
   19  0.022  0.000  0.000  0.023
   20  0.025  0.000  0.001  0.026
   21  0.025  0.000  0.001  0.026
   22  0.021  0.000  0.000  0.022
   23  0.025  0.000  0.001  0.026
   24  0.021  0.000  0.000  0.022
   25  0.022  0.000  0.000  0.023
   26  0.022  0.000  0.000  0.023
   27  0.021  0.000  0.000  0.022
   28  0.006  0.001  0.000  0.006
   29  0.006  0.000  0.000  0.007
   30  0.006  0.000  0.000  0.007
   31  0.006  0.000  0.000  0.007
   32  0.006  0.000  0.000  0.007
   33  0.006  0.000  0.000  0.007
   34  0.006  0.000  0.000  0.007
   35  0.006  0.001  0.000  0.006
   36  0.008  0.000  0.002  0.010
   37  0.006  0.005  0.000  0.011
   38  0.001  0.002  0.000  0.002
   39  0.001  0.000  0.000  0.001
tot    0.515  0.018  0.009  0.541
 
band     8 # energy   -6.09897857 # occ.  2.00000000
 
ion      s      p      d    tot
    1  0.000  0.000  0.000  0.000
    2  0.000  0.000  0.000  0.000
    3  0.000  0.000  0.000  0.000
    4  0.000  0.000  0.000  0.000
    5  0.000  0.000  0.000  0.000
    6  0.000  0.000  0.000  0.000
    7  0.000  0.000  0.000  0.000
    8  0.000  0.000  0.000  0.000
    9  0.000  0.000  0.000  0.000
   10  0.000  0.000  0.000  0.000
   11  0.000  0.000  0.000  0.000
   12  0.000  0.000  0.000  0.000
   13  0.000  0.000  0.000  0.000
   14  0.000  0.000  0.000  0.000
   15  0.000  0.000  0.000  0.000
   16  0.000  0.000  0.000  0.000
   17  0.000  0.000  0.000  0.000
   18  0.000  0.000  0.000  0.000
   19  0.000  0.000  0.000  0.000
   20  0.000  0.000  0.000  0.000
   21  0.000  0.000  0.000  0.000
   22  0.000  0.000  0.000  0.000
   23  0.000  0.000  0.000  0.000
   24  0.000  0.000  0.000  0.000
   25  0.000  0.000  0.000  0.000
   26  0.000  0.000  0.000  0.000
   27  0.000  0.000  0.000  0.000
   28  0.000  0.000  0.000  0.000
   29  0.000  0.000  0.001  0.001
   30  0.000  0.000  0.000  0.000
   31  0.000  0.000  0.001  0.001
   32  0.000  0.000  0.001  0.001
   33  0.000  0.000  0.000  0.000
   34  0.000  0.000  0.001  0.001
   35  0.000  0.000  0.000  0.000
   36  0.000  0.000  0.004  0.005
   37  0.000  0.099  0.000  0.099
   38  0.000  0.560  0.000  0.560
   39  0.000  0.008  0.000  0.008
tot    0.001  0.667  0.008  0.676
 
band     9 # energy   -6.09887335 # occ.  2.00000000
 
ion      s      p      d    tot
    1  0.000  0.000  0.000  0.000
    2  0.000  0.000  0.000  0.000
    3  0.000  0.000  0.000  0.000
    4  0.000  0.000  0.000  0.000
    5  0.000  0.000  0.000  0.000
    6  0.000  0.000  0.000  0.000
    7  0.000  0.000  0.000  0.000
    8  0.000  0.000  0.000  0.000
    9  0.000  0.000  0.000  0.000
   10  0.000  0.000  0.000  0.000
   11  0.000  0.000  0.000  0.000
   12  0.000  0.000  0.000  0.000
   13  0.000  0.000  0.000  0.000
   14  0.000  0.000  0.000  0.000
   15  0.000  0.000  0.000  0.000
   16  0.000  0.000  0.000  0.000
   17  0.000  0.000  0.000  0.000
   18  0.000  0.000  0.000  0.000
   19  0.000  0.000  0.000  0.000
   20  0.000  0.000  0.000  0.000
   21  0.000  0.000  0.000  0.000
   22  0.000  0.000  0.000  0.000
   23  0.000  0.000  0.000  0.000
   24  0.000  0.000  0.000  0.000
   25  0.000  0.000  0.000  0.000
   26  0.000  0.000  0.000  0.000
   27  0.000  0.000  0.000  0.000
   28  0.000  0.000  0.000  0.000
   29  0.000  0.000  0.000  0.000
   30  0.000  0.000  0.001  0.001
   31  0.000  0.000  0.000  0.000
   32  0.000  0.000  0.000  0.000
   33  0.000  0.000  0.001  0.001
   34  0.000  0.000  0.000  0.000
   35  0.000  0.000  0.000  0.000
   36  0.000  0.000  0.004  0.005
   37  0.000  0.099  0.000  0.099
   38  0.000  0.560  0.000  0.560
   39  0.000  0.008  0.000  0.008
tot    0.001  0.667  0.008  0.676
 
band    10 # energy   -5.98948581 # occ.  2.00000000
 
ion      s      p      d    tot
    1  0.005  0.000  0.000  0.005
    2  0.006  0.000  0.000  0.007
    3  0.006  0.000  0.000  0.007
    4  0.006  0.000  0.000  0.007
    5  0.006  0.000  0.000  0.007
    6  0.006  0.000  0.000  0.007
    7  0.006  0.000  0.000  0.007
    8  0.006  0.000  0.000  0.007
    9  0.007  0.000  0.000  0.007
   10  0.007  0.001  0.008  0.016
   11  0.010  0.000  0.004  0.014
   12  0.007  0.001  0.008  0.016
   13  0.010  0.000  0.004  0.014
   14  0.010  0.000  0.004  0.014
   15  0.011  0.000  0.004  0.015
   16  0.007  0.001  0.008  0.016
   17  0.011  0.000  0.004  0.015
   18  0.011  0.000  0.004  0.015
   19  0.001  0.001  0.004  0.006
   20  0.006  0.002  0.016  0.024
   21  0.006  0.002  0.016  0.024
   22  0.000  0.001  0.002  0.004
   23  0.006  0.002  0.016  0.024
   24  0.000  0.001  0.002  0.004
   25  0.001  0.001  0.004  0.006
   26  0.001  0.001  0.004  0.006
   27  0.000  0.001  0.002  0.004
   28  0.003  0.000  0.001  0.004
   29  0.005  0.000  0.002  0.007
   30  0.005  0.000  0.002  0.007
   31  0.005  0.000  0.002  0.007
   32  0.005  0.000  0.002  0.007
   33  0.005  0.000  0.002  0.007
   34  0.005  0.000  0.002  0.007
   35  0.002  0.000  0.001  0.003
   36  0.038  0.006  0.043  0.086
   37  0.093  0.071  0.000  0.165
   38  0.008  0.022  0.000  0.030
   39  0.007  0.000  0.000  0.007
tot    0.343  0.117  0.175  0.635
 
band    11 # energy   -5.72304794 # occ.  2.00000000
 
ion      s      p      d    tot
    1  0.004  0.000  0.000  0.004
    2  0.001  0.000  0.000  0.002
    3  0.001  0.000  0.000  0.002
    4  0.001  0.000  0.000  0.002
    5  0.001  0.000  0.000  0.001
    6  0.001  0.000  0.000  0.002
    7  0.001  0.000  0.000  0.002
    8  0.001  0.000  0.000  0.002
    9  0.001  0.000  0.000  0.001
   10  0.007  0.000  0.011  0.019
   11  0.003  0.000  0.018  0.022
   12  0.007  0.000  0.011  0.019
   13  0.003  0.000  0.018  0.022
   14  0.003  0.000  0.018  0.022
   15  0.002  0.001  0.014  0.017
   16  0.007  0.000  0.011  0.019
   17  0.002  0.001  0.014  0.017
   18  0.002  0.001  0.014  0.017
   19  0.011  0.000  0.021  0.033
   20  0.004  0.000  0.048  0.052
   21  0.004  0.000  0.048  0.052
   22  0.017  0.000  0.018  0.035
   23  0.004  0.000  0.048  0.052
   24  0.017  0.000  0.018  0.035
   25  0.011  0.000  0.021  0.033
   26  0.011  0.000  0.021  0.033
   27  0.017  0.000  0.018  0.035
   28  0.003  0.000  0.002  0.005
   29  0.001  0.001  0.003  0.004
   30  0.001  0.001  0.003  0.004
   31  0.001  0.001  0.003  0.004
   32  0.001  0.001  0.003  0.004
   33  0.001  0.001  0.003  0.004
   34  0.001  0.001  0.003  0.004
   35  0.003  0.001  0.001  0.005
   36  0.012  0.005  0.025  0.042
   37  0.052  0.038  0.000  0.090
   38  0.004  0.012  0.000  0.016
   39  0.004  0.000  0.000  0.004
tot    0.227  0.067  0.442  0.736
 
band    12 # energy   -5.54692316 # occ.  2.00000000
 
ion      s      p      d    tot
    1  0.017  0.000  0.015  0.032
    2  0.012  0.000  0.017  0.029
    3  0.012  0.000  0.017  0.029
    4  0.012  0.000  0.017  0.029
    5  0.009  0.000  0.016  0.025
    6  0.012  0.000  0.017  0.028
    7  0.012  0.000  0.017  0.029
    8  0.012  0.000  0.017  0.028
    9  0.010  0.000  0.017  0.027
   10  0.000  0.000  0.023  0.024
   11  0.000  0.000  0.010  0.010
   12  0.000  0.000  0.023  0.024
   13  0.000  0.000  0.010  0.010
   14  0.000  0.000  0.010  0.010
   15  0.001  0.001  0.008  0.010
   16  0.000  0.000  0.023  0.024
   17  0.001  0.001  0.008  0.010
   18  0.001  0.001  0.008  0.010
   19  0.000  0.000  0.016  0.016
   20  0.001  0.000  0.028  0.029
   21  0.001  0.000  0.028  0.029
   22  0.002  0.000  0.007  0.009
   23  0.001  0.000  0.028  0.029
   24  0.002  0.000  0.007  0.009
   25  0.000  0.000  0.016  0.016
   26  0.000  0.000  0.016  0.016
   27  0.002  0.000  0.007  0.009
   28  0.012  0.000  0.008  0.020
   29  0.010  0.000  0.012  0.022
   30  0.010  0.000  0.012  0.022
   31  0.010  0.000  0.012  0.022
   32  0.010  0.000  0.012  0.022
   33  0.010  0.000  0.012  0.022
   34  0.010  0.000  0.012  0.022
   35  0.016  0.000  0.010  0.026
   36  0.000  0.000  0.012  0.013
   37  0.005  0.004  0.000  0.009
   38  0.000  0.001  0.000  0.001
   39  0.000  0.000  0.000  0.000
tot    0.208  0.013  0.530  0.751
 
band    13 # energy   -5.43310807 # occ.  2.00000000
 
ion      s      p      d    tot
    1  0.000  0.000  0.007  0.007
    2  0.001  0.000  0.002  0.003
    3  0.001  0.000  0.002  0.003
    4  0.000  0.000  0.003  0.003
    5  0.000  0.000  0.002  0.002
    6  0.000  0.000  0.003  0.003
    7  0.001  0.000  0.003  0.004
    8  0.001  0.000  0.003  0.004
    9  0.000  0.000  0.004  0.004
   10  0.002  0.001  0.021  0.024
   11  0.000  0.000  0.021  0.022
   12  0.002  0.001  0.021  0.024
   13  0.000  0.000  0.031  0.031
   14  0.000  0.000  0.030  0.030
   15  0.010  0.001  0.009  0.019
   16  0.009  0.001  0.025  0.034
   17  0.002  0.000  0.022  0.024
   18  0.003  0.000  0.021  0.024
   19  0.027  0.001  0.028  0.056
   20  0.004  0.000  0.110  0.114
   21  0.003  0.000  0.116  0.119
   22  0.000  0.001  0.024  0.025
   23  0.013  0.001  0.014  0.028
   24  0.001  0.001  0.024  0.026
   25  0.007  0.001  0.045  0.053
   26  0.006  0.001  0.046  0.053
   27  0.002  0.000  0.037  0.039
   28  0.000  0.000  0.007  0.007
   29  0.000  0.000  0.005  0.005
   30  0.000  0.000  0.005  0.005
   31  0.001  0.000  0.006  0.007
   32  0.001  0.000  0.006  0.008
   33  0.000  0.000  0.002  0.002
   34  0.000  0.000  0.002  0.002
   35  0.000  0.000  0.000  0.000
   36  0.000  0.000  0.001  0.001
   37  0.000  0.000  0.000  0.000
   38  0.000  0.001  0.000  0.001
   39  0.000  0.000  0.000  0.000
tot    0.097  0.014  0.707  0.818
 
band    14 # energy   -5.43309916 # occ.  2.00000000
 
ion      s      p      d    tot
    1  0.000  0.000  0.007  0.007
    2  0.000  0.000  0.003  0.003
    3  0.000  0.000  0.003  0.003
    4  0.001  0.000  0.002  0.004
    5  0.000  0.000  0.002  0.002
    6  0.001  0.000  0.002  0.004
    7  0.000  0.000  0.002  0.002
    8  0.000  0.000  0.002  0.002
    9  0.000  0.000  0.004  0.004
   10  0.006  0.001  0.023  0.031
   11  0.000  0.000  0.033  0.034
   12  0.007  0.001  0.024  0.031
   13  0.000  0.000  0.024  0.024
   14  0.000  0.000  0.025  0.025
   15  0.000  0.000  0.026  0.026
   16  0.000  0.001  0.020  0.021
   17  0.008  0.001  0.013  0.021
   18  0.007  0.001  0.013  0.021
   19  0.000  0.001  0.052  0.053
   20  0.010  0.000  0.050  0.060
   21  0.010  0.000  0.044  0.055
   22  0.002  0.001  0.033  0.035
   23  0.000  0.000  0.146  0.146
   24  0.001  0.001  0.033  0.035
   25  0.020  0.001  0.035  0.055
   26  0.021  0.001  0.034  0.055
   27  0.000  0.002  0.019  0.021
   28  0.000  0.000  0.007  0.007
   29  0.001  0.000  0.004  0.005
   30  0.001  0.000  0.004  0.005
   31  0.000  0.000  0.002  0.002
   32  0.000  0.000  0.002  0.002
   33  0.001  0.000  0.007  0.008
   34  0.001  0.000  0.007  0.008
   35  0.000  0.000  0.000  0.000
   36  0.000  0.000  0.001  0.001
   37  0.000  0.000  0.000  0.000
   38  0.000  0.001  0.000  0.001
   39  0.000  0.000  0.000  0.000
tot    0.097  0.014  0.707  0.818
 
band    15 # energy   -5.42137790 # occ.  2.00000000
 
ion      s      p      d    tot
    1  0.002  0.000  0.005  0.007
    2  0.003  0.000  0.009  0.012
    3  0.003  0.000  0.010  0.012
    4  0.003  0.000  0.010  0.012
    5  0.001  0.000  0.017  0.019
    6  0.003  0.000  0.009  0.012
    7  0.003  0.000  0.010  0.012
    8  0.003  0.000  0.009  0.012
    9  0.005  0.000  0.001  0.006
   10  0.000  0.001  0.005  0.006
   11  0.011  0.001  0.037  0.049
   12  0.000  0.001  0.005  0.006
   13  0.011  0.001  0.037  0.049
   14  0.011  0.001  0.037  0.049
   15  0.000  0.000  0.046  0.047
   16  0.000  0.001  0.005  0.006
   17  0.000  0.000  0.046  0.047
   18  0.000  0.000  0.047  0.047
   19  0.000  0.000  0.045  0.046
   20  0.010  0.001  0.047  0.058
   21  0.010  0.001  0.048  0.059
   22  0.001  0.001  0.006  0.008
   23  0.010  0.001  0.048  0.059
   24  0.001  0.001  0.006  0.007
   25  0.000  0.000  0.045  0.045
   26  0.000  0.000  0.045  0.046
   27  0.001  0.001  0.006  0.008
   28  0.003  0.000  0.000  0.003
   29  0.001  0.000  0.007  0.009
   30  0.001  0.000  0.007  0.009
   31  0.001  0.000  0.007  0.009
   32  0.001  0.000  0.007  0.009
   33  0.001  0.000  0.007  0.009
   34  0.001  0.000  0.007  0.009
   35  0.001  0.000  0.001  0.002
   36  0.001  0.001  0.000  0.002
   37  0.001  0.001  0.000  0.002
   38  0.000  0.000  0.000  0.000
   39  0.000  0.000  0.000  0.000
tot    0.109  0.013  0.685  0.807
 
band    16 # energy   -5.42117187 # occ.  2.00000000
 
ion      s      p      d    tot
    1  0.000  0.000  0.006  0.006
    2  0.000  0.000  0.002  0.003
    3  0.001  0.000  0.006  0.007
    4  0.000  0.000  0.002  0.003
    5  0.000  0.000  0.009  0.009
    6  0.002  0.001  0.006  0.008
    7  0.001  0.000  0.005  0.006
    8  0.002  0.001  0.006  0.008
    9  0.000  0.000  0.000  0.000
   10  0.013  0.001  0.008  0.022
   11  0.008  0.001  0.053  0.062
   12  0.003  0.000  0.083  0.086
   13  0.007  0.001  0.054  0.062
   14  0.032  0.001  0.021  0.053
   15  0.001  0.001  0.019  0.021
   16  0.003  0.000  0.080  0.084
   17  0.001  0.001  0.018  0.020
   18  0.003  0.000  0.036  0.039
   19  0.000  0.001  0.022  0.023
   20  0.016  0.001  0.029  0.045
   21  0.004  0.001  0.030  0.035
   22  0.003  0.000  0.032  0.035
   23  0.004  0.001  0.030  0.035
   24  0.011  0.001  0.006  0.019
   25  0.000  0.000  0.021  0.021
   26  0.000  0.001  0.022  0.023
   27  0.003  0.000  0.031  0.034
   28  0.000  0.000  0.001  0.001
   29  0.001  0.000  0.004  0.005
   30  0.001  0.000  0.003  0.004
   31  0.001  0.000  0.004  0.005
   32  0.000  0.000  0.002  0.002
   33  0.001  0.000  0.003  0.004
   34  0.000  0.000  0.002  0.003
   35  0.000  0.000  0.005  0.005
   36  0.000  0.000  0.001  0.001
   37  0.000  0.000  0.000  0.000
   38  0.000  0.000  0.000  0.000
   39  0.000  0.000  0.000  0.000
tot    0.123  0.017  0.663  0.802
 
band    17 # energy   -5.42116695 # occ.  2.00000000
 
ion      s      p      d    tot
    1  0.000  0.000  0.006  0.006
    2  0.001  0.001  0.007  0.009
    3  0.001  0.000  0.003  0.005
    4  0.001  0.001  0.007  0.009
    5  0.000  0.000  0.009  0.009
    6  0.000  0.000  0.003  0.003
    7  0.001  0.000  0.004  0.005
    8  0.000  0.000  0.003  0.004
    9  0.000  0.000  0.000  0.000
   10  0.000  0.000  0.106  0.106
   11  0.023  0.001  0.032  0.056
   12  0.010  0.001  0.031  0.042
   13  0.024  0.001  0.031  0.056
   14  0.000  0.001  0.064  0.065
   15  0.002  0.001  0.030  0.033
   16  0.009  0.001  0.034  0.044
   17  0.003  0.000  0.031  0.034
   18  0.000  0.002  0.012  0.014
   19  0.000  0.000  0.021  0.022
   20  0.000  0.001  0.031  0.032
   21  0.012  0.001  0.029  0.042
   22  0.009  0.001  0.014  0.024
   23  0.012  0.001  0.029  0.042
   24  0.000  0.000  0.040  0.040
   25  0.000  0.001  0.023  0.024
   26  0.000  0.000  0.021  0.022
   27  0.008  0.001  0.015  0.024
   28  0.000  0.000  0.001  0.001
   29  0.000  0.000  0.002  0.003
   30  0.001  0.000  0.003  0.004
   31  0.000  0.000  0.002  0.003
   32  0.002  0.000  0.004  0.006
   33  0.001  0.000  0.003  0.004
   34  0.001  0.000  0.004  0.006
   35  0.000  0.000  0.005  0.005
   36  0.000  0.000  0.001  0.001
   37  0.000  0.000  0.000  0.000
   38  0.000  0.000  0.000  0.000
   39  0.000  0.000  0.000  0.000
tot    0.123  0.016  0.663  0.802
 
band    18 # energy   -5.41201436 # occ.  2.00000000
 
ion      s      p      d    tot
    1  0.000  0.000  0.010  0.011
    2  0.003  0.000  0.012  0.015
    3  0.003  0.000  0.012  0.015
    4  0.003  0.000  0.012  0.015
    5  0.014  0.001  0.002  0.016
    6  0.003  0.000  0.012  0.015
    7  0.003  0.000  0.012  0.015
    8  0.003  0.000  0.012  0.015
    9  0.001  0.000  0.014  0.015
   10  0.011  0.001  0.004  0.016
   11  0.003  0.000  0.034  0.038
   12  0.011  0.001  0.004  0.016
   13  0.003  0.000  0.034  0.038
   14  0.003  0.000  0.034  0.038
   15  0.000  0.000  0.023  0.023
   16  0.011  0.001  0.004  0.016
   17  0.000  0.000  0.023  0.023
   18  0.000  0.000  0.023  0.023
   19  0.017  0.001  0.006  0.024
   20  0.000  0.001  0.032  0.033
   21  0.000  0.001  0.032  0.033
   22  0.002  0.000  0.048  0.050
   23  0.000  0.001  0.032  0.033
   24  0.002  0.000  0.048  0.050
   25  0.017  0.001  0.006  0.024
   26  0.017  0.001  0.006  0.024
   27  0.002  0.000  0.048  0.050
   28  0.000  0.001  0.010  0.011
   29  0.002  0.000  0.010  0.012
   30  0.002  0.000  0.010  0.012
   31  0.002  0.000  0.010  0.012
   32  0.002  0.000  0.009  0.012
   33  0.002  0.000  0.010  0.012
   34  0.002  0.000  0.010  0.012
   35  0.009  0.001  0.000  0.010
   36  0.002  0.000  0.000  0.003
   37  0.002  0.001  0.000  0.003
   38  0.000  0.000  0.000  0.001
   39  0.000  0.000  0.000  0.000
tot    0.161  0.018  0.602  0.781
 
band    19 # energy   -5.40226184 # occ.  2.00000000
 
ion      s      p      d    tot
    1  0.000  0.000  0.020  0.020
    2  0.000  0.000  0.007  0.008
    3  0.000  0.000  0.007  0.008
    4  0.000  0.000  0.007  0.008
    5  0.001  0.000  0.000  0.001
    6  0.000  0.000  0.007  0.008
    7  0.000  0.000  0.007  0.008
    8  0.000  0.000  0.007  0.008
    9  0.007  0.001  0.002  0.010
   10  0.002  0.000  0.086  0.088
   11  0.003  0.000  0.030  0.034
   12  0.002  0.000  0.086  0.088
   13  0.003  0.000  0.030  0.034
   14  0.003  0.000  0.030  0.034
   15  0.009  0.000  0.017  0.026
   16  0.002  0.000  0.086  0.088
   17  0.009  0.000  0.017  0.026
   18  0.009  0.000  0.017  0.026
   19  0.000  0.000  0.026  0.026
   20  0.001  0.000  0.027  0.028
   21  0.001  0.000  0.027  0.028
   22  0.001  0.000  0.015  0.016
   23  0.001  0.000  0.027  0.028
   24  0.001  0.000  0.015  0.016
   25  0.000  0.000  0.026  0.026
   26  0.000  0.000  0.026  0.026
   27  0.001  0.000  0.015  0.016
   28  0.010  0.000  0.005  0.016
   29  0.001  0.000  0.013  0.014
   30  0.001  0.000  0.013  0.014
   31  0.001  0.000  0.013  0.014
   32  0.001  0.000  0.013  0.014
   33  0.001  0.000  0.013  0.014
   34  0.001  0.000  0.013  0.014
   35  0.000  0.000  0.005  0.005
   36  0.000  0.000  0.000  0.000
   37  0.000  0.000  0.000  0.000
   38  0.000  0.000  0.000  0.000
   39  0.000  0.000  0.000  0.000
tot    0.074  0.008  0.754  0.836
 
band    20 # energy   -5.38849894 # occ.  2.00000000
 
ion      s      p      d    tot
    1  0.001  0.000  0.002  0.003
    2  0.002  0.000  0.009  0.011
    3  0.002  0.000  0.009  0.011
    4  0.002  0.000  0.009  0.011
    5  0.001  0.000  0.002  0.003
    6  0.002  0.000  0.009  0.011
    7  0.002  0.000  0.009  0.011
    8  0.002  0.000  0.009  0.011
    9  0.004  0.000  0.017  0.021
   10  0.000  0.000  0.027  0.028
   11  0.000  0.000  0.004  0.004
   12  0.000  0.000  0.027  0.028
   13  0.000  0.000  0.004  0.004
   14  0.000  0.000  0.004  0.004
   15  0.004  0.000  0.040  0.044
   16  0.000  0.000  0.027  0.028
   17  0.004  0.000  0.040  0.044
   18  0.004  0.000  0.040  0.044
   19  0.003  0.001  0.009  0.012
   20  0.001  0.000  0.036  0.037
   21  0.001  0.000  0.036  0.037
   22  0.004  0.000  0.056  0.060
   23  0.001  0.000  0.036  0.037
   24  0.004  0.000  0.056  0.060
   25  0.003  0.001  0.009  0.012
   26  0.003  0.001  0.009  0.012
   27  0.004  0.000  0.056  0.060
   28  0.007  0.000  0.001  0.009
   29  0.004  0.000  0.015  0.019
   30  0.004  0.000  0.015  0.019
   31  0.004  0.000  0.015  0.019
   32  0.004  0.000  0.015  0.019
   33  0.004  0.000  0.015  0.019
   34  0.004  0.000  0.015  0.019
   35  0.007  0.000  0.032  0.039
   36  0.000  0.000  0.004  0.004
   37  0.002  0.002  0.000  0.004
   38  0.000  0.000  0.000  0.001
   39  0.000  0.000  0.000  0.000