PROCAR new format
# of k-points:   10         # of bands:  252         # of ions:   36

 k-point     1 :    0.00000000 0.00000000 0.00000000     weight = 0.01562500

band     1 # energy   -6.28391354 # occ.  2.00000000
 
ion      s      p      d    tot
    1  0.005  0.001  0.000  0.006
    2  0.005  0.000  0.000  0.005
    3  0.005  0.000  0.000  0.005
    4  0.005  0.000  0.000  0.005
    5  0.005  0.000  0.000  0.005
    6  0.005  0.000  0.000  0.005
    7  0.005  0.000  0.000  0.005
    8  0.005  0.000  0.000  0.005
    9  0.005  0.000  0.000  0.005
   10  0.021  0.000  0.000  0.022
   11  0.021  0.000  0.000  0.022
   12  0.021  0.000  0.000  0.022
   13  0.021  0.000  0.000  0.022
   14  0.021  0.000  0.000  0.022
   15  0.020  0.000  0.000  0.020
   16  0.021  0.000  0.000  0.022
   17  0.020  0.000  0.000  0.020
   18  0.020  0.000  0.000  0.020
   19  0.022  0.000  0.000  0.023
   20  0.028  0.000  0.001  0.029
   21  0.028  0.000  0.001  0.029
   22  0.022  0.000  0.000  0.022
   23  0.028  0.000  0.001  0.029
   24  0.022  0.000  0.000  0.022
   25  0.022  0.000  0.000  0.023
   26  0.022  0.000  0.000  0.023
   27  0.022  0.000  0.000  0.022
   28  0.006  0.001  0.000  0.007
   29  0.008  0.001  0.000  0.009
   30  0.008  0.001  0.000  0.009
   31  0.008  0.001  0.000  0.009
   32  0.008  0.001  0.000  0.009
   33  0.008  0.001  0.000  0.009
   34  0.008  0.001  0.000  0.009
   35  0.006  0.000  0.000  0.007
   36  0.022  0.002  0.000  0.024
tot    0.528  0.013  0.009  0.550
 
band     2 # energy   -5.45195219 # occ.  2.00000000
 
ion      s      p      d    tot
    1  0.009  0.000  0.001  0.010
    2  0.010  0.000  0.001  0.011
    3  0.010  0.000  0.001  0.011
    4  0.010  0.000  0.001  0.011
    5  0.010  0.001  0.000  0.011
    6  0.010  0.000  0.001  0.011
    7  0.010  0.000  0.001  0.011
    8  0.010  0.000  0.001  0.011
    9  0.011  0.001  0.001  0.012
   10  0.012  0.001  0.011  0.024
   11  0.013  0.001  0.009  0.023
   12  0.012  0.001  0.011  0.024
   13  0.013  0.001  0.009  0.023
   14  0.013  0.001  0.009  0.023
   15  0.015  0.001  0.008  0.023
   16  0.012  0.001  0.011  0.024
   17  0.015  0.001  0.008  0.023
   18  0.015  0.001  0.008  0.023
   19  0.004  0.001  0.006  0.011
   20  0.010  0.002  0.008  0.020
   21  0.010  0.002  0.008  0.020
   22  0.004  0.001  0.006  0.011
   23  0.010  0.002  0.008  0.020
   24  0.004  0.001  0.006  0.011
   25  0.004  0.001  0.006  0.011
   26  0.004  0.001  0.006  0.011
   27  0.004  0.001  0.006  0.011
   28  0.008  0.000  0.003  0.012
   29  0.013  0.000  0.008  0.021
   30  0.013  0.000  0.008  0.021
   31  0.013  0.000  0.008  0.021
   32  0.013  0.000  0.008  0.021
   33  0.013  0.000  0.008  0.021
   34  0.013  0.000  0.008  0.021
   35  0.008  0.000  0.003  0.011
   36  0.048  0.001  0.001  0.050
tot    0.405  0.029  0.198  0.632
 
band     3 # energy   -5.22652430 # occ.  2.00000000
 
ion      s      p      d    tot
    1  0.000  0.000  0.005  0.005
    2  0.001  0.000  0.002  0.003
    3  0.001  0.000  0.002  0.003
    4  0.001  0.000  0.002  0.003
    5  0.001  0.000  0.001  0.002
    6  0.001  0.000  0.002  0.003
    7  0.001  0.000  0.002  0.003
    8  0.001  0.000  0.002  0.003
    9  0.001  0.000  0.001  0.002
   10  0.002  0.000  0.017  0.019
   11  0.001  0.000  0.016  0.017
   12  0.002  0.000  0.017  0.019
   13  0.001  0.000  0.016  0.017
   14  0.001  0.000  0.016  0.017
   15  0.000  0.000  0.010  0.010
   16  0.002  0.000  0.017  0.019
   17  0.000  0.000  0.010  0.010
   18  0.000  0.000  0.010  0.010
   19  0.007  0.000  0.024  0.032
   20  0.002  0.000  0.070  0.073
   21  0.002  0.000  0.070  0.073
   22  0.006  0.000  0.019  0.025
   23  0.002  0.000  0.070  0.073
   24  0.006  0.000  0.019  0.025
   25  0.007  0.000  0.024  0.032
   26  0.007  0.000  0.024  0.032
   27  0.006  0.000  0.019  0.025
   28  0.002  0.000  0.013  0.014
   29  0.006  0.000  0.028  0.034
   30  0.006  0.000  0.028  0.034
   31  0.006  0.000  0.028  0.034
   32  0.006  0.000  0.028  0.034
   33  0.006  0.000  0.028  0.034
   34  0.006  0.000  0.028  0.034
   35  0.002  0.000  0.012  0.015
   36  0.039  0.000  0.009  0.047
tot    0.140  0.004  0.686  0.830
 
band     4 # energy   -5.04680252 # occ.  2.00000000
 
ion      s      p      d    tot
    1  0.014  0.001  0.000  0.015
    2  0.002  0.000  0.007  0.010
    3  0.002  0.000  0.007  0.010
    4  0.002  0.000  0.007  0.010
    5  0.000  0.000  0.006  0.006
    6  0.002  0.000  0.007  0.010
    7  0.002  0.000  0.007  0.010
    8  0.002  0.000  0.007  0.010
    9  0.000  0.000  0.005  0.005
   10  0.004  0.000  0.032  0.036
   11  0.000  0.000  0.012  0.012
   12  0.004  0.000  0.032  0.036
   13  0.000  0.000  0.012  0.012
   14  0.000  0.000  0.012  0.012
   15  0.004  0.001  0.000  0.005
   16  0.004  0.000  0.032  0.036
   17  0.004  0.001  0.000  0.005
   18  0.004  0.001  0.000  0.005
   19  0.000  0.001  0.034  0.035
   20  0.005  0.000  0.103  0.109
   21  0.005  0.000  0.103  0.109
   22  0.015  0.000  0.003  0.018
   23  0.005  0.000  0.103  0.109
   24  0.015  0.000  0.003  0.018
   25  0.000  0.001  0.034  0.035
   26  0.000  0.001  0.034  0.035
   27  0.015  0.000  0.003  0.018
   28  0.002  0.000  0.000  0.002
   29  0.001  0.000  0.006  0.007
   30  0.001  0.000  0.006  0.007
   31  0.001  0.000  0.006  0.007
   32  0.001  0.000  0.006  0.007
   33  0.001  0.000  0.006  0.007
   34  0.001  0.000  0.006  0.007
   35  0.010  0.001  0.000  0.011
   36  0.008  0.004  0.007  0.019
tot    0.141  0.016  0.652  0.809
 
band     5 # energy   -5.00118195 # occ.  2.00000000
 
ion      s      p      d    tot
    1  0.000  0.000  0.007  0.007
    2  0.001  0.000  0.002  0.003
    3  0.001  0.000  0.003  0.004
    4  0.001  0.000  0.002  0.003
    5  0.000  0.000  0.004  0.004
    6  0.000  0.000  0.002  0.003
    7  0.001  0.000  0.003  0.004
    8  0.000  0.000  0.002  0.003
    9  0.000  0.000  0.002  0.002
   10  0.005  0.001  0.018  0.024
   11  0.000  0.000  0.026  0.026
   12  0.001  0.001  0.019  0.021
   13  0.000  0.000  0.026  0.026
   14  0.000  0.000  0.016  0.017
   15  0.001  0.000  0.008  0.009
   16  0.002  0.001  0.019  0.022
   17  0.000  0.000  0.008  0.009
   18  0.005  0.001  0.011  0.017
   19  0.006  0.001  0.031  0.038
   20  0.020  0.000  0.009  0.030
   21  0.005  0.000  0.151  0.156
   22  0.000  0.001  0.036  0.037
   23  0.008  0.000  0.129  0.136
   24  0.000  0.000  0.029  0.030
   25  0.025  0.000  0.043  0.068
   26  0.003  0.001  0.031  0.035
   27  0.000  0.001  0.036  0.037
   28  0.000  0.000  0.006  0.006
   29  0.001  0.000  0.003  0.004
   30  0.000  0.000  0.010  0.011
   31  0.001  0.000  0.003  0.004
   32  0.000  0.000  0.006  0.006
   33  0.000  0.000  0.010  0.011
   34  0.000  0.000  0.005  0.005
   35  0.000  0.000  0.000  0.000
   36  0.000  0.001  0.005  0.006
tot    0.089  0.013  0.721  0.823
 
band     6 # energy   -5.00117733 # occ.  2.00000000
 
ion      s      p      d    tot
    1  0.000  0.000  0.007  0.007
    2  0.000  0.000  0.002  0.002
    3  0.001  0.000  0.002  0.003
    4  0.001  0.000  0.002  0.003
    5  0.000  0.000  0.003  0.003
    6  0.000  0.000  0.002  0.002
    7  0.001  0.000  0.002  0.003
    8  0.000  0.000  0.002  0.002
    9  0.000  0.000  0.001  0.001
   10  0.000  0.001  0.020  0.021
   11  0.000  0.000  0.021  0.022
   12  0.005  0.001  0.018  0.023
   13  0.000  0.000  0.022  0.023
   14  0.000  0.000  0.024  0.024
   15  0.003  0.000  0.009  0.012
   16  0.004  0.001  0.018  0.023
   17  0.003  0.000  0.008  0.012
   18  0.000  0.000  0.009  0.009
   19  0.016  0.001  0.038  0.054
   20  0.000  0.000  0.185  0.185
   21  0.018  0.000  0.043  0.061
   22  0.000  0.001  0.035  0.035
   23  0.015  0.000  0.064  0.079
   24  0.000  0.001  0.034  0.035
   25  0.000  0.001  0.032  0.033
   26  0.018  0.001  0.038  0.056
   27  0.000  0.001  0.034  0.034
   28  0.000  0.000  0.006  0.006
   29  0.000  0.000  0.009  0.009
   30  0.000  0.000  0.004  0.004
   31  0.000  0.000  0.009  0.009
   32  0.001  0.000  0.005  0.007
   33  0.000  0.000  0.004  0.005
   34  0.001  0.000  0.006  0.007
   35  0.000  0.000  0.000  0.000
   36  0.000  0.001  0.005  0.006
tot    0.088  0.013  0.723  0.824
 
band     7 # energy   -5.00110825 # occ.  2.00000000
 
ion      s      p      d    tot
    1  0.011  0.000  0.014  0.025
    2  0.011  0.000  0.025  0.035
    3  0.011  0.000  0.023  0.034
    4  0.011  0.000  0.025  0.035
    5  0.016  0.000  0.031  0.047
    6  0.012  0.000  0.024  0.036
    7  0.011  0.000  0.023  0.034
    8  0.012  0.000  0.024  0.036
    9  0.008  0.000  0.023  0.031
   10  0.001  0.001  0.006  0.008
   11  0.001  0.000  0.033  0.035
   12  0.000  0.001  0.008  0.009
   13  0.001  0.001  0.032  0.034
   14  0.001  0.000  0.040  0.042
   15  0.002  0.000  0.025  0.027
   16  0.000  0.001  0.007  0.009
   17  0.002  0.000  0.026  0.028
   18  0.001  0.000  0.022  0.023
   19  0.005  0.000  0.008  0.013
   20  0.003  0.000  0.044  0.047
   21  0.000  0.000  0.045  0.045
   22  0.001  0.000  0.008  0.009
   23  0.001  0.000  0.045  0.046
   24  0.001  0.000  0.015  0.016
   25  0.002  0.000  0.003  0.004
   26  0.005  0.000  0.009  0.014
   27  0.001  0.000  0.008  0.009
   28  0.001  0.000  0.000  0.001
   29  0.000  0.000  0.010  0.010
   30  0.000  0.000  0.008  0.008
   31  0.000  0.000  0.010  0.010
   32  0.000  0.000  0.010  0.011
   33  0.000  0.000  0.008  0.008
   34  0.000  0.000  0.011  0.011
   35  0.000  0.000  0.000  0.001
   36  0.005  0.000  0.004  0.010
tot    0.137  0.007  0.656  0.801
 
band     8 # energy   -4.97690926 # occ.  2.00000000
 
ion      s      p      d    tot
    1  0.000  0.000  0.005  0.005
    2  0.000  0.000  0.002  0.002
    3  0.001  0.000  0.006  0.008
    4  0.000  0.000  0.002  0.002
    5  0.000  0.000  0.009  0.009
    6  0.002  0.001  0.005  0.008
    7  0.001  0.000  0.006  0.007
    8  0.002  0.001  0.005  0.007
    9  0.000  0.000  0.001  0.001
   10  0.010  0.001  0.013  0.024
   11  0.009  0.001  0.066  0.076
   12  0.002  0.000  0.078  0.081
   13  0.007  0.001  0.070  0.078
   14  0.033  0.001  0.017  0.050
   15  0.002  0.001  0.014  0.017
   16  0.003  0.000  0.073  0.076
   17  0.001  0.001  0.012  0.015
   18  0.005  0.000  0.036  0.041
   19  0.000  0.000  0.017  0.018
   20  0.014  0.001  0.043  0.058
   21  0.003  0.001  0.034  0.037
   22  0.002  0.000  0.022  0.024
   23  0.004  0.001  0.034  0.039
   24  0.010  0.001  0.007  0.017
   25  0.000  0.000  0.016  0.016
   26  0.000  0.000  0.018  0.018
   27  0.003  0.000  0.021  0.024
   28  0.000  0.000  0.001  0.001
   29  0.002  0.000  0.006  0.009
   30  0.001  0.000  0.004  0.006
   31  0.002  0.000  0.006  0.009
   32  0.000  0.000  0.004  0.004
   33  0.001  0.000  0.005  0.006
   34  0.000  0.000  0.004  0.004
   35  0.000  0.000  0.007  0.007
   36  0.000  0.001  0.005  0.006
tot    0.119  0.016  0.673  0.808
 
band     9 # energy   -4.97690592 # occ.  2.00000000
 
ion      s      p      d    tot
    1  0.000  0.000  0.005  0.005
    2  0.001  0.001  0.007  0.009
    3  0.001  0.000  0.003  0.004
    4  0.002  0.001  0.007  0.009
    5  0.000  0.000  0.009  0.009
    6  0.000  0.000  0.004  0.004
    7  0.001  0.000  0.003  0.004
    8  0.000  0.000  0.004  0.004
    9  0.000  0.000  0.001  0.001
   10  0.000  0.000  0.097  0.097
   11  0.023  0.001  0.036  0.060
   12  0.008  0.001  0.032  0.040
   13  0.025  0.001  0.032  0.058
   14  0.000  0.001  0.085  0.086
   15  0.004  0.000  0.027  0.032
   16  0.007  0.001  0.037  0.044
   17  0.004  0.000  0.029  0.034
   18  0.000  0.002  0.006  0.007
   19  0.000  0.000  0.016  0.017
   20  0.000  0.001  0.031  0.032
   21  0.011  0.001  0.040  0.052
   22  0.007  0.001  0.011  0.019
   23  0.010  0.001  0.040  0.050
   24  0.000  0.000  0.026  0.026
   25  0.000  0.000  0.018  0.019
   26  0.000  0.000  0.016  0.016
   27  0.007  0.001  0.012  0.020
   28  0.000  0.000  0.001  0.001
   29  0.000  0.000  0.004  0.004
   30  0.001  0.000  0.005  0.006
   31  0.000  0.000  0.003  0.004
   32  0.002  0.000  0.006  0.009
   33  0.001  0.000  0.005  0.006
   34  0.002  0.000  0.006  0.008
   35  0.000  0.000  0.007  0.007
   36  0.000  0.001  0.005  0.006
tot    0.119  0.016  0.673  0.808
 
band    10 # energy   -4.96023628 # occ.  2.00000000
 
ion      s      p      d    tot
    1  0.000  0.000  0.000  0.000
    2  0.000  0.000  0.006  0.006
    3  0.000  0.000  0.006  0.006
    4  0.000  0.000  0.006  0.006
    5  0.004  0.001  0.002  0.007
    6  0.000  0.000  0.006  0.006
    7  0.000  0.000  0.006  0.006
    8  0.000  0.000  0.006  0.006
    9  0.001  0.000  0.006  0.007
   10  0.007  0.001  0.009  0.018
   11  0.014  0.001  0.034  0.049
   12  0.007  0.001  0.009  0.018
   13  0.014  0.001  0.034  0.049
   14  0.014  0.001  0.034  0.049
   15  0.002  0.000  0.053  0.055
   16  0.007  0.001  0.009  0.018
   17  0.002  0.000  0.053  0.055
   18  0.002  0.000  0.053  0.055
   19  0.011  0.001  0.029  0.040
   20  0.007  0.001  0.021  0.029
   21  0.007  0.001  0.021  0.029
   22  0.000  0.000  0.033  0.034
   23  0.007  0.001  0.021  0.029
   24  0.000  0.000  0.033  0.034
   25  0.011  0.001  0.029  0.040
   26  0.011  0.001  0.029  0.040
   27  0.000  0.000  0.033  0.034
   28  0.005  0.001  0.001  0.007
   29  0.000  0.000  0.009  0.010
   30  0.000  0.000  0.009  0.010
   31  0.000  0.000  0.009  0.010
   32  0.000  0.000  0.009  0.010
   33  0.000  0.000  0.009  0.010
   34  0.000  0.000  0.009  0.010
   35  0.001  0.000  0.001  0.002
   36  0.000  0.000  0.000  0.001
tot    0.136  0.019  0.639  0.793
 
band    11 # energy   -4.94983807 # occ.  2.00000000
 
ion      s      p      d    tot
    1  0.001  0.000  0.030  0.032
    2  0.004  0.000  0.011  0.015
    3  0.004  0.000  0.011  0.015
    4  0.004  0.000  0.011  0.015
    5  0.001  0.000  0.001  0.002
    6  0.004  0.000  0.011  0.015
    7  0.004  0.000  0.011  0.015
    8  0.004  0.000  0.011  0.015
    9  0.012  0.001  0.003  0.015
   10  0.005  0.000  0.051  0.056
   11  0.001  0.000  0.034  0.036
   12  0.005  0.000  0.051  0.056
   13  0.001  0.000  0.034  0.036
   14  0.001  0.000  0.034  0.036
   15  0.002  0.001  0.003  0.006
   16  0.005  0.000  0.051  0.056
   17  0.002  0.001  0.003  0.006
   18  0.002  0.001  0.003  0.006
   19  0.000  0.000  0.017  0.017
   20  0.002  0.000  0.022  0.025
   21  0.002  0.000  0.022  0.025
   22  0.002  0.000  0.022  0.024
   23  0.002  0.000  0.022  0.025
   24  0.002  0.000  0.022  0.024
   25  0.000  0.000  0.017  0.017
   26  0.000  0.000  0.017  0.017
   27  0.002  0.000  0.022  0.024
   28  0.015  0.000  0.012  0.028
   29  0.004  0.000  0.020  0.023
   30  0.004  0.000  0.020  0.023
   31  0.004  0.000  0.020  0.023
   32  0.004  0.000  0.020  0.023
   33  0.004  0.000  0.020  0.023
   34  0.004  0.000  0.020  0.023
   35  0.003  0.000  0.016  0.018
   36  0.000  0.001  0.001  0.001
tot    0.113  0.008  0.692  0.813
 
band    12 # energy   -4.93281860 # occ.  2.00000000
 
ion      s      p      d    tot
    1  0.000  0.001  0.007  0.007
    2  0.004  0.001  0.006  0.011
    3  0.003  0.001  0.004  0.008
    4  0.004  0.001  0.006  0.010
    5  0.000  0.000  0.009  0.009
    6  0.000  0.000  0.007  0.007
    7  0.002  0.000  0.004  0.007
    8  0.000  0.000  0.007  0.007
    9  0.000  0.000  0.011  0.011
   10  0.015  0.000  0.014  0.029
   11  0.000  0.000  0.015  0.016
   12  0.005  0.000  0.027  0.033
   13  0.000  0.000  0.016  0.017
   14  0.000  0.000  0.022  0.023
   15  0.002  0.000  0.045  0.047
   16  0.003  0.000  0.030  0.033
   17  0.003  0.000  0.040  0.044
   18  0.011  0.000  0.012  0.023
   19  0.002  0.000  0.062  0.063
   20  0.003  0.000  0.044  0.047
   21  0.001  0.001  0.025  0.026
   22  0.006  0.000  0.046  0.052
   23  0.001  0.001  0.021  0.023
   24  0.020  0.000  0.009  0.029
   25  0.008  0.000  0.014  0.022
   26  0.002  0.000  0.055  0.058
   27  0.004  0.000  0.052  0.056
   28  0.000  0.000  0.013  0.013
   29  0.000  0.000  0.011  0.012
   30  0.002  0.000  0.007  0.009
   31  0.001  0.000  0.011  0.013
   32  0.005  0.001  0.008  0.014
   33  0.002  0.000  0.006  0.009
   34  0.005  0.001  0.008  0.014
   35  0.000  0.001  0.006  0.007
   36  0.000  0.000  0.004  0.004
tot    0.114  0.013  0.684  0.812
 
band    13 # energy   -4.93281189 # occ.  2.00000000
 
ion      s      p      d    tot
    1  0.000  0.001  0.007  0.007
    2  0.000  0.000  0.005  0.006
    3  0.001  0.001  0.007  0.009
    4  0.001  0.000  0.005  0.006
    5  0.000  0.000  0.009  0.009
    6  0.004  0.001  0.004  0.009
    7  0.002  0.001  0.007  0.010
    8  0.004  0.001  0.005  0.010
    9  0.000  0.000  0.011  0.011
   10  0.000  0.000  0.034  0.034
   11  0.000  0.000  0.021  0.021
   12  0.011  0.000  0.020  0.031
   13  0.000  0.000  0.020  0.020
   14  0.000  0.000  0.014  0.014
   15  0.009  0.000  0.020  0.029
   16  0.013  0.000  0.017  0.030
   17  0.008  0.000  0.025  0.032
   18  0.000  0.000  0.053  0.053
   19  0.006  0.000  0.025  0.032
   20  0.000  0.001  0.016  0.017
   21  0.002  0.000  0.035  0.038
   22  0.014  0.000  0.026  0.040
   23  0.002  0.000  0.039  0.041
   24  0.000  0.000  0.062  0.063
   25  0.000  0.000  0.073  0.073
   26  0.006  0.000  0.032  0.038
   27  0.016  0.000  0.019  0.036
   28  0.000  0.000  0.013  0.013
   29  0.005  0.001  0.006  0.012
   30  0.003  0.001  0.010  0.014
   31  0.004  0.001  0.006  0.011
   32  0.000  0.000  0.009  0.009
   33  0.003  0.001  0.011  0.014
   34  0.000  0.000  0.010  0.010
   35  0.000  0.001  0.006  0.007
   36  0.000  0.000  0.004  0.004
tot    0.114  0.013  0.684  0.812
 
band    14 # energy   -4.92769849 # occ.  2.00000000
 
ion      s      p      d    tot
    1  0.000  0.000  0.000  0.001
    2  0.000  0.000  0.006  0.006
    3  0.000  0.000  0.006  0.006
    4  0.000  0.000  0.006  0.006
    5  0.001  0.000  0.000  0.001
    6  0.000  0.000  0.006  0.006
    7  0.000  0.000  0.006  0.006
    8  0.000  0.000  0.006  0.006
    9  0.001  0.000  0.010  0.011
   10  0.000  0.000  0.042  0.042
   11  0.001  0.000  0.003  0.005
   12  0.000  0.000  0.042  0.042
   13  0.001  0.000  0.003  0.005
   14  0.001  0.000  0.003  0.004
   15  0.004  0.000  0.047  0.051
   16  0.000  0.000  0.042  0.042
   17  0.004  0.000  0.047  0.051
   18  0.004  0.000  0.047  0.051
   19  0.004  0.000  0.040  0.045
   20  0.002  0.000  0.021  0.023
   21  0.002  0.000  0.020  0.023
   22  0.000  0.000  0.060  0.061
   23  0.002  0.000  0.020  0.023
   24  0.000  0.000  0.060  0.061
   25  0.004  0.000  0.040  0.045
   26  0.004  0.000  0.040  0.045
   27  0.000  0.000  0.060  0.061
   28  0.000  0.000  0.005  0.006
   29  0.000  0.000  0.015  0.016
   30  0.000  0.000  0.015  0.016
   31  0.000  0.000  0.015  0.016
   32  0.000  0.000  0.015  0.016
   33  0.000  0.000  0.015  0.016
   34  0.000  0.000  0.015  0.016
   35  0.004  0.000  0.013  0.017
   36  0.001  0.001  0.000  0.003
tot    0.046  0.008  0.792  0.846
 
band    15 # energy   -4.91605923 # occ.  2.00000000
 
ion      s      p      d    tot
    1  0.000  0.000  0.008  0.008
    2  0.000  0.000  0.009  0.009
    3  0.001  0.000  0.006  0.007
    4  0.000  0.000  0.009  0.009
    5  0.000  0.000  0.001  0.001
    6  0.001  0.000  0.005  0.006
    7  0.001  0.000  0.005  0.007
    8  0.001  0.000  0.004  0.006
    9  0.000  0.000  0.013  0.013
   10  0.004  0.000  0.045  0.050
   11  0.000  0.000  0.051  0.052
   12  0.001  0.000  0.021  0.023
   13  0.000  0.000  0.047  0.048
   14  0.001  0.000  0.019  0.021
   15  0.002  0.000  0.082  0.084
   16  0.001  0.000  0.017  0.018
   17  0.003  0.000  0.073  0.076
   18  0.011  0.000  0.017  0.028
   19  0.000  0.000  0.058  0.058
   20  0.000  0.000  0.039  0.040
   21  0.000  0.000  0.017  0.017
   22  0.001  0.000  0.038  0.039
   23  0.000  0.000  0.013  0.013
   24  0.003  0.000  0.033  0.036
   25  0.002  0.000  0.010  0.013
   26  0.001  0.000  0.051  0.052
   27  0.001  0.000  0.039  0.039
   28  0.000  0.000  0.010  0.010
   29  0.002  0.000  0.008  0.010
   30  0.001  0.000  0.006  0.007
   31  0.002  0.000  0.008  0.010
   32  0.000  0.000  0.008  0.009
   33  0.001  0.000  0.006  0.006
   34  0.000  0.000  0.008  0.008
   35  0.000  0.000  0.016  0.016
   36  0.000  0.000  0.001  0.001
tot    0.042  0.007  0.802  0.850
 
band    16 # energy   -4.91604749 # occ.  2.00000000
 
ion      s      p      d    tot
    1  0.000  0.000  0.008  0.008
    2  0.001  0.000  0.004  0.005
    3  0.001  0.000  0.006  0.007
    4  0.001  0.000  0.004  0.006
    5  0.000  0.000  0.001  0.001
    6  0.000  0.000  0.008  0.008
    7  0.001  0.000  0.007  0.008
    8  0.000  0.000  0.008  0.009
    9  0.000  0.000  0.013  0.013
   10  0.000  0.000  0.010  0.011
   11  0.001  0.000  0.027  0.028
   12  0.003  0.000  0.035  0.038
   13  0.001  0.000  0.031  0.033
   14  0.000  0.000  0.059  0.060
   15  0.009  0.000  0.033  0.041
   16  0.004  0.000  0.038  0.042
   17  0.007  0.000  0.042  0.049
   18  0.000  0.000  0.098  0.098
   19  0.002  0.000  0.022  0.024
   20  0.000  0.000  0.007  0.007
   21  0.000  0.000  0.029  0.030
   22  0.002  0.000  0.035  0.037
   23  0.000  0.000  0.033  0.033
   24  0.000  0.000  0.040  0.040
   25  0.000  0.000  0.069  0.069
   26  0.001  0.000  0.028  0.030
   27  0.002  0.000  0.034  0.037
   28  0.000  0.000  0.010  0.010
   29  0.000  0.000  0.007  0.007
   30  0.001  0.000  0.009  0.010
   31  0.000  0.000  0.006  0.007
   32  0.002  0.000  0.006  0.008
   33  0.001  0.000  0.009  0.010
   34  0.002  0.000  0.007  0.009
   35  0.000  0.000  0.016  0.016
   36  0.000  0.000  0.001  0.001
tot    0.042  0.007  0.802  0.850
 
band    17 # energy   -4.80097732 # occ.  2.00000000
 
ion      s      p      d    tot
    1  0.000  0.000  0.001  0.001
    2  0.001  0.001  0.006  0.007
    3  0.000  0.000  0.007  0.007
    4  0.001  0.001  0.006  0.007
    5  0.000  0.001  0.016  0.017
    6  0.001  0.000  0.005  0.007
    7  0.000  0.000  0.007  0.007
    8  0.001  0.000  0.005  0.007
    9  0.000  0.000  0.008  0.008
   10  0.000  0.001  0.021  0.022
   11  0.001  0.000  0.066  0.068
   12  0.000  0.000  0.019  0.019
   13  0.001  0.000  0.068  0.069
   14  0.004  0.000  0.045  0.048
   15  0.001  0.000  0.011  0.012
   16  0.000  0.000  0.019  0.019
   17  0.001  0.000  0.010  0.011
   18  0.003  0.001  0.022  0.026
   19  0.000  0.000  0.009  0.010
   20  0.002  0.000  0.072  0.074
   21  0.001  0.000  0.111  0.112
   22  0.000  0.000  0.028  0.029
   23  0.001  0.000  0.109  0.110
   24  0.000  0.001  0.022  0.023
   25  0.001  0.001  0.028  0.030
   26  0.000  0.000  0.008  0.009
   27  0.000  0.000  0.028  0.028
   28  0.000  0.000  0.005  0.005
   29  0.001  0.000  0.007  0.008
   30  0.000  0.000  0.011  0.011
   31  0.001  0.000  0.007  0.008
   32  0.001  0.001  0.010  0.012
   33  0.000  0.000  0.011  0.011
   34  0.001  0.001  0.010  0.012
   35  0.000  0.000  0.001  0.001
   36  0.000  0.003  0.007  0.010
tot    0.025  0.017  0.825  0.867
 
band    18 # energy   -4.80096790 # occ.  2.00000000
 
ion      s      p      d    tot
    1  0.000  0.000  0.001  0.001
    2  0.000  0.000  0.006  0.006
    3  0.001  0.001  0.005  0.007
    4  0.000  0.000  0.006  0.006
    5  0.000  0.001  0.016  0.017
    6  0.000  0.000  0.007  0.007
    7  0.001  0.001  0.005  0.007
    8  0.000  0.000  0.007  0.007
    9  0.000  0.000  0.008  0.008
   10  0.000  0.000  0.018  0.018
   11  0.003  0.000  0.053  0.056
   12  0.000  0.001  0.020  0.021
   13  0.003  0.000  0.051  0.054
   14  0.000  0.000  0.074  0.075
   15  0.002  0.000  0.018  0.021
   16  0.000  0.001  0.020  0.021
   17  0.002  0.000  0.019  0.021
   18  0.000  0.000  0.006  0.006
   19  0.001  0.001  0.021  0.023
   20  0.000  0.000  0.123  0.123
   21  0.002  0.000  0.084  0.086
   22  0.000  0.001  0.024  0.025
   23  0.002  0.000  0.086  0.088
   24  0.000  0.000  0.030  0.030
   25  0.000  0.000  0.002  0.002
   26  0.001  0.001  0.022  0.024
   27  0.000  0.001  0.024  0.025
   28  0.000  0.000  0.005  0.005
   29  0.001  0.001  0.011  0.012
   30  0.001  0.001  0.008  0.010
   31  0.001  0.001  0.011  0.012
   32  0.000  0.000  0.009  0.009
   33  0.001  0.001  0.008  0.010
   34  0.000  0.000  0.009  0.009
   35  0.000  0.000  0.001  0.001
   36  0.000  0.003  0.007  0.010
tot    0.025  0.017  0.825  0.867
 
band    19 # energy   -4.79591870 # occ.  2.00000000
 
ion      s      p      d    tot
    1  0.000  0.000  0.000  0.000
    2  0.000  0.000  0.004  0.004
    3  0.000  0.000  0.004  0.004
    4  0.000  0.000  0.004  0.004
    5  0.000  0.000  0.016  0.017
    6  0.000  0.000  0.004  0.004
    7  0.000  0.000  0.004  0.004
    8  0.000  0.000  0.004  0.004
    9  0.000  0.000  0.005  0.005
   10  0.000  0.000  0.011  0.011
   11  0.000  0.001  0.079  0.080
   12  0.000  0.000  0.011  0.011
   13  0.000  0.001  0.079  0.080
   14  0.000  0.001  0.079  0.080
   15  0.001  0.001  0.031  0.033
   16  0.000  0.000  0.011  0.011
   17  0.001  0.001  0.031  0.033
   18  0.001  0.001  0.031  0.033
   19  0.001  0.000  0.014  0.015
   20  0.002  0.000  0.067  0.069
   21  0.002  0.000  0.067  0.069
   22  0.003  0.000  0.020  0.024
   23  0.002  0.000  0.067  0.069
   24  0.003  0.000  0.020  0.024
   25  0.001  0.000  0.014  0.015
   26  0.001  0.000  0.014  0.015
   27  0.003  0.000  0.020  0.024
   28  0.007  0.001  0.000  0.008
   29  0.000  0.001  0.017  0.017
   30  0.000  0.001  0.017  0.017
   31  0.000  0.001  0.017  0.017
   32  0.000  0.001  0.017  0.017
   33  0.000  0.001  0.017  0.017
   34  0.000  0.001  0.017  0.017
   35  0.004  0.001  0.001  0.005
   36  0.001  0.001  0.003  0.005
tot    0.033  0.014  0.816  0.862
 
band    20 # energy   -4.76790583 # occ.  2.00000000
 
ion      s      p      d    tot
    1  0.000  0.000  0.002  0.002
    2  0.000  0.001  0.014  0.015
    3  0.000  0.001  0.014  0.015
    4  0.000  0.001  0.014  0.015
    5  0.006  0.001  0.000  0.007
    6  0.000  0.001  0.014  0.015
    7  0.000  0.001  0.014  0.015
    8  0.000  0.001  0.014  0.015
    9  0.004  0.001  0.000  0.005
   10  0.002  0.000  0.037  0.040
   11  0.000  0.000  0.026  0.027
   12  0.002  0.000  0.037  0.040
   13  0.000  0.000  0.026  0.027
   14  0.000  0.000  0.026  0.026
   15  0.005  0.000  0.014  0.019
   16  0.002  0.000  0.037  0.040
   17  0.005  0.000  0.014  0.019
   18  0.005  0.000  0.014  0.019
   19  0.000  0.000  0.063  0.063
   20  0.000  0.000  0.012  0.013
   21  0.000  0.000  0.012  0.013
   22  0.000  0.001  0.040  0.041
   23  0.000  0.000  0.012  0.013
   24  0.000  0.001  0.040  0.041
   25  0.000  0.000  0.063  0.063
   26  0.000  0.000  0.063  0.063
   27  0.000  0.001  0.040  0.041
   28  0.001  0.000  0.029  0.030
   29  0.000  0.000  0.014  0.015
   30  0.000  0.000  0.014  0.015
   31  0.000  0.000  0.014  0.015
   32  0.000  0.000  0.014  0.015
   33  0.000  0.000  0.014  0.015
   34  0.000  0.000  0.014  0.015
   35  0.005  0.001  0.001  0.007
   36  0.003  0.001  0.000  0.004
tot    0.048  0.017  0.781  0.847
 
band    21 # energy   -4.74949509 # occ.  2.00000000
 
ion      s      p      d    tot
    1  0.000  0.001  0.017  0.018
    2  0.001  0.001  0.005  0.007
    3  0.000  0.000  0.009  0.010
    4  0.001  0.001  0.006  0.008
    5  0.000  0.000  0.002  0.002
    6  0.001  0.000  0.005  0.006
    7  0.000  0.000  0.009  0.010
    8  0.001  0.000  0.004  0.005
    9  0.000  0.000  0.003  0.003
   10  0.000  0.000  0.063  0.064
   11  0.000  0.001  0.020  0.021
   12  0.002  0.000  0.060  0.062
   13  0.000  0.001  0.021  0.022
   14  0.000  0.000  0.002  0.002
   15  0.000  0.000  0.032  0.033
   16  0.001  0.000  0.060  0.062
   17  0.000  0.000  0.030  0.030
   18  0.000  0.000  0.067  0.068
   19  0.002  0.000  0.044  0.046
   20  0.000  0.000  0.002  0.002
   21  0.001  0.001  0.037  0.039
   22  0.002  0.000  0.033  0.036
   23  0.001  0.001  0.035  0.036
   24  0.000  0.000  0.031  0.031
   25  0.000  0.000  0.075  0.075
   26  0.002  0.000  0.042  0.044
   27  0.002  0.000  0.033  0.036
   28  0.000  0.001  0.014  0.015
   29  0.001  0.000  0.006  0.008
   30  0.000  0.000  0.011  0.012
   31  0.001  0.000  0.006  0.008
   32  0.002  0.001  0.008  0.011
   33  0.000  0.000  0.011  0.011
   34  0.002  0.001  0.008  0.011
   35  0.000  0.001  0.013  0.014
   36  0.000  0.000  0.001  0.001
tot    0.023  0.014  0.828  0.865
 
band    22 # energy   -4.74947644 # occ.  2.00000000
 
ion      s      p      d    tot
    1  0.000  0.001  0.017  0.018
    2  0.000  0.000  0.008  0.008
    3  0.001  0.001  0.004  0.006
    4  0.000  0.000  0.007  0.008
    5  0.000  0.000  0.002  0.002
    6  0.001  0.001  0.008  0.010
    7  0.001  0.000  0.004  0.005
    8  0.001  0.000  0.009  0.010
    9  0.000  0.000  0.003  0.003
   10  0.002  0.000  0.059  0.061
   11  0.000  0.000  0.009  0.009
   12  0.000  0.000  0.062  0.063
   13  0.000  0.000  0.007  0.008
   14  0.000  0.001  0.027  0.028
   15  0.000  0.000  0.054  0.054
   16  0.001  0.000  0.062  0.063