PROCAR new format
# of k-points:   10         # of bands:  252         # of ions:   38

 k-point     1 :    0.00000000 0.00000000 0.00000000     weight = 0.01562500

band     1 # energy  -22.10564211 # occ.  2.00000000
 
ion      s      p      d    tot
    1  0.000  0.000  0.000  0.000
    2  0.000  0.000  0.000  0.000
    3  0.000  0.000  0.000  0.000
    4  0.000  0.000  0.000  0.000
    5  0.000  0.000  0.000  0.000
    6  0.000  0.000  0.000  0.000
    7  0.000  0.000  0.000  0.000
    8  0.000  0.000  0.000  0.000
    9  0.000  0.000  0.000  0.000
   10  0.000  0.000  0.000  0.000
   11  0.000  0.000  0.000  0.000
   12  0.000  0.000  0.000  0.000
   13  0.000  0.000  0.000  0.000
   14  0.000  0.000  0.000  0.000
   15  0.000  0.000  0.000  0.000
   16  0.000  0.000  0.000  0.000
   17  0.000  0.000  0.000  0.000
   18  0.000  0.000  0.000  0.000
   19  0.000  0.000  0.000  0.000
   20  0.000  0.000  0.000  0.000
   21  0.000  0.000  0.000  0.000
   22  0.000  0.000  0.000  0.000
   23  0.000  0.000  0.000  0.000
   24  0.000  0.000  0.000  0.000
   25  0.000  0.000  0.000  0.000
   26  0.000  0.000  0.000  0.000
   27  0.000  0.000  0.000  0.000
   28  0.000  0.000  0.000  0.000
   29  0.000  0.000  0.000  0.000
   30  0.000  0.000  0.000  0.000
   31  0.000  0.000  0.000  0.000
   32  0.000  0.000  0.000  0.000
   33  0.000  0.000  0.000  0.000
   34  0.000  0.000  0.000  0.000
   35  0.000  0.000  0.000  0.000
   36  0.000  0.000  0.000  0.001
   37  0.158  0.114  0.000  0.272
   38  0.636  0.094  0.000  0.730
tot    0.794  0.209  0.000  1.003
 
band     2 # energy   -8.21902005 # occ.  2.00000000
 
ion      s      p      d    tot
    1  0.002  0.000  0.000  0.003
    2  0.002  0.000  0.000  0.002
    3  0.002  0.000  0.000  0.002
    4  0.002  0.000  0.000  0.002
    5  0.002  0.000  0.000  0.002
    6  0.002  0.000  0.000  0.002
    7  0.002  0.000  0.000  0.002
    8  0.002  0.000  0.000  0.002
    9  0.002  0.000  0.000  0.002
   10  0.011  0.000  0.000  0.011
   11  0.011  0.000  0.000  0.011
   12  0.011  0.000  0.000  0.011
   13  0.011  0.000  0.000  0.011
   14  0.011  0.000  0.000  0.011
   15  0.010  0.000  0.000  0.010
   16  0.011  0.000  0.000  0.011
   17  0.010  0.000  0.000  0.010
   18  0.010  0.000  0.000  0.010
   19  0.012  0.000  0.000  0.012
   20  0.017  0.000  0.001  0.018
   21  0.017  0.000  0.001  0.018
   22  0.012  0.000  0.000  0.012
   23  0.017  0.000  0.001  0.018
   24  0.012  0.000  0.000  0.012
   25  0.012  0.000  0.000  0.012
   26  0.012  0.000  0.000  0.012
   27  0.012  0.000  0.000  0.012
   28  0.003  0.000  0.000  0.003
   29  0.005  0.000  0.000  0.005
   30  0.005  0.000  0.000  0.005
   31  0.005  0.000  0.000  0.005
   32  0.005  0.000  0.000  0.005
   33  0.005  0.000  0.000  0.005
   34  0.005  0.000  0.000  0.005
   35  0.003  0.000  0.000  0.003
   36  0.057  0.015  0.063  0.136
   37  0.150  0.011  0.000  0.161
   38  0.063  0.075  0.000  0.138
tot    0.543  0.105  0.068  0.717
 
band     3 # energy   -7.97171260 # occ.  2.00000000
 
ion      s      p      d    tot
    1  0.005  0.000  0.000  0.005
    2  0.005  0.000  0.000  0.005
    3  0.005  0.000  0.000  0.005
    4  0.005  0.000  0.000  0.005
    5  0.005  0.000  0.000  0.005
    6  0.005  0.000  0.000  0.005
    7  0.005  0.000  0.000  0.005
    8  0.005  0.000  0.000  0.005
    9  0.005  0.000  0.000  0.005
   10  0.017  0.000  0.000  0.017
   11  0.017  0.000  0.000  0.017
   12  0.017  0.000  0.000  0.017
   13  0.017  0.000  0.000  0.017
   14  0.017  0.000  0.000  0.017
   15  0.018  0.000  0.000  0.018
   16  0.017  0.000  0.000  0.017
   17  0.018  0.000  0.000  0.018
   18  0.018  0.000  0.000  0.018
   19  0.012  0.000  0.000  0.012
   20  0.008  0.001  0.001  0.010
   21  0.008  0.001  0.001  0.010
   22  0.012  0.000  0.000  0.013
   23  0.008  0.001  0.001  0.010
   24  0.012  0.000  0.000  0.013
   25  0.012  0.000  0.000  0.012
   26  0.012  0.000  0.000  0.012
   27  0.012  0.000  0.000  0.013
   28  0.002  0.000  0.000  0.002
   29  0.001  0.000  0.000  0.001
   30  0.001  0.000  0.000  0.001
   31  0.001  0.000  0.000  0.001
   32  0.001  0.000  0.000  0.001
   33  0.001  0.000  0.000  0.001
   34  0.001  0.000  0.000  0.001
   35  0.002  0.000  0.000  0.002
   36  0.017  0.023  0.050  0.089
   37  0.135  0.005  0.000  0.140
   38  0.062  0.088  0.000  0.150
tot    0.518  0.125  0.057  0.700
 
band     4 # energy   -6.87712069 # occ.  2.00000000
 
ion      s      p      d    tot
    1  0.017  0.000  0.001  0.019
    2  0.016  0.000  0.001  0.018
    3  0.016  0.000  0.001  0.018
    4  0.016  0.000  0.001  0.018
    5  0.016  0.000  0.001  0.018
    6  0.016  0.000  0.001  0.018
    7  0.016  0.000  0.001  0.018
    8  0.016  0.000  0.001  0.018
    9  0.016  0.000  0.001  0.018
   10  0.010  0.002  0.002  0.014
   11  0.009  0.002  0.002  0.013
   12  0.010  0.002  0.002  0.014
   13  0.009  0.002  0.002  0.013
   14  0.009  0.002  0.002  0.013
   15  0.009  0.002  0.003  0.013
   16  0.010  0.002  0.002  0.014
   17  0.009  0.002  0.003  0.013
   18  0.009  0.002  0.003  0.013
   19  0.016  0.001  0.004  0.021
   20  0.014  0.001  0.004  0.019
   21  0.014  0.001  0.004  0.019
   22  0.017  0.001  0.004  0.021
   23  0.014  0.001  0.004  0.019
   24  0.017  0.001  0.004  0.021
   25  0.016  0.001  0.004  0.021
   26  0.016  0.001  0.004  0.021
   27  0.017  0.001  0.004  0.021
   28  0.014  0.001  0.000  0.015
   29  0.012  0.001  0.000  0.013
   30  0.012  0.001  0.000  0.013
   31  0.012  0.001  0.000  0.013
   32  0.012  0.001  0.000  0.013
   33  0.012  0.001  0.000  0.013
   34  0.012  0.001  0.000  0.013
   35  0.014  0.001  0.000  0.015
   36  0.006  0.002  0.001  0.009
   37  0.005  0.001  0.000  0.006
   38  0.005  0.016  0.000  0.021
tot    0.486  0.050  0.074  0.609
 
band     5 # energy   -5.98447465 # occ.  2.00000000
 
ion      s      p      d    tot
    1  0.003  0.001  0.004  0.008
    2  0.001  0.000  0.005  0.006
    3  0.001  0.000  0.005  0.006
    4  0.001  0.000  0.005  0.006
    5  0.000  0.000  0.000  0.000
    6  0.001  0.000  0.005  0.006
    7  0.001  0.000  0.005  0.006
    8  0.001  0.000  0.005  0.006
    9  0.016  0.001  0.000  0.017
   10  0.012  0.000  0.022  0.034
   11  0.005  0.002  0.011  0.018
   12  0.012  0.000  0.022  0.034
   13  0.005  0.002  0.011  0.018
   14  0.005  0.002  0.011  0.018
   15  0.020  0.002  0.006  0.028
   16  0.012  0.000  0.022  0.034
   17  0.020  0.002  0.006  0.028
   18  0.020  0.002  0.006  0.028
   19  0.000  0.001  0.020  0.021
   20  0.022  0.001  0.024  0.047
   21  0.022  0.001  0.024  0.047
   22  0.019  0.002  0.003  0.024
   23  0.022  0.001  0.024  0.047
   24  0.019  0.002  0.003  0.024
   25  0.000  0.001  0.020  0.021
   26  0.000  0.001  0.020  0.021
   27  0.019  0.002  0.003  0.024
   28  0.002  0.000  0.000  0.002
   29  0.001  0.000  0.004  0.006
   30  0.001  0.000  0.004  0.006
   31  0.001  0.000  0.004  0.006
   32  0.001  0.000  0.004  0.006
   33  0.001  0.000  0.004  0.006
   34  0.001  0.000  0.004  0.006
   35  0.012  0.001  0.000  0.013
   36  0.013  0.000  0.024  0.038
   37  0.000  0.018  0.000  0.018
   38  0.006  0.037  0.000  0.043
tot    0.295  0.090  0.341  0.725
 
band     6 # energy   -5.96327340 # occ.  2.00000000
 
ion      s      p      d    tot
    1  0.027  0.000  0.019  0.045
    2  0.020  0.000  0.020  0.040
    3  0.020  0.000  0.020  0.040
    4  0.020  0.000  0.020  0.040
    5  0.017  0.000  0.021  0.038
    6  0.020  0.000  0.020  0.040
    7  0.020  0.000  0.020  0.040
    8  0.020  0.000  0.020  0.040
    9  0.018  0.000  0.020  0.038
   10  0.004  0.000  0.027  0.031
   11  0.011  0.001  0.022  0.033
   12  0.004  0.000  0.027  0.031
   13  0.011  0.001  0.022  0.033
   14  0.011  0.001  0.022  0.033
   15  0.011  0.001  0.022  0.034
   16  0.004  0.000  0.027  0.031
   17  0.011  0.001  0.022  0.034
   18  0.011  0.001  0.022  0.034
   19  0.001  0.000  0.002  0.004
   20  0.000  0.001  0.004  0.005
   21  0.000  0.001  0.004  0.005
   22  0.000  0.001  0.003  0.004
   23  0.000  0.001  0.004  0.005
   24  0.000  0.001  0.003  0.004
   25  0.001  0.000  0.002  0.004
   26  0.001  0.000  0.002  0.004
   27  0.000  0.001  0.003  0.004
   28  0.002  0.000  0.000  0.003
   29  0.001  0.000  0.000  0.001
   30  0.001  0.000  0.000  0.001
   31  0.001  0.000  0.000  0.001
   32  0.001  0.000  0.000  0.001
   33  0.001  0.000  0.000  0.001
   34  0.001  0.000  0.000  0.001
   35  0.000  0.000  0.000  0.001
   36  0.003  0.000  0.001  0.004
   37  0.000  0.003  0.000  0.003
   38  0.001  0.008  0.000  0.009
tot    0.278  0.022  0.427  0.726
 
band     7 # energy   -5.93908176 # occ.  2.00000000
 
ion      s      p      d    tot
    1  0.000  0.001  0.009  0.010
    2  0.004  0.001  0.004  0.008
    3  0.007  0.001  0.003  0.011
    4  0.004  0.001  0.004  0.008
    5  0.000  0.001  0.007  0.008
    6  0.001  0.000  0.003  0.004
    7  0.007  0.001  0.003  0.011
    8  0.000  0.000  0.003  0.004
    9  0.000  0.000  0.001  0.001
   10  0.000  0.000  0.040  0.040
   11  0.039  0.001  0.015  0.055
   12  0.030  0.002  0.013  0.045
   13  0.039  0.001  0.015  0.055
   14  0.000  0.004  0.023  0.026
   15  0.001  0.001  0.011  0.013
   16  0.030  0.002  0.013  0.045
   17  0.001  0.001  0.011  0.013
   18  0.000  0.003  0.006  0.009
   19  0.009  0.001  0.011  0.021
   20  0.000  0.002  0.034  0.036
   21  0.044  0.002  0.014  0.060
   22  0.011  0.001  0.010  0.023
   23  0.044  0.002  0.015  0.060
   24  0.000  0.000  0.026  0.026
   25  0.000  0.004  0.004  0.008
   26  0.009  0.001  0.011  0.021
   27  0.011  0.001  0.011  0.023
   28  0.000  0.000  0.001  0.001
   29  0.000  0.000  0.002  0.003
   30  0.004  0.001  0.003  0.007
   31  0.000  0.000  0.002  0.002
   32  0.005  0.001  0.003  0.009
   33  0.004  0.001  0.003  0.007
   34  0.004  0.001  0.003  0.009
   35  0.000  0.000  0.004  0.004
   36  0.000  0.002  0.007  0.009
   37  0.000  0.000  0.000  0.000
   38  0.000  0.000  0.000  0.000
tot    0.306  0.044  0.347  0.696
 
band     8 # energy   -5.93906191 # occ.  2.00000000
 
ion      s      p      d    tot
    1  0.000  0.001  0.009  0.010
    2  0.004  0.001  0.003  0.007
    3  0.001  0.000  0.003  0.004
    4  0.004  0.001  0.003  0.007
    5  0.000  0.001  0.007  0.008
    6  0.007  0.001  0.004  0.012
    7  0.000  0.000  0.003  0.004
    8  0.007  0.001  0.004  0.012
    9  0.000  0.000  0.001  0.001
   10  0.040  0.002  0.004  0.046
   11  0.013  0.003  0.020  0.036
   12  0.010  0.001  0.031  0.042
   13  0.013  0.003  0.020  0.036
   14  0.052  0.001  0.012  0.065
   15  0.000  0.003  0.008  0.010
   16  0.010  0.001  0.031  0.042
   17  0.000  0.003  0.007  0.010
   18  0.001  0.000  0.013  0.014
   19  0.003  0.003  0.006  0.012
   20  0.059  0.002  0.008  0.068
   21  0.014  0.002  0.028  0.044
   22  0.004  0.001  0.021  0.025
   23  0.015  0.002  0.028  0.044
   24  0.015  0.002  0.005  0.022
   25  0.012  0.000  0.014  0.026
   26  0.003  0.003  0.006  0.012
   27  0.004  0.001  0.021  0.025
   28  0.000  0.000  0.001  0.001
   29  0.005  0.001  0.003  0.010
   30  0.002  0.001  0.003  0.005
   31  0.005  0.001  0.003  0.010
   32  0.001  0.000  0.002  0.003
   33  0.002  0.001  0.003  0.005
   34  0.001  0.000  0.002  0.003
   35  0.000  0.000  0.004  0.004
   36  0.000  0.002  0.007  0.009
   37  0.000  0.000  0.000  0.000
   38  0.000  0.000  0.000  0.000
tot    0.306  0.044  0.347  0.696
 
band     9 # energy   -5.91694213 # occ.  2.00000000
 
ion      s      p      d    tot
    1  0.005  0.001  0.001  0.007
    2  0.000  0.001  0.006  0.007
    3  0.000  0.001  0.006  0.007
    4  0.000  0.001  0.006  0.007
    5  0.019  0.002  0.001  0.022
    6  0.000  0.001  0.006  0.007
    7  0.000  0.001  0.006  0.007
    8  0.000  0.001  0.006  0.007
    9  0.000  0.000  0.003  0.003
   10  0.022  0.003  0.003  0.028
   11  0.023  0.001  0.020  0.044
   12  0.022  0.003  0.003  0.028
   13  0.023  0.001  0.020  0.044
   14  0.023  0.001  0.020  0.044
   15  0.002  0.001  0.027  0.029
   16  0.022  0.003  0.003  0.028
   17  0.002  0.001  0.027  0.029
   18  0.002  0.001  0.027  0.029
   19  0.023  0.002  0.009  0.034
   20  0.009  0.003  0.012  0.024
   21  0.009  0.003  0.012  0.024
   22  0.006  0.000  0.026  0.032
   23  0.009  0.003  0.012  0.024
   24  0.006  0.000  0.026  0.033
   25  0.023  0.002  0.009  0.034
   26  0.023  0.002  0.009  0.034
   27  0.006  0.000  0.026  0.032
   28  0.012  0.001  0.001  0.014
   29  0.000  0.000  0.004  0.004
   30  0.000  0.000  0.004  0.004
   31  0.000  0.000  0.004  0.004
   32  0.000  0.000  0.004  0.004
   33  0.000  0.000  0.004  0.004
   34  0.000  0.000  0.004  0.004
   35  0.002  0.001  0.003  0.006
   36  0.001  0.000  0.000  0.001
   37  0.000  0.000  0.000  0.000
   38  0.000  0.000  0.000  0.000
tot    0.300  0.041  0.356  0.696
 
band    10 # energy   -5.90916011 # occ.  2.00000000
 
ion      s      p      d    tot
    1  0.000  0.001  0.003  0.004
    2  0.004  0.001  0.004  0.009
    3  0.008  0.001  0.004  0.013
    4  0.004  0.001  0.004  0.009
    5  0.000  0.000  0.005  0.005
    6  0.001  0.000  0.003  0.004
    7  0.008  0.001  0.004  0.013
    8  0.001  0.000  0.003  0.004
    9  0.000  0.001  0.011  0.012
   10  0.023  0.000  0.017  0.040
   11  0.002  0.001  0.021  0.024
   12  0.006  0.004  0.007  0.016
   13  0.002  0.001  0.021  0.025
   14  0.010  0.001  0.007  0.018
   15  0.017  0.001  0.033  0.050
   16  0.006  0.003  0.007  0.017
   17  0.015  0.001  0.034  0.050
   18  0.063  0.002  0.006  0.070
   19  0.010  0.001  0.028  0.039
   20  0.000  0.001  0.012  0.013
   21  0.000  0.002  0.010  0.012
   22  0.009  0.003  0.016  0.028
   23  0.000  0.002  0.010  0.012
   24  0.038  0.001  0.012  0.051
   25  0.039  0.002  0.003  0.045
   26  0.009  0.001  0.029  0.039
   27  0.010  0.003  0.016  0.029
   28  0.000  0.000  0.006  0.007
   29  0.000  0.000  0.002  0.003
   30  0.003  0.001  0.002  0.005
   31  0.000  0.000  0.002  0.002
   32  0.005  0.001  0.003  0.008
   33  0.002  0.001  0.002  0.005
   34  0.005  0.001  0.003  0.008
   35  0.000  0.001  0.004  0.005
   36  0.000  0.000  0.001  0.001
   37  0.000  0.000  0.000  0.000
   38  0.000  0.000  0.000  0.000
tot    0.300  0.042  0.351  0.694
 
band    11 # energy   -5.90913950 # occ.  2.00000000
 
ion      s      p      d    tot
    1  0.000  0.001  0.003  0.004
    2  0.004  0.001  0.003  0.008
    3  0.001  0.000  0.004  0.005
    4  0.004  0.001  0.003  0.008
    5  0.000  0.000  0.005  0.005
    6  0.008  0.001  0.004  0.013
    7  0.000  0.000  0.004  0.004
    8  0.008  0.001  0.004  0.013
    9  0.000  0.001  0.011  0.012
   10  0.000  0.005  0.004  0.008
   11  0.007  0.001  0.012  0.020
   12  0.018  0.001  0.014  0.033
   13  0.007  0.001  0.012  0.020
   14  0.000  0.001  0.025  0.027
   15  0.046  0.001  0.015  0.063
   16  0.017  0.001  0.013  0.032
   17  0.048  0.001  0.014  0.064
   18  0.000  0.001  0.042  0.043
   19  0.029  0.002  0.012  0.043
   20  0.000  0.002  0.009  0.011
   21  0.000  0.001  0.012  0.013
   22  0.029  0.001  0.013  0.043
   23  0.000  0.001  0.011  0.013
   24  0.000  0.004  0.017  0.021
   25  0.000  0.000  0.037  0.037
   26  0.030  0.002  0.011  0.043
   27  0.028  0.001  0.013  0.043
   28  0.000  0.000  0.006  0.007
   29  0.005  0.001  0.002  0.008
   30  0.002  0.000  0.003  0.005
   31  0.005  0.001  0.002  0.008
   32  0.000  0.000  0.002  0.002
   33  0.002  0.001  0.003  0.006
   34  0.000  0.000  0.002  0.002
   35  0.000  0.001  0.004  0.005
   36  0.000  0.000  0.001  0.001
   37  0.000  0.000  0.000  0.000
   38  0.000  0.000  0.000  0.000
tot    0.300  0.042  0.351  0.694
 
band    12 # energy   -5.80777942 # occ.  2.00000000
 
ion      s      p      d    tot
    1  0.000  0.000  0.000  0.000
    2  0.000  0.000  0.000  0.001
    3  0.000  0.000  0.000  0.001
    4  0.000  0.000  0.000  0.001
    5  0.001  0.000  0.000  0.002
    6  0.000  0.000  0.000  0.001
    7  0.000  0.000  0.000  0.001
    8  0.000  0.000  0.000  0.001
    9  0.000  0.000  0.000  0.000
   10  0.000  0.000  0.003  0.004
   11  0.001  0.000  0.002  0.004
   12  0.000  0.000  0.003  0.004
   13  0.001  0.000  0.002  0.004
   14  0.001  0.000  0.002  0.004
   15  0.000  0.000  0.004  0.005
   16  0.000  0.000  0.003  0.004
   17  0.000  0.000  0.004  0.005
   18  0.000  0.000  0.004  0.005
   19  0.007  0.001  0.021  0.028
   20  0.003  0.000  0.026  0.029
   21  0.003  0.000  0.026  0.029
   22  0.007  0.001  0.026  0.033
   23  0.003  0.000  0.026  0.029
   24  0.007  0.001  0.026  0.033
   25  0.007  0.001  0.021  0.028
   26  0.007  0.001  0.021  0.028
   27  0.007  0.001  0.026  0.033
   28  0.024  0.000  0.022  0.045
   29  0.024  0.000  0.020  0.044
   30  0.024  0.000  0.020  0.044
   31  0.024  0.000  0.020  0.044
   32  0.024  0.000  0.020  0.044
   33  0.024  0.000  0.020  0.044
   34  0.024  0.000  0.020  0.044
   35  0.027  0.000  0.020  0.047
   36  0.019  0.002  0.003  0.024
   37  0.000  0.009  0.000  0.009
   38  0.003  0.024  0.000  0.027
tot    0.278  0.044  0.409  0.731
 
band    13 # energy   -5.59616265 # occ.  2.00000000
 
ion      s      p      d    tot
    1  0.000  0.000  0.001  0.001
    2  0.000  0.000  0.004  0.005
    3  0.000  0.000  0.004  0.005
    4  0.000  0.000  0.004  0.005
    5  0.006  0.000  0.000  0.007
    6  0.000  0.000  0.004  0.005
    7  0.000  0.000  0.004  0.005
    8  0.000  0.000  0.004  0.005
    9  0.008  0.001  0.002  0.011
   10  0.002  0.000  0.023  0.026
   11  0.003  0.001  0.005  0.009
   12  0.002  0.000  0.023  0.026
   13  0.003  0.001  0.005  0.009
   14  0.003  0.001  0.005  0.009
   15  0.015  0.001  0.007  0.023
   16  0.002  0.000  0.023  0.026
   17  0.015  0.001  0.007  0.023
   18  0.015  0.001  0.007  0.023
   19  0.004  0.001  0.006  0.011
   20  0.001  0.002  0.017  0.019
   21  0.001  0.002  0.017  0.019
   22  0.000  0.001  0.011  0.012
   23  0.001  0.002  0.017  0.019
   24  0.000  0.001  0.011  0.012
   25  0.004  0.001  0.006  0.011
   26  0.004  0.001  0.006  0.011
   27  0.000  0.001  0.011  0.012
   28  0.004  0.000  0.000  0.004
   29  0.000  0.000  0.002  0.002
   30  0.000  0.000  0.002  0.002
   31  0.000  0.000  0.002  0.002
   32  0.000  0.000  0.002  0.002
   33  0.000  0.000  0.002  0.002
   34  0.000  0.000  0.002  0.002
   35  0.003  0.000  0.000  0.003
   36  0.040  0.007  0.107  0.154
   37  0.003  0.114  0.000  0.117
   38  0.021  0.182  0.000  0.203
tot    0.162  0.327  0.352  0.841
 
band    14 # energy   -5.45583360 # occ.  2.00000000
 
ion      s      p      d    tot
    1  0.017  0.002  0.002  0.021
    2  0.000  0.001  0.008  0.009
    3  0.000  0.001  0.008  0.009
    4  0.000  0.001  0.008  0.009
    5  0.000  0.000  0.002  0.002
    6  0.000  0.001  0.008  0.009
    7  0.000  0.001  0.008  0.009
    8  0.000  0.001  0.008  0.009
    9  0.014  0.001  0.000  0.015
   10  0.009  0.002  0.011  0.021
   11  0.004  0.000  0.038  0.042
   12  0.009  0.002  0.011  0.021
   13  0.004  0.000  0.038  0.042
   14  0.004  0.000  0.038  0.042
   15  0.001  0.001  0.030  0.033
   16  0.009  0.002  0.011  0.021
   17  0.001  0.001  0.030  0.033
   18  0.001  0.001  0.030  0.033
   19  0.007  0.001  0.010  0.018
   20  0.001  0.000  0.046  0.046
   21  0.001  0.000  0.046  0.046
   22  0.011  0.001  0.025  0.037
   23  0.001  0.000  0.046  0.046
   24  0.011  0.001  0.025  0.037
   25  0.007  0.001  0.010  0.018
   26  0.007  0.001  0.010  0.018
   27  0.011  0.001  0.025  0.037
   28  0.012  0.002  0.001  0.015
   29  0.000  0.001  0.006  0.006
   30  0.000  0.001  0.006  0.006
   31  0.000  0.001  0.006  0.006
   32  0.000  0.001  0.006  0.006
   33  0.000  0.001  0.006  0.006
   34  0.000  0.001  0.006  0.006
   35  0.007  0.001  0.002  0.011
   36  0.002  0.000  0.000  0.002
   37  0.000  0.001  0.000  0.001
   38  0.000  0.001  0.000  0.001
tot    0.154  0.031  0.568  0.752
 
band    15 # energy   -5.44611492 # occ.  2.00000000
 
ion      s      p      d    tot
    1  0.000  0.001  0.004  0.005
    2  0.009  0.001  0.004  0.015
    3  0.001  0.000  0.005  0.006
    4  0.009  0.001  0.004  0.015
    5  0.000  0.001  0.011  0.013
    6  0.004  0.001  0.005  0.010
    7  0.001  0.000  0.004  0.006
    8  0.004  0.001  0.005  0.010
    9  0.000  0.000  0.009  0.009
   10  0.010  0.002  0.008  0.020
   11  0.005  0.000  0.040  0.046
   12  0.002  0.001  0.042  0.046
   13  0.005  0.000  0.041  0.046
   14  0.019  0.001  0.012  0.032
   15  0.000  0.001  0.014  0.016
   16  0.002  0.001  0.041  0.045
   17  0.000  0.001  0.014  0.015
   18  0.001  0.000  0.023  0.025
   19  0.003  0.001  0.015  0.019
   20  0.024  0.001  0.006  0.031
   21  0.006  0.000  0.055  0.061
   22  0.001  0.001  0.029  0.031
   23  0.006  0.000  0.054  0.060
   24  0.003  0.001  0.014  0.018
   25  0.010  0.000  0.022  0.032
   26  0.002  0.001  0.015  0.018
   27  0.001  0.001  0.029  0.031
   28  0.000  0.000  0.008  0.008
   29  0.007  0.001  0.004  0.012
   30  0.000  0.000  0.004  0.004
   31  0.007  0.001  0.004  0.012
   32  0.005  0.001  0.004  0.010
   33  0.000  0.000  0.004  0.004
   34  0.005  0.001  0.004  0.010
   35  0.000  0.000  0.003  0.003
   36  0.000  0.003  0.006  0.008
   37  0.000  0.000  0.000  0.000
   38  0.000  0.000  0.000  0.000
tot    0.154  0.031  0.567  0.752
 
band    16 # energy   -5.44611207 # occ.  2.00000000
 
ion      s      p      d    tot
    1  0.000  0.001  0.004  0.005
    2  0.000  0.000  0.005  0.006
    3  0.008  0.001  0.005  0.014
    4  0.000  0.000  0.005  0.006
    5  0.000  0.001  0.011  0.013
    6  0.006  0.001  0.004  0.011
    7  0.008  0.001  0.005  0.014
    8  0.006  0.001  0.004  0.011
    9  0.000  0.000  0.009  0.009
   10  0.000  0.001  0.053  0.054
   11  0.014  0.001  0.022  0.037
   12  0.007  0.002  0.019  0.028
   13  0.015  0.001  0.021  0.037
   14  0.000  0.000  0.050  0.050
   15  0.001  0.001  0.020  0.022
   16  0.007  0.002  0.020  0.029
   17  0.001  0.000  0.021  0.022
   18  0.000  0.001  0.011  0.012
   19  0.007  0.000  0.020  0.027
   20  0.000  0.000  0.070  0.070
   21  0.018  0.001  0.021  0.040
   22  0.002  0.001  0.019  0.022
   23  0.018  0.001  0.023  0.041
   24  0.000  0.001  0.035  0.036
   25  0.000  0.001  0.013  0.014
   26  0.007  0.000  0.020  0.028
   27  0.002  0.001  0.019  0.022
   28  0.000  0.000  0.008  0.008
   29  0.001  0.000  0.004  0.005
   30  0.008  0.001  0.004  0.013
   31  0.001  0.000  0.004  0.006
   32  0.003  0.001  0.004  0.008
   33  0.008  0.001  0.004  0.013
   34  0.003  0.001  0.004  0.008
   35  0.000  0.000  0.003  0.003
   36  0.000  0.003  0.006  0.008
   37  0.000  0.000  0.000  0.000
   38  0.000  0.000  0.000  0.000
tot    0.154  0.031  0.567  0.752
 
band    17 # energy   -5.41784401 # occ.  2.00000000
 
ion      s      p      d    tot
    1  0.000  0.001  0.015  0.015
    2  0.010  0.001  0.005  0.016
    3  0.002  0.000  0.005  0.007
    4  0.010  0.001  0.005  0.016
    5  0.000  0.000  0.005  0.005
    6  0.003  0.001  0.006  0.010
    7  0.002  0.000  0.005  0.007
    8  0.003  0.001  0.006  0.010
    9  0.000  0.001  0.008  0.009
   10  0.000  0.001  0.027  0.028
   11  0.001  0.001  0.019  0.021
   12  0.006  0.000  0.023  0.029
   13  0.001  0.001  0.019  0.021
   14  0.000  0.001  0.022  0.023
   15  0.012  0.002  0.021  0.034
   16  0.006  0.000  0.023  0.029
   17  0.012  0.002  0.021  0.034
   18  0.000  0.000  0.064  0.064
   19  0.012  0.001  0.020  0.033
   20  0.000  0.002  0.016  0.017
   21  0.000  0.001  0.021  0.022
   22  0.018  0.001  0.021  0.040
   23  0.000  0.001  0.021  0.022
   24  0.000  0.000  0.037  0.037
   25  0.000  0.000  0.065  0.065
   26  0.013  0.001  0.019  0.033
   27  0.018  0.001  0.021  0.040
   28  0.000  0.001  0.004  0.005
   29  0.006  0.001  0.004  0.011
   30  0.000  0.000  0.004  0.005
   31  0.006  0.001  0.004  0.011
   32  0.004  0.001  0.002  0.007
   33  0.000  0.000  0.004  0.005
   34  0.004  0.001  0.002  0.007
   35  0.000  0.001  0.008  0.009
   36  0.000  0.000  0.002  0.002
   37  0.000  0.000  0.000  0.000
   38  0.000  0.000  0.000  0.000
tot    0.151  0.029  0.571  0.751
 
band    18 # energy   -5.41783018 # occ.  2.00000000
 
ion      s      p      d    tot
    1  0.000  0.001  0.015  0.015
    2  0.000  0.000  0.005  0.006
    3  0.008  0.001  0.005  0.015
    4  0.000  0.000  0.005  0.006
    5  0.000  0.000  0.005  0.005
    6  0.007  0.001  0.004  0.012
    7  0.008  0.001  0.005  0.015
    8  0.007  0.001  0.004  0.012
    9  0.000  0.001  0.008  0.009
   10  0.009  0.000  0.021  0.030
   11  0.000  0.001  0.021  0.022
   12  0.002  0.001  0.026  0.028
   13  0.000  0.001  0.021  0.022
   14  0.001  0.001  0.018  0.021
   15  0.004  0.001  0.050  0.054
   16  0.002  0.001  0.026  0.028
   17  0.004  0.001  0.050  0.054
   18  0.016  0.002  0.006  0.024
   19  0.004  0.001  0.049  0.054
   20  0.001  0.000  0.023  0.024
   21  0.000  0.001  0.018  0.019
   22  0.006  0.001  0.031  0.038
   23  0.000  0.001  0.018  0.019
   24  0.024  0.001  0.016  0.040
   25  0.017  0.001  0.005  0.023
   26  0.004  0.001  0.050  0.054
   27  0.006  0.001  0.031  0.038
   28  0.000  0.001  0.004  0.005
   29  0.001  0.000  0.003  0.004
   30  0.006  0.001  0.003  0.010
   31  0.001  0.000  0.003  0.004
   32  0.003  0.001  0.005  0.008
   33  0.006  0.001  0.003  0.010
   34  0.003  0.001  0.005  0.008
   35  0.000  0.001  0.008  0.009
   36  0.000  0.000  0.002  0.002
   37  0.000  0.000  0.000  0.000
   38  0.000  0.000  0.000  0.000
tot    0.151  0.029  0.571  0.751
 
band    19 # energy   -5.31706922 # occ.  2.00000000
 
ion      s      p      d    tot
    1  0.011  0.000  0.001  0.012
    2  0.000  0.000  0.009  0.009
    3  0.000  0.000  0.009  0.009
    4  0.000  0.000  0.009  0.009
    5  0.014  0.001  0.001  0.016
    6  0.000  0.000  0.009  0.009
    7  0.000  0.000  0.009  0.009
    8  0.000  0.000  0.009  0.009
    9  0.000  0.000  0.002  0.002
   10  0.000  0.000  0.029  0.029
   11  0.002  0.001  0.022  0.025
   12  0.000  0.000  0.029  0.029
   13  0.002  0.001  0.022  0.025
   14  0.002  0.001  0.022  0.025
   15  0.001  0.000  0.018  0.019
   16  0.000  0.000  0.029  0.029
   17  0.001  0.000  0.018  0.019
   18  0.001  0.000  0.018  0.019
   19  0.003  0.000  0.043  0.046
   20  0.010  0.000  0.006  0.016
   21  0.010  0.000  0.006  0.016
   22  0.001  0.000  0.022  0.024
   23  0.010  0.000  0.006  0.016
   24  0.001  0.000  0.022  0.024
   25  0.003  0.000  0.043  0.046
   26  0.003  0.000  0.043  0.046
   27  0.001  0.000  0.022  0.024
   28  0.002  0.000  0.007  0.009
   29  0.001  0.000  0.007  0.008
   30  0.001  0.000  0.007  0.008
   31  0.001  0.000  0.007  0.008
   32  0.001  0.000  0.007  0.008
   33  0.001  0.000  0.007  0.008
   34  0.001  0.000  0.007  0.008
   35  0.001  0.000  0.000  0.002
   36  0.003  0.015  0.046  0.065
   37  0.004  0.051  0.000  0.055
   38  0.006  0.068  0.000  0.075
tot    0.099  0.149  0.570  0.817
 
band    20 # energy   -5.18358571 # occ.  2.00000000
 
ion      s      p      d    tot
    1  0.000  0.000  0.001  0.001
    2  0.000  0.000  0.000  0.001
    3  0.001  0.000  0.000  0.001
    4  0.000  0.000  0.000  0.001
    5  0.000  0.000  0.001  0.001
    6  0.000  0.000  0.000  0.000
    7  0.001  0.000  0.000  0.001
    8  0.000  0.000  0.000  0.000
    9  0.000  0.000  0.001  0.001
   10  0.000  0.000  0.002  0.003
   11  0.000  0.000  0.001  0.001
   12  0.000  0.000  0.001  0.002
   13  0.000  0.000  0.001  0.001
   14  0.000  0.000  0.000  0.001
   15  0.000  0.000  0.001  0.002
   16  0.000  0.000  0.001  0.002
   17  0.000  0.000  0.001  0.002
   18  0.001  0.000  0.000  0.001
   19  0.000  0.000  0.004  0.005
   20  0.000  0.000  0.006  0.006
   21  0.000  0.000  0.002  0.002
   22  0.000  0.000  0.001  0.001
   23  0.000  0.000  0.002  0.002
   24  0.000  0.000  0.000  0.000
   25  0.000  0.000  0.000  0.001
   26  0.000  0.000  0.004  0.005
   27  0.000  0.000  0.001  0.001
   28  0.000  0.000  0.005  0.005
   29  0.007  0.000  0.005  0.012
   30  0.000  0.000  0.004  0.004
   31  0.007  0.000  0.005  0.013
   32  0.005  0.001  0.004  0.010
   33  0.000  0.000  0.004  0.004
   34  0.005  0.001  0.004  0.010
   35  0.000  0.000  0.007  0.007
   36  0.000  0.006  0.047  0.054
   37  0.000  0.163  0.000  0.163
   38  0.000  0.361  0.000  0.361
tot    0.028  0.535  0.120  0.683
 
band    21 # energy   -5.18350099 # occ.  2.00000000
 
ion      s      p      d    tot
    1  0.000  0.000  0.001  0.001
    2  0.000  0.000  0.000  0.001
    3  0.000  0.000  0.000  0.000
    4  0.000  0.000  0.000  0.001
    5  0.000  0.000  0.001  0.001
    6  0.000  0.000  0.000  0.001
    7  0.000  0.000  0.000  0.000
    8  0.000  0.000  0.000  0.001
    9  0.000  0.000  0.001  0.001
   10  0.000  0.000  0.001  0.001
   11  0.000  0.000  0.001  0.001
   12  0.000  0.000  0.002  0.002
   13  0.000  0.000  0.001  0.001
   14  0.000  0.000  0.001  0.001
   15  0.001  0.000  0.000  0.001
   16  0.000  0.000  0.002  0.002