PROCAR new format
# of k-points:   10         # of bands:  252         # of ions:   37

 k-point     1 :    0.00000000 0.00000000 0.00000000     weight = 0.01562500

band     1 # energy  -12.83124672 # occ.  2.00000000
 
ion      s      p      d    tot
    1  0.000  0.000  0.000  0.000
    2  0.000  0.000  0.000  0.000
    3  0.000  0.000  0.000  0.000
    4  0.000  0.000  0.000  0.000
    5  0.000  0.000  0.000  0.000
    6  0.000  0.000  0.000  0.000
    7  0.000  0.000  0.000  0.000
    8  0.000  0.000  0.000  0.000
    9  0.000  0.000  0.000  0.000
   10  0.000  0.000  0.000  0.000
   11  0.000  0.000  0.000  0.000
   12  0.000  0.000  0.000  0.000
   13  0.000  0.000  0.000  0.000
   14  0.000  0.000  0.000  0.000
   15  0.000  0.000  0.000  0.000
   16  0.000  0.000  0.000  0.000
   17  0.000  0.000  0.000  0.000
   18  0.000  0.000  0.000  0.000
   19  0.000  0.000  0.000  0.000
   20  0.000  0.000  0.000  0.000
   21  0.000  0.000  0.000  0.000
   22  0.000  0.000  0.000  0.000
   23  0.000  0.000  0.000  0.000
   24  0.000  0.000  0.000  0.000
   25  0.000  0.000  0.000  0.000
   26  0.000  0.000  0.000  0.000
   27  0.000  0.000  0.000  0.000
   28  0.000  0.000  0.000  0.000
   29  0.000  0.000  0.000  0.000
   30  0.000  0.000  0.000  0.000
   31  0.000  0.000  0.000  0.000
   32  0.000  0.000  0.000  0.000
   33  0.000  0.000  0.000  0.000
   34  0.000  0.000  0.000  0.000
   35  0.000  0.000  0.000  0.000
   36  0.052  0.063  0.136  0.251
   37  0.610  0.020  0.000  0.631
tot    0.663  0.083  0.137  0.884
 
band     2 # energy   -6.34929844 # occ.  2.00000000
 
ion      s      p      d    tot
    1  0.006  0.001  0.000  0.006
    2  0.006  0.001  0.000  0.006
    3  0.006  0.001  0.000  0.006
    4  0.006  0.001  0.000  0.006
    5  0.006  0.001  0.000  0.006
    6  0.006  0.001  0.000  0.006
    7  0.006  0.001  0.000  0.006
    8  0.006  0.001  0.000  0.006
    9  0.006  0.001  0.000  0.006
   10  0.023  0.000  0.000  0.023
   11  0.023  0.000  0.000  0.024
   12  0.023  0.000  0.000  0.023
   13  0.023  0.000  0.000  0.024
   14  0.023  0.000  0.000  0.024
   15  0.023  0.000  0.000  0.024
   16  0.023  0.000  0.000  0.023
   17  0.023  0.000  0.000  0.024
   18  0.023  0.000  0.000  0.024
   19  0.023  0.000  0.000  0.024
   20  0.024  0.000  0.000  0.024
   21  0.024  0.000  0.000  0.024
   22  0.024  0.000  0.000  0.024
   23  0.024  0.000  0.000  0.024
   24  0.024  0.000  0.000  0.024
   25  0.023  0.000  0.000  0.024
   26  0.023  0.000  0.000  0.024
   27  0.024  0.000  0.000  0.024
   28  0.006  0.001  0.000  0.006
   29  0.006  0.001  0.000  0.006
   30  0.006  0.001  0.000  0.006
   31  0.006  0.001  0.000  0.006
   32  0.006  0.001  0.000  0.006
   33  0.006  0.001  0.000  0.006
   34  0.006  0.001  0.000  0.006
   35  0.006  0.001  0.000  0.006
   36  0.006  0.002  0.000  0.008
   37  0.001  0.000  0.000  0.001
tot    0.525  0.014  0.006  0.546
 
band     3 # energy   -5.47403057 # occ.  2.00000000
 
ion      s      p      d    tot
    1  0.008  0.000  0.000  0.009
    2  0.008  0.000  0.000  0.009
    3  0.008  0.000  0.000  0.009
    4  0.008  0.000  0.000  0.009
    5  0.008  0.000  0.000  0.009
    6  0.008  0.000  0.000  0.009
    7  0.008  0.000  0.000  0.009
    8  0.008  0.000  0.000  0.009
    9  0.008  0.000  0.000  0.009
   10  0.011  0.001  0.015  0.027
   11  0.011  0.001  0.015  0.027
   12  0.011  0.001  0.015  0.027
   13  0.011  0.001  0.015  0.027
   14  0.011  0.001  0.015  0.027
   15  0.011  0.001  0.015  0.027
   16  0.011  0.001  0.015  0.027
   17  0.011  0.001  0.015  0.027
   18  0.011  0.001  0.015  0.027
   19  0.012  0.001  0.017  0.029
   20  0.012  0.001  0.017  0.030
   21  0.012  0.001  0.017  0.030
   22  0.012  0.001  0.016  0.029
   23  0.012  0.001  0.017  0.030
   24  0.012  0.001  0.016  0.029
   25  0.012  0.001  0.017  0.029
   26  0.012  0.001  0.017  0.029
   27  0.012  0.001  0.016  0.029
   28  0.007  0.000  0.000  0.007
   29  0.007  0.000  0.000  0.007
   30  0.007  0.000  0.000  0.007
   31  0.007  0.000  0.000  0.007
   32  0.007  0.000  0.000  0.007
   33  0.007  0.000  0.000  0.007
   34  0.007  0.000  0.000  0.007
   35  0.007  0.000  0.000  0.007
   36  0.006  0.001  0.000  0.008
   37  0.001  0.000  0.000  0.001
tot    0.342  0.026  0.288  0.655
 
band     4 # energy   -5.20914906 # occ.  2.00000000
 
ion      s      p      d    tot
    1  0.012  0.000  0.013  0.026
    2  0.010  0.000  0.014  0.024
    3  0.010  0.000  0.014  0.024
    4  0.010  0.000  0.014  0.024
    5  0.009  0.000  0.014  0.023
    6  0.010  0.000  0.014  0.024
    7  0.010  0.000  0.014  0.024
    8  0.010  0.000  0.014  0.024
    9  0.009  0.000  0.014  0.024
   10  0.000  0.000  0.018  0.019
   11  0.000  0.000  0.013  0.013
   12  0.000  0.000  0.018  0.019
   13  0.000  0.000  0.013  0.013
   14  0.000  0.000  0.013  0.013
   15  0.000  0.000  0.012  0.013
   16  0.000  0.000  0.018  0.019
   17  0.000  0.000  0.012  0.013
   18  0.000  0.000  0.012  0.013
   19  0.000  0.000  0.016  0.016
   20  0.001  0.000  0.022  0.023
   21  0.001  0.000  0.022  0.023
   22  0.000  0.000  0.015  0.016
   23  0.001  0.000  0.022  0.023
   24  0.000  0.000  0.015  0.016
   25  0.000  0.000  0.016  0.016
   26  0.000  0.000  0.016  0.016
   27  0.000  0.000  0.015  0.016
   28  0.010  0.000  0.013  0.023
   29  0.011  0.000  0.015  0.026
   30  0.011  0.000  0.015  0.026
   31  0.011  0.000  0.015  0.026
   32  0.011  0.000  0.015  0.026
   33  0.011  0.000  0.015  0.026
   34  0.011  0.000  0.015  0.026
   35  0.013  0.000  0.014  0.027
   36  0.007  0.000  0.037  0.044
   37  0.000  0.003  0.000  0.003
tot    0.192  0.009  0.568  0.768
 
band     5 # energy   -5.09731123 # occ.  2.00000000
 
ion      s      p      d    tot
    1  0.000  0.001  0.012  0.012
    2  0.003  0.000  0.009  0.012
    3  0.003  0.000  0.009  0.012
    4  0.003  0.000  0.009  0.012
    5  0.006  0.000  0.005  0.010
    6  0.003  0.000  0.009  0.012
    7  0.003  0.000  0.009  0.012
    8  0.003  0.000  0.009  0.012
    9  0.007  0.000  0.003  0.011
   10  0.005  0.000  0.017  0.022
   11  0.001  0.001  0.021  0.023
   12  0.005  0.000  0.017  0.022
   13  0.001  0.001  0.021  0.023
   14  0.001  0.001  0.021  0.023
   15  0.003  0.000  0.017  0.020
   16  0.005  0.000  0.017  0.022
   17  0.003  0.000  0.017  0.020
   18  0.003  0.000  0.017  0.020
   19  0.001  0.001  0.041  0.043
   20  0.011  0.000  0.073  0.084
   21  0.011  0.000  0.073  0.084
   22  0.009  0.001  0.003  0.013
   23  0.011  0.000  0.073  0.084
   24  0.009  0.001  0.003  0.013
   25  0.001  0.001  0.041  0.043
   26  0.001  0.001  0.041  0.043
   27  0.009  0.001  0.003  0.013
   28  0.000  0.000  0.000  0.001
   29  0.000  0.000  0.004  0.005
   30  0.000  0.000  0.004  0.005
   31  0.000  0.000  0.004  0.005
   32  0.000  0.000  0.004  0.005
   33  0.000  0.000  0.004  0.005
   34  0.000  0.000  0.004  0.005
   35  0.004  0.001  0.000  0.005
   36  0.002  0.003  0.033  0.038
   37  0.003  0.007  0.000  0.010
tot    0.133  0.021  0.650  0.805
 
band     6 # energy   -5.08031166 # occ.  2.00000000
 
ion      s      p      d    tot
    1  0.000  0.000  0.008  0.008
    2  0.001  0.000  0.003  0.004
    3  0.001  0.000  0.003  0.005
    4  0.001  0.000  0.002  0.003
    5  0.000  0.000  0.005  0.005
    6  0.000  0.000  0.002  0.002
    7  0.001  0.000  0.003  0.004
    8  0.000  0.000  0.002  0.003
    9  0.000  0.000  0.001  0.001
   10  0.001  0.000  0.034  0.035
   11  0.007  0.000  0.024  0.032
   12  0.008  0.001  0.022  0.031
   13  0.004  0.001  0.022  0.027
   14  0.001  0.001  0.020  0.022
   15  0.001  0.000  0.015  0.017
   16  0.015  0.001  0.011  0.027
   17  0.001  0.000  0.022  0.023
   18  0.000  0.000  0.028  0.029
   19  0.012  0.000  0.038  0.051
   20  0.002  0.000  0.092  0.095
   21  0.017  0.001  0.054  0.071
   22  0.002  0.000  0.048  0.050
   23  0.031  0.001  0.015  0.046
   24  0.000  0.001  0.074  0.075
   25  0.001  0.002  0.009  0.012
   26  0.007  0.001  0.024  0.031
   27  0.003  0.000  0.021  0.025
   28  0.000  0.000  0.002  0.003
   29  0.000  0.000  0.005  0.005
   30  0.000  0.000  0.004  0.004
   31  0.001  0.000  0.006  0.007
   32  0.001  0.001  0.007  0.009
   33  0.001  0.001  0.005  0.006
   34  0.001  0.001  0.006  0.009
   35  0.000  0.000  0.003  0.003
   36  0.000  0.001  0.021  0.022
   37  0.000  0.002  0.000  0.002
tot    0.123  0.018  0.663  0.804
 
band     7 # energy   -5.08031156 # occ.  2.00000000
 
ion      s      p      d    tot
    1  0.000  0.000  0.008  0.008
    2  0.000  0.000  0.002  0.003
    3  0.000  0.000  0.002  0.002
    4  0.001  0.000  0.003  0.004
    5  0.000  0.000  0.005  0.005
    6  0.001  0.000  0.003  0.005
    7  0.001  0.000  0.002  0.003
    8  0.001  0.000  0.003  0.004
    9  0.000  0.000  0.001  0.001
   10  0.015  0.001  0.011  0.027
   11  0.001  0.001  0.020  0.022
   12  0.008  0.001  0.022  0.031
   13  0.004  0.001  0.022  0.027
   14  0.007  0.000  0.024  0.032
   15  0.000  0.000  0.028  0.029
   16  0.001  0.000  0.034  0.035
   17  0.001  0.000  0.022  0.023
   18  0.001  0.000  0.015  0.017
   19  0.001  0.002  0.009  0.012
   20  0.031  0.001  0.015  0.047
   21  0.017  0.001  0.053  0.071
   22  0.002  0.000  0.048  0.050
   23  0.002  0.000  0.093  0.095
   24  0.003  0.000  0.021  0.025
   25  0.012  0.000  0.038  0.050
   26  0.007  0.001  0.024  0.031
   27  0.000  0.001  0.074  0.075
   28  0.000  0.000  0.002  0.003
   29  0.001  0.001  0.006  0.009
   30  0.001  0.001  0.007  0.009
   31  0.001  0.001  0.005  0.006
   32  0.000  0.000  0.004  0.004
   33  0.001  0.000  0.006  0.007
   34  0.000  0.000  0.005  0.005
   35  0.000  0.000  0.003  0.003
   36  0.000  0.001  0.021  0.022
   37  0.000  0.002  0.000  0.002
tot    0.123  0.018  0.663  0.804
 
band     8 # energy   -5.07035859 # occ.  2.00000000
 
ion      s      p      d    tot
    1  0.000  0.000  0.001  0.001
    2  0.001  0.000  0.003  0.005
    3  0.002  0.000  0.004  0.006
    4  0.001  0.000  0.003  0.005
    5  0.000  0.000  0.005  0.005
    6  0.000  0.000  0.002  0.003
    7  0.002  0.000  0.004  0.006
    8  0.000  0.000  0.002  0.003
    9  0.000  0.000  0.009  0.009
   10  0.001  0.000  0.028  0.029
   11  0.003  0.000  0.048  0.051
   12  0.000  0.001  0.022  0.023
   13  0.003  0.000  0.046  0.050
   14  0.012  0.001  0.005  0.018
   15  0.005  0.001  0.029  0.035
   16  0.000  0.001  0.022  0.023
   17  0.006  0.001  0.029  0.035
   18  0.021  0.001  0.021  0.043
   19  0.003  0.000  0.074  0.077
   20  0.002  0.000  0.035  0.037
   21  0.000  0.001  0.025  0.026
   22  0.007  0.001  0.039  0.047
   23  0.000  0.001  0.024  0.026
   24  0.027  0.001  0.023  0.051
   25  0.015  0.001  0.005  0.021
   26  0.004  0.000  0.070  0.074
   27  0.006  0.001  0.040  0.047
   28  0.000  0.000  0.006  0.006
   29  0.001  0.000  0.004  0.005
   30  0.000  0.000  0.002  0.003
   31  0.001  0.000  0.005  0.006
   32  0.002  0.001  0.005  0.008
   33  0.000  0.000  0.002  0.003
   34  0.002  0.001  0.005  0.008
   35  0.000  0.000  0.008  0.009
   36  0.000  0.000  0.000  0.000
   37  0.000  0.000  0.000  0.000
tot    0.128  0.017  0.657  0.802
 
band     9 # energy   -5.07034918 # occ.  2.00000000
 
ion      s      p      d    tot
    1  0.000  0.000  0.001  0.001
    2  0.001  0.000  0.003  0.004
    3  0.000  0.000  0.002  0.003
    4  0.001  0.000  0.003  0.004
    5  0.000  0.000  0.005  0.005
    6  0.002  0.000  0.004  0.006
    7  0.000  0.000  0.003  0.003
    8  0.002  0.000  0.004  0.006
    9  0.000  0.000  0.009  0.009
   10  0.000  0.001  0.020  0.021
   11  0.009  0.001  0.018  0.028
   12  0.001  0.000  0.026  0.027
   13  0.009  0.001  0.020  0.030
   14  0.000  0.000  0.061  0.061
   15  0.016  0.001  0.023  0.040
   16  0.001  0.000  0.026  0.027
   17  0.015  0.001  0.024  0.040
   18  0.000  0.001  0.031  0.033
   19  0.012  0.001  0.026  0.038
   20  0.000  0.001  0.021  0.022
   21  0.001  0.000  0.031  0.033
   22  0.020  0.001  0.029  0.049
   23  0.001  0.000  0.032  0.033
   24  0.000  0.001  0.045  0.046
   25  0.000  0.000  0.094  0.094
   26  0.011  0.001  0.029  0.041
   27  0.021  0.001  0.028  0.049
   28  0.000  0.000  0.006  0.006
   29  0.001  0.000  0.004  0.005
   30  0.002  0.001  0.006  0.008
   31  0.001  0.000  0.004  0.005
   32  0.000  0.000  0.003  0.003
   33  0.002  0.001  0.006  0.008
   34  0.000  0.000  0.003  0.003
   35  0.000  0.000  0.008  0.009
   36  0.000  0.000  0.000  0.000
   37  0.000  0.000  0.000  0.000
tot    0.128  0.017  0.657  0.802
 
band    10 # energy   -5.06531987 # occ.  2.00000000
 
ion      s      p      d    tot
    1  0.000  0.000  0.000  0.000
    2  0.000  0.000  0.005  0.005
    3  0.000  0.000  0.005  0.005
    4  0.000  0.000  0.005  0.005
    5  0.005  0.001  0.001  0.008
    6  0.000  0.000  0.005  0.005
    7  0.000  0.000  0.005  0.005
    8  0.000  0.000  0.005  0.005
    9  0.002  0.000  0.004  0.006
   10  0.006  0.001  0.007  0.014
   11  0.010  0.000  0.027  0.038
   12  0.006  0.001  0.007  0.014
   13  0.010  0.000  0.027  0.038
   14  0.010  0.000  0.027  0.038
   15  0.001  0.000  0.040  0.042
   16  0.006  0.001  0.007  0.014
   17  0.001  0.000  0.040  0.042
   18  0.001  0.000  0.040  0.041
   19  0.016  0.001  0.032  0.049
   20  0.006  0.001  0.010  0.017
   21  0.006  0.001  0.010  0.017
   22  0.002  0.000  0.072  0.074
   23  0.006  0.001  0.010  0.017
   24  0.002  0.000  0.072  0.074
   25  0.016  0.001  0.032  0.049
   26  0.016  0.001  0.032  0.049
   27  0.002  0.000  0.072  0.074
   28  0.005  0.001  0.006  0.013
   29  0.000  0.000  0.005  0.005
   30  0.000  0.000  0.005  0.005
   31  0.000  0.000  0.005  0.005
   32  0.000  0.000  0.005  0.005
   33  0.000  0.000  0.005  0.005
   34  0.000  0.000  0.005  0.005
   35  0.002  0.001  0.007  0.010
   36  0.001  0.000  0.000  0.001
   37  0.000  0.000  0.000  0.000
tot    0.135  0.017  0.649  0.800
 
band    11 # energy   -5.04672516 # occ.  2.00000000
 
ion      s      p      d    tot
    1  0.004  0.000  0.004  0.008
    2  0.004  0.000  0.013  0.018
    3  0.004  0.000  0.013  0.018
    4  0.004  0.000  0.013  0.018
    5  0.006  0.000  0.007  0.013
    6  0.004  0.000  0.013  0.018
    7  0.004  0.000  0.013  0.018
    8  0.004  0.000  0.013  0.018
    9  0.003  0.000  0.029  0.033
   10  0.000  0.000  0.037  0.037
   11  0.000  0.001  0.002  0.003
   12  0.000  0.000  0.036  0.037
   13  0.000  0.001  0.002  0.003
   14  0.000  0.001  0.002  0.003
   15  0.009  0.001  0.043  0.052
   16  0.000  0.000  0.036  0.037
   17  0.009  0.001  0.043  0.052
   18  0.009  0.001  0.043  0.052
   19  0.000  0.001  0.003  0.003
   20  0.000  0.000  0.026  0.026
   21  0.000  0.000  0.026  0.026
   22  0.004  0.001  0.029  0.034
   23  0.000  0.000  0.026  0.026
   24  0.004  0.001  0.029  0.034
   25  0.000  0.001  0.003  0.003
   26  0.000  0.001  0.003  0.003
   27  0.004  0.001  0.029  0.034
   28  0.004  0.000  0.006  0.010
   29  0.005  0.000  0.014  0.019
   30  0.005  0.000  0.014  0.019
   31  0.005  0.000  0.014  0.019
   32  0.005  0.000  0.014  0.019
   33  0.005  0.000  0.014  0.019
   34  0.005  0.000  0.014  0.019
   35  0.007  0.000  0.023  0.030
   36  0.004  0.000  0.017  0.021
   37  0.000  0.001  0.000  0.001
tot    0.128  0.010  0.665  0.803
 
band    12 # energy   -5.03137509 # occ.  2.00000000
 
ion      s      p      d    tot
    1  0.001  0.001  0.013  0.015
    2  0.000  0.000  0.008  0.008
    3  0.000  0.000  0.008  0.008
    4  0.000  0.000  0.008  0.008
    5  0.001  0.000  0.006  0.007
    6  0.000  0.000  0.008  0.008
    7  0.000  0.000  0.008  0.008
    8  0.000  0.000  0.008  0.008
    9  0.005  0.001  0.000  0.006
   10  0.007  0.000  0.055  0.063
   11  0.000  0.000  0.076  0.076
   12  0.007  0.000  0.056  0.063
   13  0.000  0.000  0.076  0.076
   14  0.000  0.000  0.075  0.075
   15  0.006  0.000  0.006  0.013
   16  0.007  0.000  0.056  0.063
   17  0.006  0.000  0.006  0.013
   18  0.007  0.000  0.006  0.013
   19  0.001  0.000  0.014  0.014
   20  0.000  0.000  0.039  0.039
   21  0.000  0.000  0.038  0.039
   22  0.000  0.000  0.024  0.025
   23  0.000  0.000  0.038  0.039
   24  0.000  0.000  0.024  0.025
   25  0.001  0.000  0.013  0.014
   26  0.001  0.000  0.013  0.014
   27  0.000  0.000  0.024  0.025
   28  0.004  0.000  0.000  0.005
   29  0.000  0.000  0.010  0.010
   30  0.000  0.000  0.010  0.010
   31  0.000  0.000  0.010  0.010
   32  0.000  0.000  0.010  0.010
   33  0.000  0.000  0.010  0.010
   34  0.000  0.000  0.010  0.010
   35  0.000  0.000  0.005  0.006
   36  0.004  0.000  0.005  0.009
   37  0.000  0.000  0.000  0.000
tot    0.061  0.008  0.775  0.844
 
band    13 # energy   -5.02977033 # occ.  2.00000000
 
ion      s      p      d    tot
    1  0.000  0.000  0.014  0.014
    2  0.002  0.000  0.004  0.007
    3  0.000  0.000  0.009  0.010
    4  0.002  0.000  0.005  0.007
    5  0.000  0.000  0.003  0.003
    6  0.001  0.001  0.008  0.009
    7  0.000  0.000  0.009  0.009
    8  0.001  0.001  0.007  0.009
    9  0.000  0.000  0.008  0.008
   10  0.000  0.000  0.043  0.043
   11  0.000  0.000  0.032  0.032
   12  0.007  0.000  0.040  0.048
   13  0.000  0.000  0.033  0.033
   14  0.000  0.000  0.024  0.024
   15  0.008  0.000  0.040  0.048
   16  0.006  0.000  0.041  0.047
   17  0.010  0.000  0.025  0.035
   18  0.000  0.000  0.111  0.111
   19  0.002  0.000  0.033  0.035
   20  0.000  0.000  0.041  0.041
   21  0.002  0.000  0.015  0.018
   22  0.000  0.000  0.035  0.035
   23  0.002  0.000  0.020  0.022
   24  0.000  0.000  0.011  0.011
   25  0.000  0.000  0.054  0.054
   26  0.002  0.000  0.028  0.031
   27  0.000  0.000  0.031  0.031
   28  0.000  0.000  0.015  0.015
   29  0.000  0.000  0.007  0.007
   30  0.002  0.000  0.006  0.008
   31  0.000  0.000  0.007  0.008
   32  0.001  0.000  0.005  0.006
   33  0.002  0.000  0.006  0.008
   34  0.001  0.000  0.005  0.006
   35  0.000  0.000  0.009  0.009
   36  0.000  0.000  0.003  0.004
   37  0.000  0.000  0.000  0.000
tot    0.053  0.008  0.785  0.845
 
band    14 # energy   -5.02976549 # occ.  2.00000000
 
ion      s      p      d    tot
    1  0.000  0.000  0.014  0.014
    2  0.000  0.000  0.009  0.010
    3  0.002  0.001  0.004  0.007
    4  0.000  0.000  0.009  0.010
    5  0.000  0.000  0.003  0.003
    6  0.001  0.000  0.006  0.008
    7  0.002  0.001  0.005  0.007
    8  0.001  0.000  0.007  0.008
    9  0.000  0.000  0.008  0.008
   10  0.009  0.000  0.040  0.049
   11  0.000  0.000  0.027  0.027
   12  0.002  0.000  0.042  0.044
   13  0.000  0.000  0.026  0.026
   14  0.000  0.000  0.036  0.036
   15  0.004  0.000  0.077  0.081
   16  0.003  0.000  0.041  0.045
   17  0.002  0.000  0.092  0.094
   18  0.011  0.000  0.007  0.018
   19  0.001  0.000  0.044  0.045
   20  0.003  0.000  0.010  0.013
   21  0.000  0.000  0.036  0.036
   22  0.000  0.000  0.016  0.016
   23  0.001  0.000  0.031  0.032
   24  0.000  0.000  0.041  0.041
   25  0.002  0.000  0.023  0.026
   26  0.000  0.000  0.048  0.049
   27  0.000  0.000  0.020  0.020
   28  0.000  0.000  0.015  0.015
   29  0.002  0.000  0.005  0.007
   30  0.000  0.000  0.006  0.007
   31  0.002  0.000  0.005  0.007
   32  0.001  0.000  0.007  0.009
   33  0.000  0.000  0.006  0.006
   34  0.002  0.000  0.007  0.009
   35  0.000  0.000  0.009  0.009
   36  0.000  0.000  0.003  0.004
   37  0.000  0.000  0.000  0.000
tot    0.053  0.008  0.785  0.845
 
band    15 # energy   -5.02446669 # occ.  2.00000000
 
ion      s      p      d    tot
    1  0.011  0.000  0.009  0.020
    2  0.002  0.000  0.012  0.014
    3  0.002  0.000  0.012  0.014
    4  0.002  0.000  0.012  0.014
    5  0.000  0.001  0.016  0.017
    6  0.002  0.000  0.012  0.014
    7  0.002  0.000  0.012  0.014
    8  0.002  0.000  0.012  0.014
    9  0.001  0.000  0.000  0.001
   10  0.000  0.000  0.027  0.027
   11  0.008  0.000  0.019  0.027
   12  0.000  0.000  0.026  0.027
   13  0.008  0.000  0.019  0.027
   14  0.008  0.000  0.019  0.027
   15  0.000  0.000  0.044  0.044
   16  0.000  0.000  0.026  0.027
   17  0.000  0.000  0.044  0.044
   18  0.000  0.000  0.044  0.044
   19  0.001  0.000  0.048  0.050
   20  0.001  0.001  0.009  0.010
   21  0.001  0.001  0.009  0.010
   22  0.003  0.000  0.024  0.027
   23  0.001  0.001  0.009  0.010
   24  0.003  0.000  0.024  0.027
   25  0.001  0.000  0.048  0.049
   26  0.001  0.000  0.048  0.050
   27  0.003  0.000  0.024  0.027
   28  0.006  0.000  0.025  0.031
   29  0.003  0.000  0.013  0.017
   30  0.003  0.000  0.013  0.017
   31  0.003  0.000  0.013  0.017
   32  0.003  0.000  0.013  0.017
   33  0.003  0.000  0.013  0.017
   34  0.003  0.000  0.013  0.017
   35  0.000  0.000  0.005  0.005
   36  0.010  0.001  0.002  0.013
   37  0.000  0.000  0.000  0.000
tot    0.098  0.008  0.719  0.825
 
band    16 # energy   -5.02138153 # occ.  2.00000000
 
ion      s      p      d    tot
    1  0.000  0.000  0.006  0.006
    2  0.003  0.001  0.005  0.008
    3  0.000  0.000  0.010  0.010
    4  0.003  0.000  0.005  0.008
    5  0.000  0.000  0.013  0.013
    6  0.002  0.001  0.008  0.011
    7  0.000  0.000  0.010  0.010
    8  0.002  0.001  0.008  0.010
    9  0.000  0.000  0.011  0.011
   10  0.009  0.000  0.011  0.020
   11  0.004  0.000  0.062  0.066
   12  0.002  0.000  0.066  0.068
   13  0.003  0.000  0.065  0.068
   14  0.015  0.000  0.018  0.033
   15  0.000  0.000  0.020  0.021
   16  0.002  0.000  0.063  0.066
   17  0.000  0.000  0.019  0.019
   18  0.001  0.000  0.048  0.049
   19  0.001  0.000  0.028  0.029
   20  0.000  0.000  0.038  0.038
   21  0.000  0.000  0.029  0.029
   22  0.001  0.000  0.042  0.043
   23  0.000  0.000  0.029  0.029
   24  0.005  0.000  0.012  0.017
   25  0.003  0.000  0.017  0.021
   26  0.001  0.000  0.029  0.030
   27  0.001  0.000  0.041  0.042
   28  0.000  0.000  0.003  0.003
   29  0.000  0.000  0.007  0.007
   30  0.002  0.000  0.003  0.006
   31  0.000  0.000  0.007  0.007
   32  0.001  0.000  0.006  0.007
   33  0.002  0.000  0.003  0.006
   34  0.001  0.000  0.006  0.008
   35  0.000  0.000  0.008  0.008
   36  0.000  0.000  0.008  0.008
   37  0.000  0.000  0.000  0.000
tot    0.067  0.009  0.764  0.839
 
band    17 # energy   -5.02137586 # occ.  2.00000000
 
ion      s      p      d    tot
    1  0.000  0.000  0.006  0.006
    2  0.000  0.000  0.010  0.011
    3  0.003  0.001  0.005  0.009
    4  0.000  0.000  0.010  0.011
    5  0.000  0.000  0.013  0.013
    6  0.002  0.000  0.007  0.009
    7  0.003  0.001  0.006  0.009
    8  0.002  0.000  0.007  0.009
    9  0.000  0.000  0.011  0.011
   10  0.000  0.000  0.082  0.082
   11  0.011  0.000  0.034  0.045
   12  0.007  0.000  0.028  0.035
   13  0.012  0.000  0.032  0.044
   14  0.000  0.000  0.079  0.079
   15  0.000  0.000  0.038  0.038
   16  0.007  0.000  0.030  0.037
   17  0.000  0.000  0.039  0.040
   18  0.000  0.000  0.010  0.010
   19  0.002  0.000  0.021  0.024
   20  0.000  0.000  0.026  0.026
   21  0.000  0.000  0.035  0.035
   22  0.004  0.000  0.021  0.025
   23  0.000  0.000  0.035  0.035
   24  0.000  0.000  0.051  0.051
   25  0.000  0.000  0.033  0.033
   26  0.003  0.000  0.021  0.023
   27  0.004  0.000  0.023  0.027
   28  0.000  0.000  0.003  0.003
   29  0.002  0.000  0.004  0.006
   30  0.000  0.000  0.008  0.008
   31  0.002  0.000  0.004  0.006
   32  0.001  0.000  0.005  0.006
   33  0.000  0.000  0.007  0.008
   34  0.001  0.000  0.005  0.006
   35  0.000  0.000  0.008  0.008
   36  0.000  0.000  0.008  0.008
   37  0.000  0.000  0.000  0.000
tot    0.067  0.009  0.764  0.839
 
band    18 # energy   -4.87724186 # occ.  2.00000000
 
ion      s      p      d    tot
    1  0.000  0.000  0.004  0.004
    2  0.001  0.000  0.008  0.009
    3  0.000  0.000  0.006  0.007
    4  0.001  0.000  0.008  0.009
    5  0.000  0.000  0.006  0.007
    6  0.002  0.001  0.004  0.007
    7  0.000  0.000  0.006  0.007
    8  0.002  0.001  0.004  0.007
    9  0.000  0.001  0.015  0.015
   10  0.001  0.001  0.029  0.031
   11  0.000  0.000  0.051  0.051
   12  0.000  0.000  0.007  0.008
   13  0.000  0.000  0.050  0.050
   14  0.001  0.000  0.027  0.028
   15  0.001  0.000  0.050  0.051
   16  0.000  0.000  0.007  0.007
   17  0.001  0.000  0.050  0.051
   18  0.002  0.000  0.041  0.043
   19  0.000  0.000  0.011  0.011
   20  0.002  0.000  0.058  0.060
   21  0.001  0.000  0.053  0.054
   22  0.000  0.000  0.065  0.065
   23  0.001  0.000  0.053  0.053
   24  0.001  0.000  0.028  0.029
   25  0.000  0.001  0.026  0.027
   26  0.000  0.000  0.011  0.011
   27  0.000  0.000  0.066  0.066
   28  0.000  0.000  0.001  0.001
   29  0.000  0.000  0.009  0.009
   30  0.001  0.001  0.009  0.011
   31  0.000  0.000  0.009  0.009
   32  0.001  0.001  0.006  0.008
   33  0.001  0.001  0.009  0.011
   34  0.001  0.001  0.006  0.008
   35  0.000  0.000  0.007  0.008
   36  0.000  0.001  0.031  0.031
   37  0.000  0.003  0.000  0.003
tot    0.021  0.016  0.832  0.869
 
band    19 # energy   -4.87723087 # occ.  2.00000000
 
ion      s      p      d    tot
    1  0.000  0.000  0.004  0.004
    2  0.001  0.000  0.004  0.006
    3  0.001  0.001  0.006  0.008
    4  0.001  0.000  0.004  0.006
    5  0.000  0.000  0.006  0.007
    6  0.000  0.000  0.008  0.008
    7  0.001  0.001  0.006  0.009
    8  0.000  0.000  0.008  0.008
    9  0.000  0.001  0.015  0.015
   10  0.000  0.000  0.000  0.000
   11  0.000  0.000  0.035  0.036
   12  0.001  0.001  0.021  0.023
   13  0.000  0.000  0.036  0.036
   14  0.000  0.000  0.057  0.058
   15  0.002  0.000  0.043  0.045
   16  0.001  0.001  0.022  0.023
   17  0.002  0.000  0.044  0.046
   18  0.000  0.000  0.054  0.054
   19  0.000  0.001  0.021  0.022
   20  0.000  0.000  0.052  0.052
   21  0.002  0.000  0.056  0.058
   22  0.001  0.000  0.041  0.042
   23  0.002  0.000  0.056  0.058
   24  0.000  0.000  0.077  0.077
   25  0.000  0.000  0.006  0.006
   26  0.000  0.001  0.020  0.021
   27  0.001  0.000  0.040  0.041
   28  0.000  0.000  0.001  0.001
   29  0.002  0.001  0.007  0.010
   30  0.001  0.000  0.007  0.008
   31  0.002  0.001  0.007  0.010
   32  0.000  0.000  0.010  0.010
   33  0.000  0.000  0.007  0.008
   34  0.000  0.000  0.010  0.010
   35  0.000  0.000  0.007  0.008
   36  0.000  0.001  0.031  0.031
   37  0.000  0.003  0.000  0.003
tot    0.021  0.016  0.832  0.869
 
band    20 # energy   -4.87563665 # occ.  2.00000000
 
ion      s      p      d    tot
    1  0.002  0.001  0.000  0.003
    2  0.000  0.000  0.007  0.007
    3  0.000  0.000  0.007  0.007
    4  0.000  0.000  0.007  0.007
    5  0.000  0.000  0.005  0.005
    6  0.000  0.000  0.007  0.007
    7  0.000  0.000  0.007  0.007
    8  0.000  0.000  0.007  0.007
    9  0.001  0.001  0.010  0.012
   10  0.000  0.000  0.012  0.012
   11  0.001  0.000  0.043  0.045
   12  0.000  0.000  0.013  0.013
   13  0.001  0.000  0.043  0.045
   14  0.001  0.000  0.044  0.046
   15  0.000  0.001  0.054  0.055
   16  0.000  0.000  0.013  0.013
   17  0.000  0.001  0.054  0.055
   18  0.000  0.001  0.054  0.055
   19  0.001  0.000  0.016  0.016
   20  0.001  0.001  0.057  0.058
   21  0.001  0.001  0.058  0.059
   22  0.002  0.000  0.040  0.042
   23  0.001  0.001  0.058  0.059
   24  0.002  0.000  0.041  0.043
   25  0.001  0.000  0.015  0.016
   26  0.001  0.000  0.016  0.016
   27  0.002  0.000  0.040  0.042
   28  0.002  0.001  0.000  0.004
   29  0.000  0.001  0.012  0.013
   30  0.000  0.001  0.012  0.013
   31  0.000  0.001  0.012  0.013
   32  0.000  0.001  0.013  0.013
   33  0.000  0.001  0.012  0.013
   34  0.000  0.001  0.013  0.013
   35  0.002  0.000  0.008  0.009
   36  0.002  0.001  0.011  0.014
   37  0.002  0.003  0.000  0.005
tot    0.027  0.018  0.818  0.863
 
band    21 # energy   -4.85903832 # occ.  2.00000000
 
ion      s      p      d    tot
    1  0.000  0.000  0.008  0.009
    2  0.000  0.000  0.010  0.010
    3  0.000  0.000  0.010  0.010
    4  0.000  0.000  0.010  0.010
    5  0.004  0.001  0.002  0.006
    6  0.000  0.000  0.010  0.010
    7  0.000  0.000  0.010  0.010
    8  0.000  0.000  0.010  0.010
    9  0.002  0.000  0.002  0.004
   10  0.001  0.001  0.052  0.054
   11  0.000  0.000  0.035  0.035
   12  0.001  0.001  0.052  0.054
   13  0.000  0.000  0.035  0.035
   14  0.000  0.000  0.034  0.035
   15  0.001  0.000  0.021  0.022
   16  0.001  0.001  0.052  0.054
   17  0.001  0.000  0.021  0.022
   18  0.001  0.000  0.021  0.022
   19  0.001  0.001  0.054  0.056
   20  0.001  0.000  0.019  0.020
   21  0.001  0.000  0.018  0.020
   22  0.000  0.001  0.042  0.043
   23  0.001  0.000  0.018  0.020
   24  0.000  0.001  0.042  0.042
   25  0.001  0.001  0.054  0.056
   26  0.001  0.001  0.054  0.056
   27  0.000  0.001  0.042  0.043
   28  0.000  0.000  0.011  0.011
   29  0.000  0.000  0.010  0.011
   30  0.000  0.000  0.010  0.011
   31  0.000  0.000  0.010  0.011
   32  0.000  0.000  0.010  0.011
   33  0.000  0.000  0.010  0.011
   34  0.000  0.000  0.010  0.011
   35  0.005  0.001  0.003  0.009
   36  0.003  0.000  0.002  0.005