PROCAR new format
# of k-points:   10         # of bands:  252         # of ions:   38

 k-point     1 :    0.00000000 0.00000000 0.00000000     weight = 0.01562500

band     1 # energy  -19.12889796 # occ.  2.00000000
 
ion      s      p      d    tot
    1  0.000  0.000  0.000  0.000
    2  0.000  0.000  0.000  0.000
    3  0.000  0.000  0.000  0.000
    4  0.000  0.000  0.000  0.000
    5  0.000  0.000  0.000  0.000
    6  0.000  0.000  0.000  0.000
    7  0.000  0.000  0.000  0.000
    8  0.000  0.000  0.000  0.000
    9  0.000  0.000  0.000  0.000
   10  0.000  0.000  0.000  0.000
   11  0.000  0.000  0.000  0.000
   12  0.000  0.000  0.000  0.000
   13  0.000  0.000  0.000  0.000
   14  0.000  0.000  0.000  0.000
   15  0.000  0.000  0.000  0.000
   16  0.000  0.000  0.000  0.000
   17  0.000  0.000  0.000  0.000
   18  0.000  0.000  0.000  0.000
   19  0.000  0.000  0.000  0.000
   20  0.000  0.000  0.000  0.000
   21  0.000  0.000  0.000  0.000
   22  0.000  0.000  0.000  0.000
   23  0.000  0.000  0.000  0.000
   24  0.000  0.000  0.000  0.000
   25  0.000  0.000  0.000  0.000
   26  0.000  0.000  0.000  0.000
   27  0.000  0.000  0.000  0.000
   28  0.000  0.000  0.000  0.000
   29  0.000  0.000  0.000  0.000
   30  0.000  0.000  0.000  0.000
   31  0.000  0.000  0.000  0.000
   32  0.000  0.000  0.000  0.000
   33  0.000  0.000  0.000  0.000
   34  0.000  0.000  0.000  0.000
   35  0.000  0.000  0.000  0.000
   36  0.011  0.015  0.014  0.039
   37  0.741  0.016  0.000  0.757
   38  0.118  0.024  0.000  0.142
tot    0.869  0.055  0.014  0.938
 
band     2 # energy   -7.62754894 # occ.  2.00000000
 
ion      s      p      d    tot
    1  0.000  0.000  0.000  0.000
    2  0.000  0.000  0.000  0.000
    3  0.000  0.000  0.000  0.000
    4  0.000  0.000  0.000  0.000
    5  0.000  0.000  0.000  0.000
    6  0.000  0.000  0.000  0.000
    7  0.000  0.000  0.000  0.000
    8  0.000  0.000  0.000  0.000
    9  0.000  0.000  0.000  0.000
   10  0.000  0.000  0.000  0.000
   11  0.000  0.000  0.000  0.000
   12  0.000  0.000  0.000  0.000
   13  0.000  0.000  0.000  0.000
   14  0.000  0.000  0.000  0.000
   15  0.000  0.000  0.000  0.000
   16  0.000  0.000  0.000  0.000
   17  0.000  0.000  0.000  0.000
   18  0.000  0.000  0.000  0.000
   19  0.000  0.000  0.000  0.000
   20  0.001  0.000  0.001  0.002
   21  0.001  0.000  0.001  0.002
   22  0.000  0.000  0.000  0.000
   23  0.001  0.000  0.001  0.002
   24  0.000  0.000  0.000  0.000
   25  0.000  0.000  0.000  0.000
   26  0.000  0.000  0.000  0.000
   27  0.000  0.000  0.000  0.000
   28  0.000  0.000  0.000  0.000
   29  0.001  0.000  0.001  0.001
   30  0.001  0.000  0.001  0.001
   31  0.001  0.000  0.001  0.001
   32  0.001  0.000  0.001  0.001
   33  0.001  0.000  0.001  0.001
   34  0.001  0.000  0.001  0.001
   35  0.000  0.000  0.000  0.000
   36  0.064  0.043  0.096  0.204
   37  0.026  0.523  0.000  0.549
   38  0.175  0.018  0.000  0.193
tot    0.273  0.586  0.102  0.961
 
band     3 # energy   -6.11131160 # occ.  2.00000000
 
ion      s      p      d    tot
    1  0.006  0.001  0.000  0.007
    2  0.006  0.001  0.000  0.007
    3  0.006  0.001  0.000  0.007
    4  0.006  0.001  0.000  0.007
    5  0.006  0.001  0.000  0.007
    6  0.006  0.001  0.000  0.007
    7  0.006  0.001  0.000  0.007
    8  0.006  0.001  0.000  0.007
    9  0.006  0.001  0.000  0.007
   10  0.024  0.000  0.000  0.024
   11  0.024  0.000  0.000  0.025
   12  0.024  0.000  0.000  0.024
   13  0.024  0.000  0.000  0.025
   14  0.024  0.000  0.000  0.025
   15  0.024  0.000  0.000  0.025
   16  0.024  0.000  0.000  0.024
   17  0.024  0.000  0.000  0.025
   18  0.024  0.000  0.000  0.025
   19  0.022  0.000  0.000  0.023
   20  0.023  0.000  0.000  0.023
   21  0.023  0.000  0.000  0.023
   22  0.023  0.000  0.000  0.023
   23  0.023  0.000  0.000  0.023
   24  0.023  0.000  0.000  0.023
   25  0.022  0.000  0.000  0.023
   26  0.022  0.000  0.000  0.023
   27  0.023  0.000  0.000  0.023
   28  0.005  0.001  0.000  0.006
   29  0.005  0.001  0.000  0.005
   30  0.005  0.001  0.000  0.005
   31  0.005  0.001  0.000  0.005
   32  0.005  0.001  0.000  0.005
   33  0.005  0.001  0.000  0.005
   34  0.005  0.001  0.000  0.005
   35  0.005  0.001  0.000  0.006
   36  0.002  0.002  0.001  0.006
   37  0.001  0.004  0.000  0.004
   38  0.001  0.000  0.000  0.001
tot    0.520  0.019  0.008  0.547
 
band     4 # energy   -5.24108507 # occ.  2.00000000
 
ion      s      p      d    tot
    1  0.008  0.000  0.000  0.009
    2  0.008  0.000  0.000  0.008
    3  0.008  0.000  0.000  0.008
    4  0.008  0.000  0.000  0.008
    5  0.007  0.000  0.000  0.008
    6  0.008  0.000  0.000  0.008
    7  0.008  0.000  0.000  0.008
    8  0.008  0.000  0.000  0.008
    9  0.008  0.000  0.000  0.008
   10  0.011  0.001  0.015  0.027
   11  0.010  0.001  0.015  0.026
   12  0.011  0.001  0.015  0.027
   13  0.010  0.001  0.015  0.026
   14  0.010  0.001  0.015  0.026
   15  0.010  0.001  0.015  0.026
   16  0.011  0.001  0.015  0.027
   17  0.010  0.001  0.015  0.026
   18  0.010  0.001  0.015  0.026
   19  0.013  0.001  0.018  0.032
   20  0.013  0.001  0.019  0.033
   21  0.013  0.001  0.019  0.033
   22  0.014  0.001  0.018  0.032
   23  0.013  0.001  0.019  0.033
   24  0.014  0.001  0.018  0.032
   25  0.013  0.001  0.018  0.032
   26  0.013  0.001  0.018  0.032
   27  0.014  0.001  0.018  0.032
   28  0.007  0.000  0.000  0.007
   29  0.006  0.000  0.000  0.006
   30  0.006  0.000  0.000  0.006
   31  0.006  0.000  0.000  0.006
   32  0.006  0.000  0.000  0.006
   33  0.006  0.000  0.000  0.006
   34  0.006  0.000  0.000  0.006
   35  0.006  0.000  0.000  0.007
   36  0.002  0.002  0.001  0.004
   37  0.000  0.002  0.000  0.002
   38  0.000  0.000  0.000  0.000
tot    0.328  0.027  0.307  0.662
 
band     5 # energy   -4.96239043 # occ.  2.00000000
 
ion      s      p      d    tot
    1  0.017  0.000  0.027  0.044
    2  0.016  0.000  0.027  0.043
    3  0.016  0.000  0.027  0.043
    4  0.016  0.000  0.027  0.043
    5  0.016  0.000  0.027  0.043
    6  0.016  0.000  0.027  0.043
    7  0.016  0.000  0.027  0.043
    8  0.016  0.000  0.027  0.043
    9  0.017  0.000  0.027  0.044
   10  0.000  0.001  0.021  0.022
   11  0.001  0.001  0.022  0.024
   12  0.000  0.001  0.021  0.022
   13  0.001  0.001  0.022  0.024
   14  0.001  0.001  0.022  0.023
   15  0.001  0.001  0.023  0.024
   16  0.000  0.001  0.021  0.022
   17  0.001  0.001  0.023  0.024
   18  0.001  0.001  0.023  0.024
   19  0.000  0.000  0.006  0.006
   20  0.000  0.000  0.007  0.007
   21  0.000  0.000  0.007  0.007
   22  0.000  0.000  0.010  0.010
   23  0.000  0.000  0.007  0.007
   24  0.000  0.000  0.010  0.010
   25  0.000  0.000  0.006  0.006
   26  0.000  0.000  0.006  0.006
   27  0.000  0.000  0.010  0.010
   28  0.005  0.000  0.006  0.011
   29  0.005  0.000  0.006  0.011
   30  0.005  0.000  0.006  0.011
   31  0.005  0.000  0.006  0.011
   32  0.005  0.000  0.006  0.011
   33  0.005  0.000  0.006  0.011
   34  0.005  0.000  0.006  0.011
   35  0.006  0.000  0.006  0.012
   36  0.002  0.000  0.002  0.004
   37  0.000  0.001  0.000  0.001
   38  0.000  0.000  0.000  0.000
tot    0.195  0.007  0.559  0.762
 
band     6 # energy   -4.85162798 # occ.  2.00000000
 
ion      s      p      d    tot
    1  0.002  0.000  0.003  0.005
    2  0.000  0.000  0.005  0.005
    3  0.000  0.000  0.005  0.005
    4  0.000  0.000  0.005  0.005
    5  0.000  0.000  0.000  0.000
    6  0.000  0.000  0.005  0.005
    7  0.000  0.000  0.005  0.005
    8  0.000  0.000  0.005  0.005
    9  0.002  0.001  0.006  0.009
   10  0.001  0.000  0.056  0.057
   11  0.006  0.001  0.011  0.018
   12  0.001  0.000  0.056  0.057
   13  0.006  0.001  0.011  0.018
   14  0.006  0.001  0.011  0.018
   15  0.013  0.001  0.039  0.053
   16  0.001  0.000  0.056  0.057
   17  0.013  0.001  0.039  0.053
   18  0.013  0.001  0.039  0.053
   19  0.000  0.000  0.036  0.037
   20  0.010  0.000  0.044  0.055
   21  0.010  0.000  0.044  0.055
   22  0.008  0.001  0.010  0.019
   23  0.010  0.000  0.044  0.055
   24  0.008  0.001  0.010  0.019
   25  0.000  0.000  0.036  0.037
   26  0.000  0.000  0.036  0.037
   27  0.008  0.001  0.010  0.019
   28  0.001  0.000  0.002  0.003
   29  0.000  0.000  0.006  0.006
   30  0.000  0.000  0.006  0.006
   31  0.000  0.000  0.006  0.006
   32  0.000  0.000  0.006  0.006
   33  0.000  0.000  0.006  0.006
   34  0.000  0.000  0.006  0.006
   35  0.000  0.000  0.001  0.001
   36  0.002  0.002  0.000  0.004
   37  0.000  0.001  0.000  0.001
   38  0.000  0.000  0.000  0.000
tot    0.123  0.019  0.662  0.804
 
band     7 # energy   -4.84535974 # occ.  2.00000000
 
ion      s      p      d    tot
    1  0.001  0.000  0.001  0.002
    2  0.000  0.000  0.005  0.005
    3  0.000  0.000  0.005  0.005
    4  0.000  0.000  0.005  0.005
    5  0.005  0.001  0.002  0.009
    6  0.000  0.000  0.005  0.005
    7  0.000  0.000  0.005  0.005
    8  0.000  0.000  0.005  0.005
    9  0.001  0.000  0.002  0.003
   10  0.009  0.001  0.005  0.015
   11  0.008  0.000  0.039  0.046
   12  0.009  0.001  0.005  0.015
   13  0.008  0.000  0.039  0.046
   14  0.007  0.000  0.038  0.046
   15  0.000  0.000  0.032  0.032
   16  0.009  0.001  0.005  0.015
   17  0.000  0.000  0.032  0.032
   18  0.000  0.000  0.032  0.032
   19  0.016  0.001  0.016  0.032
   20  0.002  0.001  0.027  0.030
   21  0.002  0.001  0.026  0.029
   22  0.005  0.000  0.075  0.080
   23  0.002  0.001  0.026  0.029
   24  0.005  0.000  0.076  0.080
   25  0.015  0.001  0.015  0.032
   26  0.016  0.001  0.016  0.032
   27  0.005  0.000  0.075  0.080
   28  0.004  0.001  0.004  0.009
   29  0.000  0.000  0.004  0.004
   30  0.000  0.000  0.004  0.004
   31  0.000  0.000  0.004  0.004
   32  0.000  0.000  0.004  0.004
   33  0.000  0.000  0.004  0.004
   34  0.000  0.000  0.004  0.004
   35  0.003  0.001  0.010  0.013
   36  0.000  0.000  0.000  0.000
   37  0.000  0.000  0.000  0.000
   38  0.000  0.000  0.000  0.000
tot    0.131  0.017  0.654  0.802
 
band     8 # energy   -4.83972144 # occ.  2.00000000
 
ion      s      p      d    tot
    1  0.000  0.000  0.000  0.000
    2  0.000  0.000  0.004  0.005
    3  0.002  0.001  0.006  0.009
    4  0.000  0.000  0.004  0.005
    5  0.000  0.000  0.009  0.009
    6  0.001  0.000  0.003  0.004
    7  0.002  0.001  0.006  0.009
    8  0.001  0.000  0.003  0.004
    9  0.000  0.000  0.008  0.008
   10  0.000  0.000  0.028  0.028
   11  0.005  0.000  0.071  0.076
   12  0.000  0.001  0.030  0.030
   13  0.005  0.000  0.070  0.075
   14  0.022  0.001  0.002  0.025
   15  0.006  0.001  0.028  0.035
   16  0.000  0.001  0.030  0.030
   17  0.006  0.001  0.028  0.035
   18  0.023  0.000  0.029  0.052
   19  0.001  0.000  0.043  0.045
   20  0.006  0.000  0.031  0.037
   21  0.001  0.001  0.016  0.019
   22  0.006  0.001  0.043  0.050
   23  0.001  0.001  0.016  0.018
   24  0.025  0.001  0.012  0.037
   25  0.006  0.001  0.009  0.016
   26  0.002  0.000  0.043  0.044
   27  0.006  0.001  0.044  0.050
   28  0.000  0.000  0.003  0.003
   29  0.002  0.000  0.004  0.006
   30  0.000  0.000  0.002  0.002
   31  0.002  0.000  0.004  0.006
   32  0.002  0.000  0.003  0.006
   33  0.000  0.000  0.002  0.002
   34  0.002  0.000  0.003  0.006
   35  0.000  0.000  0.009  0.010
   36  0.000  0.000  0.000  0.000
   37  0.000  0.000  0.000  0.000
   38  0.000  0.000  0.000  0.000
tot    0.135  0.017  0.645  0.798
 
band     9 # energy   -4.83970493 # occ.  2.00000000
 
ion      s      p      d    tot
    1  0.000  0.000  0.000  0.000
    2  0.002  0.001  0.004  0.007
    3  0.000  0.000  0.003  0.003
    4  0.002  0.001  0.004  0.007
    5  0.000  0.000  0.009  0.009
    6  0.002  0.000  0.006  0.008
    7  0.000  0.000  0.003  0.003
    8  0.002  0.000  0.006  0.008
    9  0.000  0.000  0.008  0.008
   10  0.000  0.001  0.030  0.031
   11  0.016  0.001  0.024  0.041
   12  0.000  0.000  0.028  0.029
   13  0.016  0.001  0.025  0.042
   14  0.000  0.000  0.093  0.093
   15  0.018  0.001  0.029  0.047
   16  0.000  0.000  0.028  0.029
   17  0.017  0.001  0.029  0.047
   18  0.000  0.001  0.027  0.029
   19  0.005  0.001  0.020  0.026
   20  0.000  0.001  0.011  0.012
   21  0.004  0.000  0.026  0.031
   22  0.018  0.001  0.023  0.042
   23  0.004  0.000  0.026  0.031
   24  0.000  0.001  0.054  0.054
   25  0.000  0.000  0.054  0.054
   26  0.005  0.001  0.021  0.026
   27  0.018  0.001  0.022  0.042
   28  0.000  0.000  0.003  0.003
   29  0.001  0.000  0.002  0.003
   30  0.002  0.001  0.004  0.007
   31  0.001  0.000  0.002  0.003
   32  0.001  0.000  0.003  0.004
   33  0.002  0.001  0.004  0.007
   34  0.001  0.000  0.003  0.004
   35  0.000  0.000  0.009  0.010
   36  0.000  0.000  0.000  0.000
   37  0.000  0.000  0.000  0.000
   38  0.000  0.000  0.000  0.000
tot    0.135  0.017  0.645  0.798
 
band    10 # energy   -4.83349594 # occ.  2.00000000
 
ion      s      p      d    tot
    1  0.000  0.000  0.009  0.009
    2  0.001  0.000  0.005  0.006
    3  0.000  0.000  0.002  0.003
    4  0.001  0.001  0.005  0.006
    5  0.000  0.000  0.002  0.002
    6  0.001  0.000  0.005  0.006
    7  0.000  0.000  0.002  0.003
    8  0.001  0.000  0.004  0.006
    9  0.000  0.000  0.003  0.004
   10  0.026  0.001  0.016  0.042
   11  0.001  0.001  0.020  0.022
   12  0.007  0.001  0.042  0.049
   13  0.002  0.001  0.021  0.023
   14  0.006  0.000  0.038  0.044
   15  0.002  0.000  0.069  0.071
   16  0.006  0.001  0.043  0.050
   17  0.002  0.000  0.065  0.067
   18  0.008  0.000  0.011  0.019
   19  0.003  0.001  0.018  0.022
   20  0.019  0.001  0.007  0.028
   21  0.005  0.000  0.052  0.058
   22  0.000  0.000  0.044  0.045
   23  0.004  0.000  0.055  0.060
   24  0.001  0.000  0.024  0.025
   25  0.013  0.000  0.029  0.042
   26  0.003  0.001  0.019  0.023
   27  0.000  0.001  0.045  0.046
   28  0.000  0.000  0.004  0.004
   29  0.000  0.000  0.003  0.004
   30  0.001  0.000  0.005  0.006
   31  0.000  0.000  0.003  0.003
   32  0.000  0.000  0.002  0.002
   33  0.001  0.000  0.004  0.006
   34  0.000  0.000  0.002  0.002
   35  0.000  0.000  0.001  0.001
   36  0.000  0.000  0.001  0.001
   37  0.000  0.000  0.000  0.000
   38  0.000  0.000  0.000  0.000
tot    0.114  0.016  0.679  0.809
 
band    11 # energy   -4.83349136 # occ.  2.00000000
 
ion      s      p      d    tot
    1  0.000  0.000  0.009  0.009
    2  0.000  0.000  0.003  0.004
    3  0.001  0.001  0.005  0.007
    4  0.000  0.000  0.003  0.003
    5  0.000  0.000  0.002  0.002
    6  0.000  0.000  0.003  0.004
    7  0.001  0.001  0.005  0.007
    8  0.000  0.000  0.003  0.004
    9  0.000  0.000  0.003  0.004
   10  0.000  0.001  0.051  0.052
   11  0.004  0.001  0.033  0.038
   12  0.018  0.001  0.026  0.045
   13  0.004  0.001  0.031  0.036
   14  0.000  0.001  0.014  0.015
   15  0.006  0.000  0.028  0.034
   16  0.020  0.001  0.024  0.045
   17  0.006  0.000  0.031  0.037
   18  0.000  0.000  0.085  0.085
   19  0.010  0.001  0.026  0.036
   20  0.000  0.000  0.069  0.069
   21  0.014  0.001  0.024  0.039
   22  0.000  0.000  0.032  0.032
   23  0.015  0.001  0.021  0.037
   24  0.000  0.001  0.051  0.052
   25  0.000  0.001  0.015  0.016
   26  0.009  0.001  0.025  0.035
   27  0.000  0.000  0.030  0.031
   28  0.000  0.000  0.004  0.004
   29  0.001  0.000  0.003  0.004
   30  0.000  0.000  0.002  0.002
   31  0.001  0.000  0.003  0.004
   32  0.001  0.000  0.004  0.006
   33  0.000  0.000  0.002  0.002
   34  0.001  0.000  0.004  0.005
   35  0.000  0.000  0.001  0.001
   36  0.000  0.000  0.001  0.001
   37  0.000  0.000  0.000  0.000
   38  0.000  0.000  0.000  0.000
tot    0.114  0.016  0.679  0.809
 
band    12 # energy   -4.82152476 # occ.  2.00000000
 
ion      s      p      d    tot
    1  0.000  0.001  0.016  0.018
    2  0.001  0.000  0.009  0.010
    3  0.001  0.000  0.009  0.010
    4  0.001  0.000  0.009  0.010
    5  0.000  0.000  0.002  0.002
    6  0.001  0.000  0.009  0.010
    7  0.001  0.000  0.009  0.010
    8  0.001  0.000  0.009  0.010
    9  0.008  0.000  0.003  0.012
   10  0.008  0.000  0.031  0.040
   11  0.000  0.000  0.064  0.064
   12  0.008  0.000  0.031  0.040
   13  0.000  0.000  0.064  0.064
   14  0.000  0.000  0.065  0.065
   15  0.002  0.000  0.017  0.020
   16  0.008  0.000  0.031  0.040
   17  0.002  0.000  0.017  0.020
   18  0.002  0.000  0.017  0.020
   19  0.001  0.000  0.007  0.008
   20  0.002  0.000  0.031  0.033
   21  0.002  0.000  0.031  0.033
   22  0.001  0.000  0.043  0.044
   23  0.002  0.000  0.031  0.033
   24  0.001  0.000  0.043  0.044
   25  0.001  0.000  0.007  0.008
   26  0.001  0.000  0.007  0.008
   27  0.001  0.000  0.043  0.044
   28  0.007  0.000  0.001  0.008
   29  0.002  0.000  0.013  0.015
   30  0.002  0.000  0.013  0.015
   31  0.002  0.000  0.013  0.015
   32  0.002  0.000  0.013  0.015
   33  0.002  0.000  0.013  0.015
   34  0.002  0.000  0.013  0.015
   35  0.003  0.000  0.016  0.019
   36  0.001  0.000  0.000  0.001
   37  0.000  0.000  0.000  0.000
   38  0.000  0.000  0.000  0.000
tot    0.073  0.008  0.753  0.834
 
band    13 # energy   -4.79839481 # occ.  2.00000000
 
ion      s      p      d    tot
    1  0.006  0.000  0.005  0.011
    2  0.000  0.000  0.011  0.011
    3  0.000  0.000  0.012  0.012
    4  0.000  0.000  0.011  0.011
    5  0.003  0.001  0.002  0.006
    6  0.000  0.000  0.009  0.009
    7  0.000  0.000  0.012  0.012
    8  0.000  0.000  0.009  0.009
    9  0.000  0.000  0.007  0.007
   10  0.000  0.000  0.041  0.041
   11  0.004  0.000  0.012  0.016
   12  0.001  0.000  0.044  0.045
   13  0.004  0.000  0.012  0.016
   14  0.004  0.000  0.008  0.013
   15  0.000  0.000  0.045  0.045
   16  0.001  0.000  0.044  0.045
   17  0.000  0.000  0.045  0.045
   18  0.001  0.000  0.047  0.049
   19  0.000  0.000  0.070  0.070
   20  0.006  0.000  0.029  0.035
   21  0.004  0.000  0.027  0.031
   22  0.004  0.000  0.022  0.025
   23  0.004  0.000  0.027  0.031
   24  0.003  0.000  0.014  0.017
   25  0.001  0.000  0.063  0.064
   26  0.000  0.000  0.070  0.070
   27  0.004  0.000  0.022  0.026
   28  0.001  0.000  0.012  0.014
   29  0.000  0.000  0.009  0.009
   30  0.000  0.000  0.009  0.010
   31  0.000  0.000  0.009  0.009
   32  0.000  0.000  0.007  0.008
   33  0.000  0.000  0.009  0.010
   34  0.000  0.000  0.007  0.008
   35  0.003  0.001  0.000  0.004
   36  0.002  0.002  0.000  0.004
   37  0.000  0.001  0.000  0.001
   38  0.000  0.000  0.000  0.000
tot    0.056  0.009  0.781  0.846
 
band    14 # energy   -4.79828118 # occ.  2.00000000
 
ion      s      p      d    tot
    1  0.000  0.000  0.020  0.020
    2  0.003  0.000  0.006  0.009
    3  0.001  0.000  0.009  0.010
    4  0.003  0.000  0.006  0.009
    5  0.000  0.000  0.006  0.006
    6  0.001  0.000  0.007  0.008
    7  0.001  0.000  0.009  0.010
    8  0.001  0.000  0.007  0.008
    9  0.000  0.000  0.007  0.008
   10  0.000  0.000  0.042  0.042
   11  0.000  0.000  0.028  0.029
   12  0.002  0.000  0.035  0.037
   13  0.000  0.000  0.029  0.029
   14  0.000  0.000  0.012  0.013
   15  0.003  0.000  0.021  0.025
   16  0.002  0.000  0.035  0.037
   17  0.003  0.000  0.021  0.025
   18  0.000  0.000  0.062  0.062
   19  0.008  0.000  0.036  0.044
   20  0.000  0.000  0.089  0.089
   21  0.005  0.000  0.028  0.034
   22  0.000  0.000  0.035  0.035
   23  0.005  0.000  0.029  0.034
   24  0.000  0.000  0.009  0.010
   25  0.000  0.000  0.067  0.067
   26  0.008  0.000  0.036  0.044
   27  0.000  0.000  0.035  0.035
   28  0.000  0.000  0.013  0.013
   29  0.000  0.000  0.009  0.009
   30  0.002  0.000  0.005  0.007
   31  0.000  0.000  0.009  0.009
   32  0.002  0.001  0.005  0.008
   33  0.002  0.000  0.005  0.007
   34  0.002  0.001  0.005  0.008
   35  0.000  0.000  0.006  0.006
   36  0.000  0.000  0.001  0.001
   37  0.000  0.000  0.000  0.000
   38  0.000  0.000  0.000  0.000
tot    0.053  0.007  0.784  0.845
 
band    15 # energy   -4.79823472 # occ.  2.00000000
 
ion      s      p      d    tot
    1  0.000  0.000  0.019  0.020
    2  0.000  0.000  0.008  0.008
    3  0.002  0.000  0.005  0.007
    4  0.000  0.000  0.008  0.008
    5  0.000  0.000  0.005  0.006
    6  0.002  0.000  0.009  0.011
    7  0.002  0.000  0.005  0.007
    8  0.002  0.000  0.009  0.011
    9  0.000  0.000  0.007  0.008
   10  0.002  0.000  0.035  0.038
   11  0.000  0.000  0.016  0.017
   12  0.000  0.000  0.039  0.039
   13  0.000  0.000  0.016  0.017
   14  0.000  0.000  0.036  0.036
   15  0.001  0.000  0.049  0.051
   16  0.000  0.000  0.039  0.039
   17  0.001  0.000  0.049  0.051
   18  0.004  0.000  0.006  0.010
   19  0.003  0.000  0.055  0.058
   20  0.006  0.000  0.007  0.013
   21  0.003  0.000  0.069  0.072
   22  0.000  0.000  0.015  0.015
   23  0.003  0.000  0.069  0.072
   24  0.001  0.000  0.049  0.049
   25  0.010  0.000  0.031  0.041
   26  0.003  0.000  0.055  0.058
   27  0.000  0.000  0.015  0.015
   28  0.000  0.000  0.013  0.013
   29  0.002  0.000  0.004  0.006
   30  0.001  0.001  0.007  0.008
   31  0.002  0.000  0.004  0.006
   32  0.001  0.000  0.009  0.010
   33  0.001  0.001  0.007  0.008
   34  0.001  0.000  0.009  0.010
   35  0.000  0.000  0.006  0.006
   36  0.000  0.000  0.001  0.001
   37  0.000  0.000  0.000  0.000
   38  0.000  0.000  0.000  0.000
tot    0.053  0.007  0.784  0.845
 
band    16 # energy   -4.78564941 # occ.  2.00000000
 
ion      s      p      d    tot
    1  0.000  0.000  0.006  0.006
    2  0.004  0.001  0.006  0.010
    3  0.001  0.000  0.011  0.012
    4  0.004  0.001  0.006  0.010
    5  0.000  0.000  0.016  0.016
    6  0.001  0.001  0.009  0.011
    7  0.001  0.000  0.011  0.012
    8  0.001  0.001  0.009  0.011
    9  0.000  0.000  0.016  0.016
   10  0.008  0.000  0.011  0.019
   11  0.002  0.000  0.055  0.057
   12  0.002  0.000  0.054  0.056
   13  0.002  0.000  0.055  0.057
   14  0.009  0.000  0.021  0.030
   15  0.000  0.000  0.023  0.023
   16  0.002  0.000  0.054  0.056
   17  0.000  0.000  0.023  0.023
   18  0.000  0.000  0.050  0.050
   19  0.001  0.000  0.036  0.037
   20  0.001  0.000  0.040  0.041
   21  0.000  0.000  0.024  0.024
   22  0.002  0.000  0.057  0.059
   23  0.000  0.000  0.024  0.024
   24  0.009  0.000  0.010  0.020
   25  0.003  0.000  0.017  0.020
   26  0.001  0.000  0.036  0.037
   27  0.002  0.000  0.057  0.059
   28  0.000  0.000  0.003  0.003
   29  0.000  0.000  0.006  0.007
   30  0.001  0.000  0.002  0.003
   31  0.000  0.000  0.006  0.007
   32  0.001  0.000  0.005  0.007
   33  0.001  0.000  0.002  0.003
   34  0.001  0.000  0.005  0.007
   35  0.000  0.000  0.006  0.007
   36  0.000  0.000  0.001  0.001
   37  0.000  0.000  0.000  0.000
   38  0.000  0.000  0.000  0.000
tot    0.062  0.008  0.773  0.842
 
band    17 # energy   -4.78562530 # occ.  2.00000000
 
ion      s      p      d    tot
    1  0.000  0.000  0.005  0.006
    2  0.000  0.000  0.011  0.012
    3  0.003  0.001  0.007  0.010
    4  0.000  0.000  0.011  0.012
    5  0.000  0.000  0.016  0.016
    6  0.003  0.000  0.008  0.011
    7  0.003  0.001  0.007  0.010
    8  0.003  0.000  0.008  0.011
    9  0.000  0.000  0.016  0.016
   10  0.000  0.000  0.068  0.068
   11  0.007  0.000  0.032  0.039
   12  0.006  0.000  0.025  0.032
   13  0.007  0.000  0.032  0.039
   14  0.000  0.000  0.066  0.066
   15  0.000  0.000  0.041  0.041
   16  0.006  0.000  0.025  0.031
   17  0.000  0.000  0.041  0.041
   18  0.000  0.000  0.014  0.014
   19  0.002  0.000  0.023  0.026
   20  0.000  0.000  0.018  0.018
   21  0.001  0.000  0.034  0.035
   22  0.007  0.000  0.026  0.033
   23  0.001  0.000  0.034  0.036
   24  0.000  0.000  0.073  0.073
   25  0.000  0.000  0.043  0.043
   26  0.002  0.000  0.023  0.026
   27  0.007  0.000  0.026  0.033
   28  0.000  0.000  0.003  0.003
   29  0.002  0.000  0.002  0.004
   30  0.001  0.000  0.007  0.008
   31  0.002  0.000  0.002  0.004
   32  0.000  0.000  0.004  0.004
   33  0.001  0.000  0.007  0.008
   34  0.000  0.000  0.004  0.004
   35  0.000  0.000  0.006  0.007
   36  0.000  0.000  0.001  0.001
   37  0.000  0.000  0.000  0.000
   38  0.000  0.000  0.000  0.000
tot    0.062  0.008  0.773  0.842
 
band    18 # energy   -4.75404415 # occ.  2.00000000
 
ion      s      p      d    tot
    1  0.004  0.000  0.002  0.006
    2  0.002  0.000  0.010  0.012
    3  0.002  0.000  0.010  0.012
    4  0.002  0.000  0.010  0.012
    5  0.004  0.000  0.014  0.018
    6  0.002  0.000  0.010  0.012
    7  0.002  0.000  0.010  0.012
    8  0.002  0.000  0.010  0.012
    9  0.000  0.000  0.011  0.011
   10  0.000  0.000  0.009  0.009
   11  0.002  0.000  0.019  0.022
   12  0.000  0.000  0.009  0.009
   13  0.002  0.000  0.019  0.022
   14  0.002  0.000  0.019  0.021
   15  0.004  0.000  0.011  0.015
   16  0.000  0.000  0.009  0.009
   17  0.004  0.000  0.011  0.015
   18  0.004  0.000  0.011  0.015
   19  0.002  0.000  0.013  0.015
   20  0.001  0.001  0.028  0.029
   21  0.001  0.001  0.027  0.029
   22  0.000  0.001  0.017  0.018
   23  0.001  0.001  0.027  0.029
   24  0.000  0.001  0.017  0.018
   25  0.002  0.000  0.013  0.015
   26  0.002  0.000  0.013  0.015
   27  0.000  0.001  0.017  0.018
   28  0.010  0.000  0.032  0.042
   29  0.013  0.000  0.029  0.042
   30  0.013  0.000  0.029  0.042
   31  0.013  0.000  0.029  0.042
   32  0.013  0.000  0.029  0.042
   33  0.013  0.000  0.029  0.042
   34  0.013  0.000  0.029  0.042
   35  0.020  0.000  0.027  0.046
   36  0.006  0.000  0.008  0.014
   37  0.001  0.001  0.000  0.002
   38  0.000  0.000  0.000  0.000
tot    0.159  0.010  0.615  0.785
 
band    19 # energy   -4.63952150 # occ.  2.00000000
 
ion      s      p      d    tot
    1  0.003  0.001  0.003  0.007
    2  0.000  0.000  0.010  0.010
    3  0.000  0.000  0.010  0.010
    4  0.000  0.000  0.010  0.010
    5  0.002  0.000  0.005  0.007
    6  0.000  0.000  0.010  0.010
    7  0.000  0.000  0.010  0.010
    8  0.000  0.000  0.010  0.010
    9  0.000  0.000  0.010  0.011
   10  0.000  0.000  0.031  0.031
   11  0.001  0.000  0.027  0.028
   12  0.000  0.000  0.030  0.031
   13  0.001  0.000  0.027  0.028
   14  0.001  0.000  0.027  0.028
   15  0.001  0.001  0.060  0.062
   16  0.000  0.000  0.030  0.031
   17  0.001  0.001  0.060  0.062
   18  0.001  0.001  0.060  0.062
   19  0.001  0.000  0.022  0.023
   20  0.000  0.000  0.035  0.035
   21  0.000  0.000  0.035  0.035
   22  0.001  0.001  0.053  0.055
   23  0.000  0.000  0.035  0.035
   24  0.001  0.001  0.053  0.055
   25  0.001  0.000  0.022  0.023
   26  0.001  0.000  0.022  0.023
   27  0.001  0.001  0.053  0.055
   28  0.004  0.000  0.003  0.007
   29  0.000  0.000  0.010  0.010
   30  0.000  0.000  0.010  0.010
   31  0.000  0.000  0.010  0.010
   32  0.000  0.000  0.010  0.010
   33  0.000  0.000  0.010  0.010
   34  0.000  0.000  0.010  0.010
   35  0.001  0.000  0.005  0.006
   36  0.002  0.002  0.000  0.004
   37  0.000  0.000  0.000  0.000
   38  0.000  0.000  0.000  0.000
tot    0.026  0.016  0.823  0.865
 
band    20 # energy   -4.63185571 # occ.  2.00000000
 
ion      s      p      d    tot
    1  0.000  0.000  0.006  0.006
    2  0.000  0.000  0.010  0.011
    3  0.000  0.000  0.010  0.011
    4  0.000  0.000  0.010  0.011
    5  0.001  0.001  0.010  0.012
    6  0.000  0.000  0.010  0.011
    7  0.000  0.000  0.010  0.011
    8  0.000  0.000  0.010  0.011
    9  0.004  0.001  0.000  0.004
   10  0.002  0.000  0.043  0.046
   11  0.000  0.001  0.052  0.052
   12  0.002  0.000  0.043  0.045
   13  0.000  0.001  0.052  0.052
   14  0.000  0.001  0.051  0.052
   15  0.001  0.000  0.017  0.018
   16  0.002  0.000  0.043  0.045
   17  0.001  0.000  0.017  0.018
   18  0.001  0.000  0.017  0.018
   19  0.001  0.001  0.054  0.056
   20  0.001  0.000  0.043  0.044
   21  0.001  0.000  0.042  0.043
   22  0.000  0.000  0.019  0.020
   23  0.001  0.000  0.042  0.043
   24  0.000  0.000  0.019  0.019
   25  0.001  0.001  0.054  0.056
   26  0.001  0.001  0.054  0.056
   27  0.000  0.000  0.019  0.020
   28  0.002  0.001  0.006  0.009
   29  0.000  0.000  0.009  0.009
   30  0.000  0.000  0.009  0.009
   31  0.000  0.000  0.009  0.009
   32  0.000  0.000  0.009  0.009
   33  0.000  0.000  0.009  0.009
   34  0.000  0.000  0.009  0.009
   35  0.002  0.001  0.002  0.004
   36  0.001  0.000  0.001  0.002
   37  0.000  0.000  0.000  0.000
   38  0.000  0.000  0.000  0.000
tot    0.026  0.015  0.821  0.862
 
band    21 # energy   -4.62748426 # occ.  2.00000000
 
ion      s      p      d    tot
    1  0.000  0.000  0.010  0.010
    2  0.000  0.000  0.010  0.011
    3  0.001  0.000  0.006  0.007
    4  0.000  0.000  0.010  0.011
    5  0.000  0.000  0.001  0.001
    6  0.002  0.001  0.007  0.010
    7  0.001  0.000  0.006  0.007
    8  0.002  0.001  0.007  0.009
    9  0.000  0.001  0.019  0.020
   10  0.002  0.001  0.041  0.044
   11  0.000  0.000  0.038  0.039
   12  0.000  0.000  0.014  0.015
   13  0.000  0.000  0.038  0.038
   14  0.000  0.001  0.021  0.022
   15  0.001  0.000  0.079  0.080
   16  0.000  0.000  0.014  0.014