PROCAR new format
# of k-points:   10         # of bands:  252         # of ions:   38

 k-point     1 :    0.00000000 0.00000000 0.00000000     weight = 0.01562500

band     1 # energy  -22.38570429 # occ.  2.00000000
 
ion      s      p      d    tot
    1  0.000  0.000  0.000  0.000
    2  0.000  0.000  0.000  0.000
    3  0.000  0.000  0.000  0.000
    4  0.000  0.000  0.000  0.000
    5  0.000  0.000  0.000  0.000
    6  0.000  0.000  0.000  0.000
    7  0.000  0.000  0.000  0.000
    8  0.000  0.000  0.000  0.000
    9  0.000  0.000  0.000  0.000
   10  0.000  0.000  0.000  0.000
   11  0.000  0.000  0.000  0.000
   12  0.000  0.000  0.000  0.000
   13  0.000  0.000  0.000  0.000
   14  0.000  0.000  0.000  0.000
   15  0.000  0.000  0.000  0.000
   16  0.000  0.000  0.000  0.000
   17  0.000  0.000  0.000  0.000
   18  0.000  0.000  0.000  0.000
   19  0.000  0.000  0.000  0.000
   20  0.000  0.000  0.000  0.000
   21  0.000  0.000  0.000  0.000
   22  0.000  0.000  0.000  0.000
   23  0.000  0.000  0.000  0.000
   24  0.000  0.000  0.000  0.000
   25  0.000  0.000  0.000  0.000
   26  0.000  0.000  0.000  0.000
   27  0.000  0.000  0.000  0.000
   28  0.000  0.000  0.000  0.000
   29  0.000  0.000  0.000  0.000
   30  0.000  0.000  0.000  0.000
   31  0.000  0.000  0.000  0.000
   32  0.000  0.000  0.000  0.000
   33  0.000  0.000  0.000  0.000
   34  0.000  0.000  0.000  0.000
   35  0.000  0.000  0.000  0.000
   36  0.000  0.000  0.000  0.000
   37  0.159  0.115  0.000  0.274
   38  0.637  0.095  0.000  0.731
tot    0.795  0.210  0.000  1.006
 
band     2 # energy   -8.38256760 # occ.  2.00000000
 
ion      s      p      d    tot
    1  0.001  0.000  0.000  0.001
    2  0.001  0.000  0.000  0.001
    3  0.001  0.000  0.000  0.001
    4  0.001  0.000  0.000  0.001
    5  0.001  0.000  0.000  0.001
    6  0.001  0.000  0.000  0.001
    7  0.001  0.000  0.000  0.001
    8  0.001  0.000  0.000  0.001
    9  0.001  0.000  0.000  0.001
   10  0.003  0.000  0.000  0.003
   11  0.003  0.000  0.000  0.003
   12  0.003  0.000  0.000  0.003
   13  0.003  0.000  0.000  0.003
   14  0.003  0.000  0.000  0.003
   15  0.003  0.000  0.000  0.003
   16  0.003  0.000  0.000  0.003
   17  0.003  0.000  0.000  0.003
   18  0.003  0.000  0.000  0.003
   19  0.005  0.000  0.000  0.005
   20  0.008  0.000  0.000  0.009
   21  0.008  0.000  0.000  0.009
   22  0.005  0.000  0.000  0.005
   23  0.008  0.000  0.000  0.009
   24  0.005  0.000  0.000  0.005
   25  0.005  0.000  0.000  0.005
   26  0.005  0.000  0.000  0.005
   27  0.005  0.000  0.000  0.005
   28  0.002  0.000  0.000  0.002
   29  0.005  0.000  0.001  0.006
   30  0.005  0.000  0.001  0.006
   31  0.005  0.000  0.001  0.006
   32  0.005  0.000  0.001  0.006
   33  0.005  0.000  0.001  0.006
   34  0.005  0.000  0.001  0.006
   35  0.002  0.000  0.000  0.002
   36  0.063  0.023  0.043  0.129
   37  0.227  0.013  0.000  0.240
   38  0.101  0.126  0.000  0.227
tot    0.511  0.166  0.051  0.728
 
band     3 # energy   -8.03474422 # occ.  2.00000000
 
ion      s      p      d    tot
    1  0.006  0.001  0.000  0.007
    2  0.006  0.001  0.000  0.007
    3  0.006  0.001  0.000  0.007
    4  0.006  0.001  0.000  0.007
    5  0.006  0.000  0.000  0.007
    6  0.006  0.000  0.000  0.007
    7  0.006  0.001  0.000  0.007
    8  0.006  0.000  0.000  0.007
    9  0.006  0.001  0.000  0.007
   10  0.024  0.000  0.000  0.024
   11  0.024  0.000  0.000  0.025
   12  0.024  0.000  0.000  0.024
   13  0.024  0.000  0.000  0.025
   14  0.024  0.000  0.000  0.025
   15  0.025  0.000  0.000  0.025
   16  0.024  0.000  0.000  0.024
   17  0.025  0.000  0.000  0.025
   18  0.025  0.000  0.000  0.025
   19  0.019  0.000  0.000  0.019
   20  0.017  0.000  0.000  0.018
   21  0.017  0.000  0.000  0.018
   22  0.020  0.000  0.000  0.020
   23  0.017  0.000  0.000  0.018
   24  0.020  0.000  0.000  0.020
   25  0.019  0.000  0.000  0.019
   26  0.019  0.000  0.000  0.019
   27  0.020  0.000  0.000  0.020
   28  0.003  0.000  0.000  0.003
   29  0.002  0.001  0.000  0.003
   30  0.002  0.001  0.000  0.003
   31  0.002  0.001  0.000  0.003
   32  0.002  0.001  0.000  0.003
   33  0.002  0.001  0.000  0.003
   34  0.002  0.001  0.000  0.003
   35  0.003  0.000  0.000  0.003
   36  0.003  0.009  0.008  0.020
   37  0.053  0.001  0.000  0.054
   38  0.027  0.043  0.000  0.071
tot    0.541  0.065  0.015  0.621
 
band     4 # energy   -6.89149409 # occ.  2.00000000
 
ion      s      p      d    tot
    1  0.017  0.000  0.001  0.018
    2  0.016  0.000  0.001  0.018
    3  0.016  0.000  0.001  0.018
    4  0.016  0.000  0.001  0.018
    5  0.016  0.000  0.001  0.017
    6  0.016  0.000  0.001  0.018
    7  0.016  0.000  0.001  0.018
    8  0.016  0.000  0.001  0.018
    9  0.016  0.000  0.001  0.018
   10  0.010  0.002  0.002  0.014
   11  0.009  0.002  0.003  0.013
   12  0.010  0.002  0.002  0.014
   13  0.009  0.002  0.003  0.013
   14  0.009  0.002  0.003  0.013
   15  0.009  0.002  0.003  0.013
   16  0.010  0.002  0.002  0.014
   17  0.009  0.002  0.003  0.013
   18  0.009  0.002  0.003  0.013
   19  0.015  0.001  0.004  0.019
   20  0.015  0.001  0.004  0.020
   21  0.015  0.001  0.004  0.020
   22  0.015  0.001  0.004  0.020
   23  0.015  0.001  0.004  0.020
   24  0.015  0.001  0.004  0.020
   25  0.015  0.001  0.004  0.019
   26  0.015  0.001  0.004  0.019
   27  0.015  0.001  0.004  0.020
   28  0.013  0.001  0.000  0.014
   29  0.012  0.001  0.000  0.013
   30  0.012  0.001  0.000  0.013
   31  0.012  0.001  0.000  0.013
   32  0.012  0.001  0.000  0.013
   33  0.012  0.001  0.000  0.013
   34  0.012  0.001  0.000  0.013
   35  0.012  0.001  0.000  0.013
   36  0.006  0.001  0.000  0.007
   37  0.005  0.004  0.000  0.009
   38  0.007  0.026  0.000  0.033
tot    0.479  0.061  0.071  0.611
 
band     5 # energy   -6.01888355 # occ.  2.00000000
 
ion      s      p      d    tot
    1  0.012  0.001  0.000  0.013
    2  0.002  0.000  0.004  0.007
    3  0.002  0.000  0.004  0.007
    4  0.002  0.000  0.004  0.007
    5  0.005  0.000  0.002  0.007
    6  0.002  0.000  0.004  0.007
    7  0.002  0.000  0.004  0.007
    8  0.002  0.000  0.004  0.007
    9  0.001  0.001  0.004  0.006
   10  0.003  0.000  0.018  0.021
   11  0.002  0.001  0.008  0.011
   12  0.003  0.000  0.018  0.021
   13  0.002  0.001  0.008  0.011
   14  0.002  0.001  0.008  0.011
   15  0.022  0.002  0.003  0.026
   16  0.003  0.000  0.018  0.021
   17  0.022  0.002  0.003  0.026
   18  0.022  0.002  0.003  0.026
   19  0.002  0.001  0.016  0.018
   20  0.011  0.001  0.020  0.032
   21  0.011  0.001  0.020  0.032
   22  0.021  0.002  0.001  0.025
   23  0.011  0.001  0.020  0.032
   24  0.021  0.002  0.001  0.025
   25  0.002  0.001  0.016  0.018
   26  0.002  0.001  0.016  0.018
   27  0.021  0.002  0.001  0.025
   28  0.000  0.000  0.003  0.003
   29  0.001  0.001  0.005  0.007
   30  0.001  0.001  0.005  0.007
   31  0.001  0.001  0.005  0.007
   32  0.001  0.001  0.005  0.007
   33  0.001  0.001  0.005  0.007
   34  0.001  0.001  0.005  0.007
   35  0.001  0.001  0.002  0.004
   36  0.038  0.001  0.016  0.055
   37  0.000  0.052  0.000  0.052
   38  0.014  0.105  0.000  0.119
tot    0.274  0.187  0.278  0.739
 
band     6 # energy   -5.96364249 # occ.  2.00000000
 
ion      s      p      d    tot
    1  0.015  0.000  0.022  0.038
    2  0.019  0.000  0.019  0.038
    3  0.019  0.000  0.019  0.038
    4  0.019  0.000  0.019  0.038
    5  0.012  0.000  0.019  0.031
    6  0.019  0.000  0.019  0.038
    7  0.019  0.000  0.019  0.038
    8  0.019  0.000  0.019  0.038
    9  0.032  0.000  0.014  0.047
   10  0.010  0.001  0.023  0.033
   11  0.017  0.001  0.018  0.036
   12  0.010  0.001  0.023  0.033
   13  0.017  0.001  0.018  0.036
   14  0.017  0.001  0.018  0.036
   15  0.001  0.000  0.027  0.028
   16  0.010  0.001  0.023  0.033
   17  0.001  0.000  0.027  0.028
   18  0.001  0.000  0.027  0.028
   19  0.001  0.000  0.004  0.005
   20  0.003  0.001  0.004  0.008
   21  0.003  0.001  0.004  0.008
   22  0.002  0.001  0.002  0.005
   23  0.003  0.001  0.004  0.008
   24  0.002  0.001  0.002  0.005
   25  0.001  0.000  0.004  0.005
   26  0.001  0.000  0.004  0.005
   27  0.002  0.001  0.002  0.005
   28  0.004  0.000  0.000  0.004
   29  0.002  0.000  0.001  0.003
   30  0.002  0.000  0.001  0.003
   31  0.002  0.000  0.001  0.003
   32  0.002  0.000  0.001  0.003
   33  0.002  0.000  0.001  0.003
   34  0.002  0.000  0.001  0.003
   35  0.003  0.000  0.000  0.004
   36  0.000  0.000  0.000  0.000
   37  0.000  0.001  0.000  0.001
   38  0.000  0.001  0.000  0.001
tot    0.288  0.017  0.410  0.716
 
band     7 # energy   -5.93967925 # occ.  2.00000000
 
ion      s      p      d    tot
    1  0.000  0.000  0.005  0.005
    2  0.007  0.001  0.004  0.012
    3  0.004  0.001  0.003  0.008
    4  0.007  0.001  0.004  0.012
    5  0.000  0.001  0.009  0.010
    6  0.000  0.000  0.003  0.004
    7  0.004  0.001  0.003  0.007
    8  0.000  0.000  0.003  0.004
    9  0.000  0.001  0.002  0.003
   10  0.000  0.001  0.025  0.026
   11  0.046  0.002  0.014  0.061
   12  0.009  0.001  0.012  0.022
   13  0.044  0.002  0.014  0.060
   14  0.000  0.001  0.039  0.040
   15  0.014  0.001  0.013  0.028
   16  0.009  0.001  0.011  0.022
   17  0.014  0.001  0.013  0.028
   18  0.000  0.004  0.004  0.008
   19  0.000  0.001  0.010  0.012
   20  0.000  0.004  0.019  0.022
   21  0.033  0.001  0.014  0.049
   22  0.029  0.002  0.012  0.043
   23  0.034  0.001  0.014  0.049
   24  0.000  0.000  0.039  0.039
   25  0.000  0.003  0.006  0.009
   26  0.000  0.001  0.010  0.011
   27  0.030  0.002  0.012  0.043
   28  0.000  0.000  0.001  0.001
   29  0.001  0.000  0.002  0.004
   30  0.007  0.001  0.002  0.011
   31  0.001  0.000  0.002  0.003
   32  0.003  0.001  0.003  0.007
   33  0.007  0.001  0.002  0.011
   34  0.003  0.001  0.003  0.007
   35  0.000  0.000  0.007  0.007
   36  0.000  0.002  0.001  0.002
   37  0.000  0.001  0.000  0.001
   38  0.000  0.001  0.000  0.001
tot    0.307  0.045  0.341  0.693
 
band     8 # energy   -5.93961891 # occ.  2.00000000
 
ion      s      p      d    tot
    1  0.000  0.000  0.005  0.005
    2  0.001  0.000  0.003  0.004
    3  0.003  0.001  0.004  0.008
    4  0.001  0.000  0.003  0.004
    5  0.000  0.001  0.009  0.010
    6  0.007  0.001  0.003  0.011
    7  0.003  0.001  0.004  0.008
    8  0.007  0.001  0.003  0.012
    9  0.000  0.001  0.002  0.003
   10  0.012  0.001  0.007  0.020
   11  0.014  0.001  0.031  0.047
   12  0.003  0.001  0.021  0.025
   13  0.016  0.001  0.030  0.047
   14  0.059  0.002  0.006  0.067
   15  0.004  0.003  0.006  0.014
   16  0.003  0.001  0.021  0.025
   17  0.005  0.003  0.007  0.015
   18  0.019  0.000  0.016  0.035
   19  0.000  0.002  0.008  0.010
   20  0.045  0.001  0.012  0.058
   21  0.012  0.003  0.017  0.032
   22  0.011  0.001  0.030  0.041
   23  0.011  0.003  0.017  0.031
   24  0.040  0.002  0.003  0.044
   25  0.000  0.001  0.012  0.012
   26  0.000  0.002  0.008  0.010
   27  0.010  0.001  0.030  0.041
   28  0.000  0.000  0.001  0.001
   29  0.007  0.001  0.003  0.011
   30  0.000  0.000  0.003  0.003
   31  0.007  0.001  0.003  0.011
   32  0.005  0.001  0.002  0.007
   33  0.000  0.000  0.003  0.003
   34  0.004  0.001  0.002  0.007
   35  0.000  0.000  0.007  0.007
   36  0.000  0.002  0.001  0.002
   37  0.000  0.001  0.000  0.001
   38  0.000  0.001  0.000  0.001
tot    0.307  0.045  0.341  0.693
 
band     9 # energy   -5.92970915 # occ.  2.00000000
 
ion      s      p      d    tot
    1  0.006  0.001  0.001  0.009
    2  0.000  0.001  0.006  0.007
    3  0.000  0.001  0.006  0.007
    4  0.000  0.001  0.006  0.007
    5  0.018  0.002  0.001  0.020
    6  0.000  0.001  0.006  0.007
    7  0.000  0.001  0.006  0.007
    8  0.000  0.001  0.006  0.007
    9  0.000  0.000  0.002  0.002
   10  0.026  0.003  0.002  0.031
   11  0.020  0.001  0.022  0.043
   12  0.025  0.003  0.002  0.031
   13  0.020  0.001  0.022  0.043
   14  0.021  0.001  0.022  0.043
   15  0.000  0.001  0.025  0.026
   16  0.025  0.003  0.002  0.030
   17  0.000  0.001  0.024  0.026
   18  0.000  0.001  0.024  0.026
   19  0.026  0.002  0.007  0.035
   20  0.006  0.002  0.014  0.023
   21  0.006  0.002  0.014  0.023
   22  0.009  0.000  0.026  0.035
   23  0.006  0.002  0.014  0.023
   24  0.009  0.000  0.026  0.035
   25  0.026  0.002  0.007  0.035
   26  0.026  0.002  0.007  0.035
   27  0.009  0.000  0.026  0.035
   28  0.011  0.001  0.001  0.013
   29  0.000  0.000  0.004  0.004
   30  0.000  0.000  0.004  0.005
   31  0.000  0.000  0.004  0.004
   32  0.000  0.000  0.004  0.005
   33  0.000  0.000  0.004  0.005
   34  0.000  0.000  0.004  0.005
   35  0.004  0.001  0.002  0.007
   36  0.000  0.000  0.000  0.001
   37  0.000  0.000  0.000  0.000
   38  0.000  0.000  0.000  0.000
tot    0.301  0.041  0.353  0.695
 
band    10 # energy   -5.91430419 # occ.  2.00000000
 
ion      s      p      d    tot
    1  0.000  0.001  0.007  0.009
    2  0.008  0.001  0.004  0.013
    3  0.006  0.001  0.003  0.011
    4  0.006  0.001  0.004  0.012
    5  0.000  0.000  0.002  0.002
    6  0.001  0.000  0.004  0.005
    7  0.003  0.001  0.003  0.007
    8  0.000  0.000  0.003  0.004
    9  0.000  0.001  0.010  0.010
   10  0.050  0.001  0.013  0.064
   11  0.000  0.003  0.008  0.011
   12  0.022  0.002  0.016  0.040
   13  0.000  0.002  0.010  0.012
   14  0.000  0.001  0.014  0.015
   15  0.005  0.000  0.041  0.046
   16  0.006  0.003  0.018  0.028
   17  0.019  0.001  0.028  0.047
   18  0.043  0.002  0.004  0.049
   19  0.006  0.002  0.030  0.038
   20  0.012  0.002  0.007  0.021
   21  0.005  0.001  0.017  0.024
   22  0.006  0.002  0.009  0.018
   23  0.001  0.001  0.023  0.025
   24  0.014  0.000  0.014  0.029
   25  0.050  0.002  0.006  0.058
   26  0.021  0.002  0.022  0.045
   27  0.002  0.004  0.006  0.012
   28  0.000  0.001  0.007  0.007
   29  0.001  0.000  0.002  0.003
   30  0.003  0.001  0.002  0.006
   31  0.000  0.000  0.002  0.002
   32  0.001  0.000  0.003  0.005
   33  0.004  0.001  0.002  0.007
   34  0.003  0.001  0.003  0.006
   35  0.000  0.000  0.001  0.002
   36  0.000  0.000  0.001  0.001
   37  0.000  0.000  0.000  0.000
   38  0.000  0.001  0.000  0.001
tot    0.300  0.043  0.351  0.694
 
band    11 # energy   -5.91423599 # occ.  2.00000000
 
ion      s      p      d    tot
    1  0.000  0.001  0.007  0.009
    2  0.000  0.000  0.003  0.004
    3  0.002  0.001  0.004  0.007
    4  0.002  0.001  0.003  0.006
    5  0.000  0.000  0.002  0.002
    6  0.007  0.001  0.004  0.012
    7  0.005  0.001  0.004  0.010
    8  0.008  0.001  0.004  0.014
    9  0.000  0.001  0.010  0.010
   10  0.002  0.004  0.019  0.024
   11  0.000  0.001  0.013  0.014
   12  0.030  0.002  0.015  0.048
   13  0.000  0.002  0.011  0.013
   14  0.000  0.003  0.007  0.011
   15  0.039  0.002  0.008  0.049
   16  0.046  0.001  0.014  0.060
   17  0.026  0.001  0.021  0.048
   18  0.001  0.000  0.044  0.046
   19  0.045  0.002  0.009  0.056
   20  0.000  0.001  0.024  0.025
   21  0.008  0.001  0.014  0.023
   22  0.008  0.002  0.011  0.021
   23  0.011  0.001  0.009  0.021
   24  0.000  0.004  0.006  0.010
   25  0.002  0.002  0.033  0.036
   26  0.030  0.002  0.017  0.049
   27  0.013  0.001  0.014  0.027
   28  0.000  0.001  0.007  0.007
   29  0.004  0.001  0.003  0.007
   30  0.001  0.000  0.003  0.004
   31  0.004  0.001  0.003  0.008
   32  0.003  0.001  0.002  0.005
   33  0.000  0.000  0.002  0.002
   34  0.001  0.000  0.002  0.004
   35  0.000  0.000  0.001  0.002
   36  0.000  0.000  0.001  0.001
   37  0.000  0.000  0.000  0.000
   38  0.000  0.001  0.000  0.001
tot    0.300  0.043  0.351  0.694
 
band    12 # energy   -5.87277559 # occ.  2.00000000
 
ion      s      p      d    tot
    1  0.002  0.000  0.000  0.002
    2  0.000  0.000  0.002  0.002
    3  0.000  0.000  0.002  0.002
    4  0.000  0.000  0.002  0.002
    5  0.001  0.000  0.001  0.001
    6  0.000  0.000  0.002  0.002
    7  0.000  0.000  0.002  0.002
    8  0.000  0.000  0.002  0.002
    9  0.002  0.001  0.001  0.004
   10  0.001  0.000  0.014  0.014
   11  0.000  0.001  0.009  0.010
   12  0.001  0.000  0.014  0.014
   13  0.000  0.001  0.009  0.010
   14  0.000  0.001  0.009  0.010
   15  0.012  0.001  0.004  0.017
   16  0.001  0.000  0.014  0.014
   17  0.012  0.001  0.004  0.017
   18  0.012  0.001  0.004  0.017
   19  0.007  0.001  0.021  0.029
   20  0.015  0.001  0.016  0.031
   21  0.015  0.001  0.016  0.031
   22  0.000  0.000  0.025  0.025
   23  0.015  0.001  0.016  0.031
   24  0.000  0.000  0.025  0.025
   25  0.007  0.001  0.021  0.029
   26  0.007  0.001  0.021  0.029
   27  0.000  0.000  0.025  0.025
   28  0.010  0.000  0.009  0.019
   29  0.012  0.000  0.013  0.025
   30  0.012  0.000  0.013  0.025
   31  0.012  0.000  0.013  0.025
   32  0.012  0.000  0.013  0.025
   33  0.012  0.000  0.013  0.025
   34  0.012  0.000  0.013  0.025
   35  0.019  0.000  0.009  0.028
   36  0.015  0.008  0.002  0.026
   37  0.000  0.040  0.000  0.040
   38  0.009  0.078  0.000  0.087
tot    0.233  0.140  0.376  0.749
 
band    13 # energy   -5.58433893 # occ.  2.00000000
 
ion      s      p      d    tot
    1  0.000  0.000  0.000  0.000
    2  0.000  0.000  0.004  0.004
    3  0.000  0.000  0.004  0.004
    4  0.000  0.000  0.004  0.004
    5  0.009  0.001  0.000  0.010
    6  0.000  0.000  0.004  0.004
    7  0.000  0.000  0.004  0.004
    8  0.000  0.000  0.004  0.004
    9  0.003  0.001  0.002  0.006
   10  0.000  0.000  0.017  0.017
   11  0.005  0.001  0.000  0.007
   12  0.000  0.000  0.017  0.017
   13  0.005  0.001  0.000  0.007
   14  0.005  0.001  0.000  0.007
   15  0.011  0.001  0.013  0.024
   16  0.000  0.000  0.017  0.017
   17  0.011  0.001  0.013  0.024
   18  0.011  0.001  0.013  0.024
   19  0.002  0.002  0.004  0.008
   20  0.003  0.001  0.021  0.024
   21  0.003  0.001  0.021  0.024
   22  0.002  0.001  0.021  0.025
   23  0.003  0.001  0.021  0.024
   24  0.002  0.001  0.021  0.025
   25  0.002  0.002  0.004  0.008
   26  0.002  0.002  0.004  0.008
   27  0.002  0.001  0.021  0.025
   28  0.026  0.000  0.004  0.030
   29  0.007  0.001  0.014  0.022
   30  0.007  0.001  0.014  0.022
   31  0.007  0.001  0.014  0.022
   32  0.007  0.001  0.014  0.022
   33  0.007  0.001  0.014  0.022
   34  0.007  0.001  0.014  0.022
   35  0.019  0.000  0.009  0.028
   36  0.023  0.004  0.042  0.069
   37  0.005  0.058  0.000  0.063
   38  0.007  0.076  0.000  0.083
tot    0.206  0.165  0.389  0.760
 
band    14 # energy   -5.47180705 # occ.  2.00000000
 
ion      s      p      d    tot
    1  0.000  0.000  0.003  0.003
    2  0.005  0.001  0.003  0.009
    3  0.001  0.000  0.003  0.004
    4  0.006  0.001  0.003  0.010
    5  0.000  0.001  0.008  0.009
    6  0.005  0.001  0.003  0.009
    7  0.000  0.000  0.003  0.003
    8  0.003  0.001  0.003  0.007
    9  0.000  0.000  0.006  0.006
   10  0.006  0.001  0.006  0.014
   11  0.003  0.000  0.033  0.035
   12  0.002  0.001  0.025  0.028
   13  0.007  0.000  0.026  0.033
   14  0.018  0.001  0.007  0.026
   15  0.000  0.001  0.007  0.009
   16  0.001  0.001  0.033  0.034
   17  0.001  0.001  0.010  0.012
   18  0.003  0.000  0.017  0.020
   19  0.001  0.001  0.015  0.017
   20  0.016  0.002  0.005  0.023
   21  0.006  0.001  0.031  0.038
   22  0.001  0.001  0.017  0.019
   23  0.002  0.000  0.042  0.044
   24  0.001  0.001  0.012  0.014
   25  0.008  0.000  0.014  0.022
   26  0.003  0.001  0.015  0.018
   27  0.000  0.001  0.019  0.020
   28  0.000  0.001  0.010  0.010
   29  0.011  0.001  0.002  0.014
   30  0.001  0.001  0.005  0.006
   31  0.014  0.001  0.002  0.017
   32  0.012  0.001  0.002  0.014
   33  0.000  0.001  0.005  0.005
   34  0.008  0.001  0.002  0.011
   35  0.000  0.000  0.005  0.005
   36  0.000  0.005  0.001  0.007
   37  0.000  0.042  0.000  0.042
   38  0.000  0.095  0.000  0.095
tot    0.144  0.169  0.400  0.713
 
band    15 # energy   -5.47178834 # occ.  2.00000000
 
ion      s      p      d    tot
    1  0.000  0.000  0.003  0.003
    2  0.001  0.001  0.003  0.005
    3  0.006  0.001  0.003  0.010
    4  0.000  0.000  0.003  0.004
    5  0.000  0.001  0.008  0.009
    6  0.002  0.000  0.003  0.005
    7  0.007  0.001  0.003  0.011
    8  0.004  0.001  0.003  0.007
    9  0.000  0.000  0.006  0.006
   10  0.000  0.001  0.036  0.037
   11  0.015  0.001  0.011  0.027
   12  0.004  0.001  0.017  0.022
   13  0.011  0.001  0.018  0.030
   14  0.000  0.000  0.036  0.037
   15  0.003  0.000  0.015  0.018
   16  0.005  0.001  0.010  0.017
   17  0.002  0.001  0.013  0.015
   18  0.000  0.001  0.006  0.007
   19  0.007  0.000  0.014  0.021
   20  0.000  0.000  0.047  0.047
   21  0.010  0.001  0.021  0.032
   22  0.001  0.001  0.015  0.017
   23  0.014  0.001  0.010  0.026
   24  0.000  0.001  0.020  0.021
   25  0.000  0.001  0.015  0.016
   26  0.005  0.000  0.014  0.020
   27  0.001  0.001  0.013  0.015
   28  0.000  0.001  0.010  0.010
   29  0.004  0.001  0.003  0.008
   30  0.014  0.001  0.001  0.016
   31  0.001  0.001  0.004  0.006
   32  0.003  0.001  0.004  0.008
   33  0.015  0.001  0.001  0.017
   34  0.007  0.001  0.003  0.012
   35  0.000  0.000  0.005  0.005
   36  0.000  0.005  0.001  0.007
   37  0.000  0.042  0.000  0.042
   38  0.000  0.095  0.000  0.095
tot    0.144  0.169  0.400  0.713
 
band    16 # energy   -5.46208625 # occ.  2.00000000
 
ion      s      p      d    tot
    1  0.014  0.002  0.002  0.018
    2  0.000  0.001  0.009  0.009
    3  0.000  0.001  0.009  0.009
    4  0.000  0.001  0.009  0.009
    5  0.001  0.000  0.002  0.002
    6  0.000  0.001  0.009  0.009
    7  0.000  0.001  0.009  0.009
    8  0.000  0.001  0.009  0.009
    9  0.019  0.002  0.000  0.021
   10  0.010  0.002  0.015  0.027
   11  0.002  0.000  0.044  0.046
   12  0.010  0.002  0.015  0.027
   13  0.002  0.000  0.044  0.046
   14  0.002  0.000  0.043  0.045
   15  0.004  0.001  0.023  0.028
   16  0.010  0.002  0.015  0.027
   17  0.004  0.001  0.023  0.028
   18  0.004  0.001  0.023  0.028
   19  0.004  0.001  0.016  0.020
   20  0.002  0.000  0.046  0.049
   21  0.002  0.000  0.046  0.049
   22  0.011  0.001  0.016  0.028
   23  0.002  0.000  0.046  0.049
   24  0.011  0.001  0.016  0.028
   25  0.004  0.001  0.015  0.020
   26  0.004  0.001  0.016  0.020
   27  0.011  0.001  0.016  0.028
   28  0.008  0.001  0.001  0.010
   29  0.000  0.001  0.005  0.006
   30  0.000  0.001  0.005  0.006
   31  0.000  0.001  0.005  0.006
   32  0.000  0.001  0.005  0.006
   33  0.000  0.001  0.005  0.006
   34  0.000  0.001  0.005  0.006
   35  0.012  0.001  0.002  0.015
   36  0.000  0.000  0.002  0.002
   37  0.000  0.000  0.000  0.000
   38  0.000  0.000  0.000  0.000
tot    0.155  0.029  0.567  0.752
 
band    17 # energy   -5.41956890 # occ.  2.00000000
 
ion      s      p      d    tot
    1  0.000  0.001  0.015  0.016
    2  0.010  0.001  0.005  0.016
    3  0.002  0.000  0.005  0.007
    4  0.010  0.001  0.005  0.016
    5  0.000  0.000  0.006  0.006
    6  0.005  0.001  0.006  0.011
    7  0.001  0.000  0.005  0.006
    8  0.003  0.001  0.006  0.010
    9  0.000  0.001  0.007  0.008
   10  0.000  0.001  0.031  0.032
   11  0.001  0.001  0.020  0.021
   12  0.007  0.000  0.024  0.031
   13  0.001  0.001  0.020  0.021
   14  0.000  0.001  0.019  0.020
   15  0.013  0.002  0.017  0.032
   16  0.008  0.000  0.022  0.031
   17  0.011  0.002  0.025  0.037
   18  0.000  0.000  0.064  0.064
   19  0.015  0.001  0.016  0.031
   20  0.000  0.001  0.020  0.022
   21  0.000  0.001  0.020  0.021
   22  0.014  0.001  0.021  0.037
   23  0.000  0.000  0.020  0.021
   24  0.000  0.000  0.030  0.030
   25  0.000  0.000  0.064  0.065
   26  0.012  0.001  0.024  0.037
   27  0.017  0.001  0.020  0.038
   28  0.000  0.001  0.005  0.005
   29  0.005  0.001  0.004  0.010
   30  0.001  0.000  0.004  0.005
   31  0.006  0.001  0.004  0.011
   32  0.004  0.001  0.002  0.007
   33  0.000  0.000  0.003  0.004
   34  0.003  0.001  0.002  0.005
   35  0.000  0.001  0.007  0.008
   36  0.000  0.000  0.000  0.001
   37  0.000  0.002  0.000  0.002
   38  0.000  0.005  0.000  0.005
tot    0.149  0.036  0.566  0.751
 
band    18 # energy   -5.41954103 # occ.  2.00000000
 
ion      s      p      d    tot
    1  0.000  0.001  0.015  0.016
    2  0.001  0.001  0.006  0.007
    3  0.008  0.001  0.005  0.015
    4  0.000  0.000  0.006  0.006
    5  0.000  0.000  0.006  0.006
    6  0.006  0.001  0.005  0.011
    7  0.010  0.001  0.005  0.016
    8  0.007  0.001  0.005  0.013
    9  0.000  0.001  0.007  0.008
   10  0.010  0.000  0.020  0.031
   11  0.000  0.001  0.019  0.020
   12  0.003  0.001  0.028  0.032
   13  0.000  0.001  0.019  0.020
   14  0.001  0.001  0.020  0.022
   15  0.003  0.000  0.054  0.057
   16  0.002  0.001  0.029  0.032
   17  0.005  0.001  0.046  0.052
   18  0.016  0.002  0.006  0.025
   19  0.003  0.000  0.054  0.058
   20  0.000  0.000  0.020  0.020
   21  0.000  0.001  0.020  0.021
   22  0.007  0.001  0.026  0.033
   23  0.000  0.001  0.020  0.021
   24  0.021  0.001  0.017  0.039
   25  0.018  0.001  0.005  0.024
   26  0.006  0.001  0.045  0.052
   27  0.004  0.001  0.028  0.032
   28  0.000  0.001  0.005  0.005
   29  0.001  0.000  0.002  0.003
   30  0.005  0.001  0.003  0.009
   31  0.000  0.000  0.003  0.003
   32  0.002  0.001  0.004  0.007
   33  0.006  0.001  0.003  0.010
   34  0.003  0.001  0.004  0.009
   35  0.000  0.001  0.007  0.008
   36  0.000  0.000  0.000  0.001
   37  0.000  0.002  0.000  0.002
   38  0.000  0.005  0.000  0.005
tot    0.149  0.036  0.566  0.751
 
band    19 # energy   -5.37601052 # occ.  2.00000000
 
ion      s      p      d    tot
    1  0.000  0.000  0.001  0.001
    2  0.003  0.000  0.002  0.005
    3  0.001  0.000  0.002  0.003
    4  0.004  0.000  0.002  0.005
    5  0.000  0.000  0.004  0.004
    6  0.001  0.000  0.002  0.003
    7  0.001  0.000  0.002  0.003
    8  0.001  0.000  0.002  0.003
    9  0.000  0.000  0.005  0.005
   10  0.002  0.001  0.004  0.007
   11  0.001  0.000  0.015  0.016
   12  0.000  0.000  0.010  0.010
   13  0.001  0.000  0.015  0.016
   14  0.003  0.001  0.004  0.008
   15  0.000  0.000  0.007  0.007
   16  0.000  0.000  0.010  0.011
   17  0.000  0.000  0.007  0.007
   18  0.000  0.000  0.008  0.009
   19  0.000  0.000  0.003  0.003
   20  0.007  0.000  0.006  0.013
   21  0.002  0.000  0.014  0.016
   22  0.001  0.000  0.018  0.019
   23  0.002  0.000  0.014  0.016
   24  0.004  0.000  0.002  0.006
   25  0.001  0.000  0.008  0.009
   26  0.000  0.000  0.003  0.003
   27  0.001  0.000  0.018  0.019
   28  0.000  0.000  0.000  0.000
   29  0.000  0.001  0.006  0.007
   30  0.000  0.000  0.003  0.003
   31  0.000  0.001  0.006  0.007
   32  0.000  0.001  0.005  0.006
   33  0.000  0.000  0.003  0.003
   34  0.000  0.001  0.005  0.005
   35  0.000  0.000  0.002  0.002
   36  0.000  0.002  0.022  0.024
   37  0.000  0.124  0.000  0.124
   38  0.000  0.294  0.000  0.294
tot    0.038  0.428  0.239  0.704
 
band    20 # energy   -5.37591129 # occ.  2.00000000
 
ion      s      p      d    tot
    1  0.000  0.000  0.001  0.001
    2  0.000  0.000  0.002  0.002
    3  0.003  0.000  0.002  0.005
    4  0.000  0.000  0.002  0.002
    5  0.000  0.000  0.004  0.004
    6  0.002  0.000  0.002  0.004
    7  0.003  0.000  0.002  0.005
    8  0.002  0.000  0.002  0.004
    9  0.000  0.000  0.005  0.005
   10  0.000  0.000  0.012  0.012
   11  0.003  0.000  0.008  0.011
   12  0.001  0.001  0.006  0.008
   13  0.002  0.000  0.008  0.011
   14  0.000  0.000  0.018  0.018
   15  0.000  0.000  0.008  0.008
   16  0.001  0.001  0.006  0.008
   17  0.000  0.000  0.008  0.008
   18  0.000  0.000  0.007  0.007
   19  0.001  0.000  0.007  0.007
   20  0.000  0.000  0.017  0.017
   21  0.005  0.000  0.009  0.014
   22  0.003  0.000  0.007  0.010
   23  0.006  0.000  0.009  0.014
   24  0.000  0.000  0.023  0.023
   25  0.000  0.000  0.001  0.001
   26  0.001  0.000  0.006  0.007
   27  0.003  0.000  0.007  0.010
   28  0.000  0.000  0.000  0.000
   29  0.000  0.000  0.003  0.003
   30  0.000  0.001  0.006  0.008
   31  0.000  0.000  0.003  0.003
   32  0.000  0.000  0.004  0.005
   33  0.000  0.001  0.006  0.008
   34  0.000  0.000  0.004  0.005
   35  0.000  0.000  0.002  0.002
   36  0.000  0.002  0.022  0.024
   37  0.000  0.124  0.000  0.124
   38  0.000  0.294  0.000  0.294
tot    0.038  0.428  0.239  0.704
 
band    21 # energy   -5.33941326 # occ.  2.00000000
 
ion      s      p      d    tot
    1  0.015  0.001  0.001  0.016
    2  0.000  0.000  0.009  0.009
    3  0.000  0.000  0.009  0.009
    4  0.000  0.000  0.009  0.009
    5  0.011  0.001  0.001  0.014
    6  0.000  0.000  0.009  0.009
    7  0.000  0.000  0.009  0.009
    8  0.000  0.000  0.009  0.009
    9  0.000  0.000  0.001  0.001
   10  0.000  0.001  0.028  0.029
   11  0.003  0.001  0.014  0.018
   12  0.000  0.001  0.029  0.029
   13  0.003  0.001  0.014  0.018
   14  0.003  0.001  0.014  0.018
   15  0.001  0.000  0.022  0.023
   16  0.000  0.001  0.028  0.029