PROCAR new format
# of k-points:   10         # of bands:  252         # of ions:   37

 k-point     1 :    0.00000000 0.00000000 0.00000000     weight = 0.01562500

band     1 # energy   -8.21535645 # occ.  2.00000000
 
ion      s      p      d    tot
    1  0.007  0.001  0.000  0.007
    2  0.007  0.001  0.000  0.007
    3  0.007  0.001  0.000  0.007
    4  0.007  0.001  0.000  0.007
    5  0.007  0.001  0.000  0.007
    6  0.007  0.001  0.000  0.007
    7  0.007  0.001  0.000  0.007
    8  0.007  0.001  0.000  0.007
    9  0.007  0.001  0.000  0.007
   10  0.027  0.000  0.000  0.027
   11  0.027  0.000  0.000  0.028
   12  0.027  0.000  0.000  0.027
   13  0.027  0.000  0.000  0.028
   14  0.027  0.000  0.000  0.028
   15  0.027  0.000  0.000  0.027
   16  0.027  0.000  0.000  0.027
   17  0.027  0.000  0.000  0.027
   18  0.027  0.000  0.000  0.027
   19  0.023  0.000  0.000  0.024
   20  0.026  0.000  0.000  0.026
   21  0.026  0.000  0.000  0.026
   22  0.025  0.000  0.000  0.025
   23  0.026  0.000  0.000  0.026
   24  0.025  0.000  0.000  0.025
   25  0.023  0.000  0.000  0.024
   26  0.023  0.000  0.000  0.024
   27  0.025  0.000  0.000  0.025
   28  0.005  0.000  0.000  0.005
   29  0.005  0.000  0.000  0.005
   30  0.005  0.000  0.000  0.005
   31  0.005  0.000  0.000  0.005
   32  0.005  0.000  0.000  0.005
   33  0.005  0.000  0.000  0.005
   34  0.005  0.000  0.000  0.005
   35  0.005  0.000  0.000  0.005
   36  0.004  0.000  0.000  0.005
   37  0.000  0.000  0.000  0.000
tot    0.565  0.012  0.003  0.581
 
band     2 # energy   -7.02760505 # occ.  2.00000000
 
ion      s      p      d    tot
    1  0.017  0.000  0.001  0.019
    2  0.017  0.000  0.001  0.018
    3  0.017  0.000  0.001  0.018
    4  0.017  0.000  0.001  0.018
    5  0.017  0.000  0.001  0.018
    6  0.017  0.000  0.001  0.018
    7  0.017  0.000  0.001  0.018
    8  0.017  0.000  0.001  0.018
    9  0.017  0.000  0.001  0.019
   10  0.010  0.002  0.003  0.014
   11  0.010  0.002  0.003  0.014
   12  0.010  0.002  0.003  0.014
   13  0.010  0.002  0.003  0.014
   14  0.010  0.002  0.003  0.014
   15  0.010  0.002  0.003  0.014
   16  0.010  0.002  0.003  0.014
   17  0.010  0.002  0.003  0.014
   18  0.010  0.002  0.003  0.014
   19  0.014  0.001  0.004  0.019
   20  0.016  0.001  0.004  0.021
   21  0.016  0.001  0.004  0.021
   22  0.015  0.001  0.004  0.020
   23  0.016  0.001  0.004  0.021
   24  0.015  0.001  0.004  0.020
   25  0.014  0.001  0.004  0.019
   26  0.014  0.001  0.004  0.019
   27  0.015  0.001  0.004  0.020
   28  0.013  0.001  0.000  0.014
   29  0.013  0.001  0.000  0.014
   30  0.013  0.001  0.000  0.014
   31  0.013  0.001  0.000  0.014
   32  0.013  0.001  0.000  0.014
   33  0.013  0.001  0.000  0.014
   34  0.013  0.001  0.000  0.014
   35  0.013  0.001  0.000  0.014
   36  0.010  0.000  0.000  0.010
   37  0.001  0.000  0.000  0.001
tot    0.494  0.032  0.071  0.597
 
band     3 # energy   -6.08847781 # occ.  2.00000000
 
ion      s      p      d    tot
    1  0.010  0.000  0.021  0.032
    2  0.017  0.000  0.017  0.034
    3  0.017  0.000  0.017  0.034
    4  0.017  0.000  0.017  0.034
    5  0.010  0.000  0.016  0.026
    6  0.017  0.000  0.017  0.034
    7  0.017  0.000  0.017  0.034
    8  0.017  0.000  0.017  0.034
    9  0.034  0.000  0.012  0.046
   10  0.012  0.001  0.022  0.035
   11  0.018  0.001  0.018  0.037
   12  0.012  0.001  0.022  0.035
   13  0.018  0.001  0.018  0.037
   14  0.018  0.001  0.018  0.037
   15  0.000  0.001  0.027  0.027
   16  0.012  0.001  0.022  0.035
   17  0.000  0.001  0.027  0.027
   18  0.000  0.001  0.027  0.027
   19  0.001  0.000  0.006  0.008
   20  0.005  0.001  0.007  0.013
   21  0.005  0.001  0.007  0.013
   22  0.005  0.001  0.002  0.008
   23  0.005  0.001  0.007  0.013
   24  0.005  0.001  0.002  0.008
   25  0.001  0.000  0.006  0.008
   26  0.001  0.000  0.006  0.008
   27  0.005  0.001  0.002  0.008
   28  0.003  0.000  0.000  0.003
   29  0.001  0.000  0.001  0.003
   30  0.001  0.000  0.001  0.003
   31  0.001  0.000  0.001  0.003
   32  0.001  0.000  0.001  0.003
   33  0.001  0.000  0.001  0.003
   34  0.001  0.000  0.001  0.003
   35  0.004  0.000  0.000  0.005
   36  0.000  0.000  0.000  0.001
   37  0.000  0.000  0.000  0.000
tot    0.288  0.018  0.409  0.715
 
band     4 # energy   -6.07731858 # occ.  2.00000000
 
ion      s      p      d    tot
    1  0.019  0.001  0.001  0.020
    2  0.004  0.000  0.009  0.014
    3  0.004  0.000  0.009  0.014
    4  0.004  0.000  0.009  0.014
    5  0.010  0.000  0.005  0.015
    6  0.004  0.000  0.009  0.014
    7  0.004  0.000  0.009  0.014
    8  0.004  0.000  0.009  0.014
    9  0.001  0.002  0.009  0.012
   10  0.002  0.000  0.032  0.034
   11  0.001  0.002  0.016  0.019
   12  0.001  0.000  0.032  0.034
   13  0.001  0.002  0.016  0.019
   14  0.001  0.002  0.016  0.019
   15  0.039  0.002  0.006  0.047
   16  0.001  0.000  0.032  0.034
   17  0.039  0.002  0.006  0.047
   18  0.039  0.002  0.006  0.047
   19  0.000  0.001  0.019  0.020
   20  0.021  0.001  0.016  0.037
   21  0.021  0.001  0.016  0.037
   22  0.015  0.003  0.005  0.023
   23  0.021  0.001  0.016  0.037
   24  0.015  0.003  0.005  0.023
   25  0.000  0.001  0.019  0.020
   26  0.000  0.001  0.019  0.020
   27  0.015  0.003  0.005  0.023
   28  0.000  0.000  0.001  0.001
   29  0.000  0.000  0.003  0.004
   30  0.000  0.000  0.003  0.004
   31  0.000  0.000  0.003  0.004
   32  0.000  0.000  0.003  0.004
   33  0.000  0.000  0.003  0.004
   34  0.000  0.000  0.003  0.004
   35  0.003  0.001  0.000  0.004
   36  0.009  0.001  0.001  0.011
   37  0.001  0.000  0.000  0.001
tot    0.298  0.035  0.372  0.705
 
band     5 # energy   -6.05717914 # occ.  2.00000000
 
ion      s      p      d    tot
    1  0.000  0.000  0.006  0.006
    2  0.006  0.001  0.004  0.012
    3  0.005  0.001  0.003  0.009
    4  0.007  0.001  0.004  0.012
    5  0.000  0.001  0.009  0.011
    6  0.000  0.000  0.003  0.004
    7  0.005  0.001  0.003  0.009
    8  0.000  0.000  0.003  0.004
    9  0.000  0.001  0.002  0.002
   10  0.000  0.001  0.030  0.030
   11  0.046  0.002  0.015  0.062
   12  0.013  0.001  0.012  0.026
   13  0.047  0.002  0.015  0.063
   14  0.000  0.002  0.037  0.039
   15  0.010  0.001  0.012  0.024
   16  0.013  0.001  0.012  0.026
   17  0.010  0.001  0.013  0.024
   18  0.000  0.004  0.002  0.007
   19  0.001  0.001  0.010  0.012
   20  0.000  0.003  0.023  0.026
   21  0.037  0.002  0.014  0.052
   22  0.026  0.002  0.011  0.039
   23  0.036  0.002  0.014  0.052
   24  0.000  0.000  0.036  0.036
   25  0.000  0.003  0.005  0.008
   26  0.001  0.001  0.010  0.012
   27  0.025  0.001  0.012  0.039
   28  0.000  0.000  0.001  0.001
   29  0.000  0.000  0.002  0.003
   30  0.006  0.001  0.003  0.010
   31  0.000  0.000  0.002  0.003
   32  0.003  0.001  0.003  0.007
   33  0.006  0.001  0.002  0.010
   34  0.003  0.001  0.003  0.007
   35  0.000  0.000  0.006  0.006
   36  0.000  0.001  0.001  0.003
   37  0.000  0.000  0.000  0.000
tot    0.307  0.043  0.344  0.694
 
band     6 # energy   -6.05715983 # occ.  2.00000000
 
ion      s      p      d    tot
    1  0.000  0.000  0.006  0.006
    2  0.001  0.000  0.003  0.005
    3  0.003  0.001  0.004  0.007
    4  0.001  0.000  0.003  0.004
    5  0.000  0.001  0.009  0.011
    6  0.008  0.001  0.004  0.012
    7  0.003  0.001  0.004  0.007
    8  0.008  0.001  0.004  0.012
    9  0.000  0.001  0.002  0.002
   10  0.017  0.002  0.006  0.025
   11  0.016  0.002  0.029  0.047
   12  0.004  0.001  0.024  0.029
   13  0.015  0.002  0.030  0.047
   14  0.062  0.001  0.007  0.070
   15  0.004  0.003  0.006  0.013
   16  0.004  0.001  0.024  0.029
   17  0.003  0.003  0.006  0.012
   18  0.014  0.000  0.016  0.030
   19  0.000  0.002  0.007  0.009
   20  0.049  0.001  0.011  0.061
   21  0.012  0.003  0.020  0.035
   22  0.008  0.000  0.028  0.037
   23  0.012  0.003  0.020  0.035
   24  0.034  0.002  0.003  0.039
   25  0.001  0.000  0.012  0.013
   26  0.000  0.002  0.007  0.009
   27  0.009  0.001  0.028  0.037
   28  0.000  0.000  0.001  0.001
   29  0.006  0.001  0.003  0.010
   30  0.000  0.000  0.003  0.003
   31  0.006  0.001  0.003  0.010
   32  0.003  0.001  0.002  0.006
   33  0.000  0.000  0.003  0.004
   34  0.003  0.001  0.002  0.006
   35  0.000  0.000  0.006  0.006
   36  0.000  0.001  0.001  0.003
   37  0.000  0.000  0.000  0.000
tot    0.307  0.043  0.344  0.694
 
band     7 # energy   -6.04576674 # occ.  2.00000000
 
ion      s      p      d    tot
    1  0.007  0.001  0.001  0.010
    2  0.000  0.001  0.006  0.007
    3  0.000  0.001  0.006  0.007
    4  0.000  0.001  0.006  0.007
    5  0.017  0.002  0.001  0.019
    6  0.000  0.001  0.006  0.007
    7  0.000  0.001  0.006  0.007
    8  0.000  0.001  0.006  0.007
    9  0.000  0.000  0.002  0.002
   10  0.026  0.003  0.002  0.031
   11  0.021  0.001  0.023  0.044
   12  0.025  0.003  0.002  0.030
   13  0.021  0.001  0.023  0.044
   14  0.021  0.001  0.023  0.045
   15  0.000  0.001  0.024  0.026
   16  0.025  0.003  0.002  0.030
   17  0.000  0.001  0.024  0.026
   18  0.000  0.001  0.024  0.025
   19  0.025  0.002  0.006  0.033
   20  0.005  0.002  0.016  0.023
   21  0.006  0.002  0.016  0.024
   22  0.009  0.000  0.026  0.035
   23  0.006  0.002  0.016  0.024
   24  0.009  0.000  0.026  0.035
   25  0.025  0.002  0.006  0.033
   26  0.025  0.002  0.006  0.033
   27  0.009  0.000  0.026  0.035
   28  0.011  0.001  0.001  0.013
   29  0.000  0.000  0.004  0.004
   30  0.000  0.000  0.004  0.004
   31  0.000  0.000  0.004  0.004
   32  0.000  0.000  0.004  0.004
   33  0.000  0.000  0.004  0.004
   34  0.000  0.000  0.004  0.004
   35  0.004  0.001  0.002  0.007
   36  0.000  0.000  0.000  0.000
   37  0.000  0.000  0.000  0.000
tot    0.300  0.040  0.355  0.695
 
band     8 # energy   -6.02457968 # occ.  2.00000000
 
ion      s      p      d    tot
    1  0.000  0.001  0.006  0.008
    2  0.007  0.001  0.004  0.013
    3  0.006  0.001  0.003  0.010
    4  0.007  0.001  0.004  0.013
    5  0.000  0.000  0.002  0.002
    6  0.000  0.000  0.004  0.004
    7  0.006  0.001  0.003  0.010
    8  0.000  0.000  0.004  0.004
    9  0.000  0.001  0.011  0.011
   10  0.047  0.000  0.014  0.062
   11  0.000  0.002  0.011  0.014
   12  0.011  0.003  0.015  0.029
   13  0.000  0.003  0.011  0.014
   14  0.000  0.001  0.013  0.014
   15  0.013  0.001  0.036  0.050
   16  0.012  0.003  0.015  0.030
   17  0.012  0.001  0.037  0.050
   18  0.051  0.002  0.003  0.056
   19  0.013  0.001  0.027  0.041
   20  0.009  0.001  0.007  0.018
   21  0.002  0.001  0.018  0.021
   22  0.005  0.003  0.009  0.017
   23  0.002  0.001  0.018  0.021
   24  0.019  0.000  0.014  0.033
   25  0.049  0.002  0.005  0.056
   26  0.012  0.001  0.027  0.041
   27  0.005  0.003  0.009  0.017
   28  0.000  0.001  0.006  0.007
   29  0.000  0.000  0.002  0.002
   30  0.003  0.001  0.002  0.006
   31  0.000  0.000  0.002  0.002
   32  0.002  0.001  0.003  0.006
   33  0.003  0.001  0.002  0.006
   34  0.002  0.001  0.003  0.005
   35  0.000  0.000  0.002  0.002
   36  0.000  0.000  0.001  0.001
   37  0.000  0.000  0.000  0.000
tot    0.300  0.042  0.351  0.693
 
band     9 # energy   -6.02454852 # occ.  2.00000000
 
ion      s      p      d    tot
    1  0.000  0.001  0.006  0.008
    2  0.002  0.001  0.003  0.005
    3  0.003  0.001  0.004  0.008
    4  0.001  0.001  0.003  0.005
    5  0.000  0.000  0.002  0.002
    6  0.009  0.001  0.004  0.014
    7  0.003  0.001  0.004  0.008
    8  0.008  0.001  0.004  0.014
    9  0.000  0.001  0.011  0.011
   10  0.000  0.004  0.015  0.019
   11  0.000  0.001  0.012  0.014
   12  0.036  0.001  0.014  0.051
   13  0.000  0.001  0.012  0.014
   14  0.000  0.003  0.011  0.014
   15  0.038  0.001  0.015  0.054
   16  0.035  0.001  0.014  0.051
   17  0.039  0.001  0.014  0.054
   18  0.000  0.000  0.048  0.048
   19  0.037  0.002  0.012  0.051
   20  0.000  0.001  0.021  0.022
   21  0.007  0.001  0.011  0.019
   22  0.014  0.001  0.012  0.028
   23  0.006  0.001  0.011  0.019
   24  0.000  0.004  0.007  0.011
   25  0.000  0.001  0.035  0.036
   26  0.037  0.002  0.012  0.051
   27  0.014  0.001  0.012  0.027
   28  0.000  0.001  0.006  0.007
   29  0.004  0.001  0.002  0.007
   30  0.000  0.000  0.002  0.003
   31  0.004  0.001  0.002  0.007
   32  0.002  0.000  0.002  0.004
   33  0.000  0.000  0.002  0.003
   34  0.002  0.000  0.002  0.004
   35  0.000  0.000  0.002  0.002
   36  0.000  0.000  0.001  0.001
   37  0.000  0.000  0.000  0.000
tot    0.300  0.042  0.351  0.693
 
band    10 # energy   -5.90141099 # occ.  2.00000000
 
ion      s      p      d    tot
    1  0.000  0.000  0.000  0.000
    2  0.000  0.000  0.000  0.001
    3  0.000  0.000  0.000  0.001
    4  0.000  0.000  0.000  0.001
    5  0.001  0.000  0.000  0.001
    6  0.000  0.000  0.000  0.001
    7  0.000  0.000  0.000  0.001
    8  0.000  0.000  0.000  0.001
    9  0.000  0.000  0.000  0.000
   10  0.000  0.000  0.002  0.003
   11  0.000  0.000  0.002  0.003
   12  0.000  0.000  0.002  0.003
   13  0.000  0.000  0.002  0.003
   14  0.000  0.000  0.002  0.003
   15  0.000  0.000  0.003  0.003
   16  0.000  0.000  0.002  0.003
   17  0.000  0.000  0.003  0.003
   18  0.000  0.000  0.003  0.003
   19  0.006  0.001  0.021  0.028
   20  0.004  0.001  0.025  0.030
   21  0.004  0.001  0.025  0.030
   22  0.006  0.001  0.028  0.035
   23  0.004  0.001  0.025  0.030
   24  0.006  0.001  0.028  0.035
   25  0.006  0.001  0.021  0.028
   26  0.006  0.001  0.021  0.028
   27  0.006  0.001  0.028  0.035
   28  0.027  0.000  0.022  0.048
   29  0.026  0.000  0.022  0.047
   30  0.026  0.000  0.022  0.047
   31  0.026  0.000  0.022  0.047
   32  0.026  0.000  0.022  0.047
   33  0.026  0.000  0.022  0.047
   34  0.026  0.000  0.022  0.047
   35  0.030  0.000  0.022  0.053
   36  0.011  0.001  0.002  0.014
   37  0.002  0.000  0.000  0.002
tot    0.280  0.011  0.424  0.715
 
band    11 # energy   -5.58552778 # occ.  2.00000000
 
ion      s      p      d    tot
    1  0.016  0.002  0.002  0.019
    2  0.000  0.001  0.009  0.009
    3  0.000  0.001  0.009  0.009
    4  0.000  0.001  0.009  0.009
    5  0.000  0.000  0.002  0.002
    6  0.000  0.001  0.009  0.009
    7  0.000  0.001  0.009  0.009
    8  0.000  0.001  0.009  0.009
    9  0.016  0.001  0.000  0.018
   10  0.010  0.002  0.012  0.023
   11  0.003  0.000  0.042  0.045
   12  0.010  0.002  0.012  0.023
   13  0.003  0.000  0.042  0.045
   14  0.003  0.000  0.042  0.045
   15  0.002  0.001  0.027  0.030
   16  0.010  0.002  0.012  0.023
   17  0.002  0.001  0.027  0.030
   18  0.002  0.001  0.027  0.031
   19  0.006  0.001  0.011  0.018
   20  0.001  0.000  0.048  0.049
   21  0.001  0.000  0.048  0.049
   22  0.011  0.001  0.022  0.034
   23  0.001  0.000  0.048  0.049
   24  0.011  0.001  0.022  0.034
   25  0.006  0.001  0.011  0.018
   26  0.006  0.001  0.011  0.018
   27  0.011  0.001  0.022  0.034
   28  0.010  0.001  0.001  0.013
   29  0.000  0.001  0.005  0.006
   30  0.000  0.001  0.005  0.006
   31  0.000  0.001  0.005  0.006
   32  0.000  0.001  0.005  0.006
   33  0.000  0.001  0.005  0.006
   34  0.000  0.001  0.005  0.006
   35  0.009  0.001  0.002  0.012
   36  0.001  0.000  0.000  0.001
   37  0.000  0.000  0.000  0.000
tot    0.151  0.028  0.574  0.753
 
band    12 # energy   -5.56793164 # occ.  2.00000000
 
ion      s      p      d    tot
    1  0.000  0.001  0.004  0.005
    2  0.000  0.001  0.005  0.006
    3  0.008  0.001  0.005  0.014
    4  0.000  0.000  0.005  0.006
    5  0.000  0.001  0.011  0.013
    6  0.006  0.001  0.004  0.010
    7  0.009  0.001  0.005  0.015
    8  0.006  0.001  0.004  0.011
    9  0.000  0.000  0.009  0.009
   10  0.000  0.001  0.051  0.052
   11  0.015  0.001  0.021  0.037
   12  0.007  0.002  0.019  0.028
   13  0.014  0.001  0.022  0.037
   14  0.000  0.000  0.051  0.051
   15  0.001  0.000  0.020  0.022
   16  0.007  0.002  0.019  0.027
   17  0.001  0.001  0.020  0.022
   18  0.000  0.001  0.010  0.012
   19  0.008  0.000  0.019  0.027
   20  0.000  0.000  0.068  0.068
   21  0.018  0.001  0.022  0.041
   22  0.002  0.001  0.019  0.022
   23  0.018  0.001  0.021  0.040
   24  0.000  0.001  0.035  0.036
   25  0.000  0.001  0.013  0.015
   26  0.007  0.000  0.019  0.027
   27  0.002  0.001  0.019  0.022
   28  0.000  0.001  0.008  0.008
   29  0.001  0.000  0.004  0.006
   30  0.009  0.001  0.004  0.014
   31  0.001  0.000  0.004  0.006
   32  0.003  0.001  0.004  0.009
   33  0.010  0.001  0.004  0.014
   34  0.004  0.001  0.004  0.009
   35  0.000  0.000  0.003  0.004
   36  0.000  0.002  0.002  0.004
   37  0.000  0.000  0.000  0.000
tot    0.159  0.031  0.558  0.748
 
band    13 # energy   -5.56792834 # occ.  2.00000000
 
ion      s      p      d    tot
    1  0.000  0.001  0.004  0.005
    2  0.009  0.001  0.004  0.015
    3  0.001  0.000  0.004  0.006
    4  0.009  0.001  0.004  0.015
    5  0.000  0.001  0.011  0.013
    6  0.004  0.001  0.005  0.010
    7  0.001  0.000  0.005  0.006
    8  0.004  0.001  0.005  0.010
    9  0.000  0.000  0.009  0.009
   10  0.009  0.002  0.008  0.020
   11  0.005  0.000  0.042  0.047
   12  0.002  0.001  0.040  0.043
   13  0.005  0.000  0.041  0.046
   14  0.019  0.001  0.012  0.032
   15  0.000  0.001  0.014  0.015
   16  0.002  0.001  0.041  0.044
   17  0.000  0.001  0.014  0.015
   18  0.002  0.000  0.024  0.026
   19  0.002  0.001  0.015  0.019
   20  0.024  0.002  0.006  0.032
   21  0.006  0.000  0.052  0.059
   22  0.001  0.001  0.029  0.031
   23  0.006  0.000  0.053  0.059
   24  0.003  0.001  0.014  0.018
   25  0.010  0.000  0.021  0.031
   26  0.003  0.001  0.016  0.019
   27  0.001  0.001  0.030  0.031
   28  0.000  0.001  0.008  0.008
   29  0.008  0.001  0.004  0.013
   30  0.000  0.001  0.004  0.005
   31  0.008  0.001  0.004  0.013
   32  0.006  0.001  0.004  0.011
   33  0.000  0.001  0.004  0.005
   34  0.006  0.001  0.004  0.010
   35  0.000  0.000  0.003  0.004
   36  0.000  0.002  0.002  0.004
   37  0.000  0.000  0.000  0.000
tot    0.159  0.031  0.558  0.748
 
band    14 # energy   -5.55634825 # occ.  2.00000000
 
ion      s      p      d    tot
    1  0.006  0.000  0.001  0.007
    2  0.000  0.001  0.008  0.009
    3  0.000  0.001  0.008  0.009
    4  0.000  0.001  0.008  0.009
    5  0.019  0.002  0.000  0.021
    6  0.000  0.001  0.008  0.009
    7  0.000  0.001  0.008  0.009
    8  0.000  0.001  0.008  0.009
    9  0.004  0.001  0.002  0.007
   10  0.000  0.000  0.044  0.044
   11  0.006  0.002  0.012  0.019
   12  0.000  0.000  0.044  0.044
   13  0.006  0.002  0.012  0.019
   14  0.006  0.002  0.012  0.020
   15  0.008  0.001  0.024  0.033
   16  0.000  0.000  0.044  0.044
   17  0.008  0.001  0.024  0.033
   18  0.008  0.001  0.024  0.033
   19  0.008  0.000  0.040  0.049
   20  0.011  0.002  0.010  0.022
   21  0.011  0.002  0.010  0.022
   22  0.001  0.000  0.033  0.034
   23  0.011  0.002  0.010  0.022
   24  0.001  0.000  0.033  0.034
   25  0.008  0.000  0.040  0.049
   26  0.008  0.000  0.040  0.049
   27  0.001  0.000  0.033  0.034
   28  0.001  0.001  0.004  0.005
   29  0.000  0.001  0.005  0.005
   30  0.000  0.001  0.005  0.005
   31  0.000  0.001  0.005  0.005
   32  0.000  0.001  0.005  0.005
   33  0.000  0.001  0.005  0.005
   34  0.000  0.001  0.005  0.005
   35  0.004  0.000  0.000  0.005
   36  0.013  0.002  0.001  0.016
   37  0.001  0.000  0.000  0.001
tot    0.152  0.029  0.576  0.757
 
band    15 # energy   -5.53331241 # occ.  2.00000000
 
ion      s      p      d    tot
    1  0.000  0.001  0.015  0.015
    2  0.010  0.001  0.005  0.016
    3  0.002  0.000  0.005  0.008
    4  0.010  0.001  0.005  0.016
    5  0.000  0.000  0.005  0.005
    6  0.003  0.001  0.006  0.009
    7  0.002  0.000  0.005  0.008
    8  0.003  0.001  0.006  0.009
    9  0.000  0.001  0.008  0.009
   10  0.000  0.001  0.027  0.028
   11  0.001  0.001  0.020  0.022
   12  0.006  0.000  0.023  0.029
   13  0.001  0.001  0.020  0.022
   14  0.000  0.001  0.021  0.022
   15  0.011  0.002  0.022  0.035
   16  0.006  0.000  0.023  0.029
   17  0.011  0.002  0.021  0.034
   18  0.000  0.000  0.066  0.066
   19  0.012  0.001  0.020  0.034
   20  0.000  0.002  0.017  0.018
   21  0.000  0.000  0.021  0.022
   22  0.019  0.001  0.021  0.040
   23  0.000  0.001  0.021  0.022
   24  0.000  0.000  0.035  0.036
   25  0.000  0.000  0.066  0.067
   26  0.013  0.001  0.020  0.033
   27  0.018  0.001  0.021  0.040
   28  0.000  0.001  0.004  0.005
   29  0.005  0.001  0.004  0.010
   30  0.000  0.000  0.004  0.005
   31  0.005  0.001  0.004  0.010
   32  0.003  0.001  0.002  0.006
   33  0.000  0.000  0.004  0.005
   34  0.003  0.001  0.002  0.006
   35  0.000  0.001  0.008  0.009
   36  0.000  0.000  0.000  0.000
   37  0.000  0.000  0.000  0.000
tot    0.148  0.028  0.576  0.752
 
band    16 # energy   -5.53329813 # occ.  2.00000000
 
ion      s      p      d    tot
    1  0.000  0.001  0.015  0.015
    2  0.000  0.000  0.006  0.006
    3  0.008  0.001  0.005  0.015
    4  0.000  0.000  0.006  0.006
    5  0.000  0.000  0.005  0.005
    6  0.007  0.001  0.005  0.013
    7  0.008  0.001  0.005  0.014
    8  0.007  0.001  0.005  0.013
    9  0.000  0.001  0.008  0.009
   10  0.008  0.000  0.021  0.030
   11  0.000  0.001  0.021  0.022
   12  0.002  0.001  0.026  0.029
   13  0.000  0.001  0.021  0.022
   14  0.001  0.001  0.019  0.022
   15  0.004  0.001  0.051  0.055
   16  0.002  0.001  0.026  0.029
   17  0.004  0.001  0.051  0.056
   18  0.015  0.002  0.007  0.024
   19  0.004  0.001  0.051  0.056
   20  0.001  0.000  0.023  0.023
   21  0.000  0.001  0.018  0.020
   22  0.006  0.001  0.031  0.037
   23  0.000  0.001  0.018  0.020
   24  0.025  0.001  0.016  0.042
   25  0.017  0.001  0.004  0.022
   26  0.004  0.001  0.051  0.056
   27  0.006  0.001  0.031  0.037
   28  0.000  0.001  0.004  0.005
   29  0.000  0.000  0.003  0.004
   30  0.005  0.001  0.003  0.009
   31  0.000  0.000  0.003  0.004
   32  0.003  0.001  0.004  0.008
   33  0.005  0.001  0.002  0.009
   34  0.003  0.001  0.004  0.008
   35  0.000  0.001  0.008  0.009
   36  0.000  0.000  0.000  0.000
   37  0.000  0.000  0.000  0.000
tot    0.148  0.028  0.576  0.752
 
band    17 # energy   -5.18824188 # occ.  2.00000000
 
ion      s      p      d    tot
    1  0.000  0.000  0.017  0.017
    2  0.011  0.001  0.013  0.024
    3  0.004  0.001  0.010  0.014
    4  0.010  0.001  0.013  0.024
    5  0.000  0.000  0.032  0.032
    6  0.002  0.000  0.016  0.019
    7  0.003  0.001  0.010  0.014
    8  0.002  0.000  0.016  0.018
    9  0.000  0.001  0.008  0.010
   10  0.000  0.000  0.007  0.007
   11  0.000  0.000  0.043  0.043
   12  0.000  0.000  0.015  0.015
   13  0.000  0.000  0.043  0.043
   14  0.000  0.000  0.048  0.048
   15  0.000  0.000  0.045  0.046
   16  0.000  0.000  0.015  0.016
   17  0.000  0.000  0.045  0.045
   18  0.000  0.000  0.032  0.032
   19  0.001  0.000  0.011  0.012
   20  0.000  0.000  0.025  0.025
   21  0.001  0.000  0.038  0.039
   22  0.000  0.000  0.036  0.037
   23  0.001  0.000  0.038  0.040
   24  0.000  0.000  0.033  0.033
   25  0.000  0.000  0.011  0.011
   26  0.001  0.000  0.011  0.012
   27  0.000  0.000  0.036  0.037
   28  0.000  0.000  0.013  0.013
   29  0.004  0.001  0.006  0.010
   30  0.010  0.001  0.009  0.020
   31  0.003  0.001  0.006  0.010
   32  0.001  0.000  0.010  0.012
   33  0.010  0.001  0.009  0.020
   34  0.002  0.000  0.010  0.012
   35  0.000  0.000  0.017  0.017
   36  0.000  0.002  0.001  0.003
   37  0.000  0.000  0.000  0.000
tot    0.065  0.016  0.745  0.826
 
band    18 # energy   -5.18824128 # occ.  2.00000000
 
ion      s      p      d    tot
    1  0.000  0.000  0.017  0.017
    2  0.000  0.001  0.013  0.014
    3  0.007  0.000  0.016  0.024
    4  0.000  0.001  0.013  0.013
    5  0.000  0.000  0.032  0.032
    6  0.008  0.001  0.010  0.019
    7  0.008  0.000  0.016  0.024
    8  0.009  0.001  0.010  0.019
    9  0.000  0.001  0.008  0.010
   10  0.000  0.000  0.018  0.018
   11  0.000  0.000  0.046  0.047
   12  0.000  0.000  0.010  0.010
   13  0.000  0.000  0.046  0.046
   14  0.000  0.000  0.041  0.041
   15  0.000  0.000  0.036  0.036
   16  0.000  0.000  0.009  0.009
   17  0.000  0.000  0.037  0.037
   18  0.000  0.000  0.049  0.050
   19  0.000  0.000  0.011  0.011
   20  0.001  0.000  0.042  0.044
   21  0.000  0.000  0.030  0.030
   22  0.000  0.000  0.034  0.034
   23  0.000  0.000  0.029  0.029
   24  0.000  0.000  0.037  0.038
   25  0.001  0.000  0.011  0.012
   26  0.000  0.000  0.011  0.011
   27  0.000  0.000  0.034  0.034
   28  0.000  0.000  0.013  0.013
   29  0.006  0.001  0.011  0.018
   30  0.000  0.001  0.007  0.008
   31  0.007  0.001  0.011  0.018
   32  0.008  0.001  0.007  0.016
   33  0.000  0.001  0.007  0.008
   34  0.008  0.001  0.007  0.015
   35  0.000  0.000  0.017  0.017
   36  0.000  0.002  0.001  0.003
   37  0.000  0.000  0.000  0.000
tot    0.065  0.016  0.745  0.826
 
band    19 # energy   -5.17617821 # occ.  2.00000000
 
ion      s      p      d    tot
    1  0.015  0.001  0.000  0.016
    2  0.000  0.001  0.017  0.018
    3  0.000  0.001  0.017  0.018
    4  0.000  0.001  0.017  0.018
    5  0.016  0.000  0.012  0.028
    6  0.000  0.001  0.017  0.018
    7  0.000  0.001  0.017  0.018
    8  0.000  0.001  0.017  0.018
    9  0.000  0.000  0.010  0.010
   10  0.000  0.000  0.029  0.030
   11  0.000  0.000  0.034  0.034
   12  0.000  0.000  0.030  0.030
   13  0.000  0.000  0.034  0.034
   14  0.000  0.000  0.034  0.035
   15  0.000  0.000  0.042  0.042
   16  0.000  0.000  0.030  0.030
   17  0.000  0.000  0.042  0.042
   18  0.000  0.000  0.042  0.042
   19  0.000  0.000  0.026  0.026
   20  0.000  0.000  0.023  0.023
   21  0.000  0.000  0.023  0.023
   22  0.001  0.000  0.027  0.029
   23  0.000  0.000  0.023  0.023
   24  0.001  0.000  0.027  0.029
   25  0.000  0.000  0.026  0.026
   26  0.000  0.000  0.026  0.026
   27  0.001  0.000  0.027  0.029
   28  0.015  0.001  0.002  0.018
   29  0.000  0.000  0.012  0.013
   30  0.000  0.000  0.012  0.013
   31  0.000  0.000  0.012  0.013
   32  0.000  0.000  0.012  0.013
   33  0.000  0.000  0.012  0.013
   34  0.000  0.000  0.012  0.013
   35  0.007  0.000  0.005  0.011
   36  0.001  0.000  0.001  0.002
   37  0.000  0.000  0.000  0.000
tot    0.060  0.014  0.753  0.826
 
band    20 # energy   -5.16722967 # occ.  2.00000000
 
ion      s      p      d    tot
    1  0.004  0.000  0.015  0.018
    2  0.000  0.001  0.018  0.019
    3  0.000  0.001  0.018  0.019
    4  0.000  0.001  0.018  0.019
    5  0.009  0.001  0.004  0.014
    6  0.000  0.001  0.018  0.019
    7  0.000  0.001  0.018  0.019
    8  0.000  0.001  0.018  0.019
    9  0.026  0.001  0.004  0.031
   10  0.000  0.000  0.044  0.044
   11  0.000  0.001  0.043  0.044
   12  0.000  0.000  0.044  0.044
   13  0.000  0.001  0.043  0.044
   14  0.000  0.001  0.043  0.044
   15  0.000  0.000  0.030  0.031
   16  0.000  0.000  0.044  0.044
   17  0.000  0.000  0.030  0.031
   18  0.000  0.000  0.030  0.031
   19  0.001  0.000  0.021  0.022
   20  0.001  0.000  0.037  0.038
   21  0.001  0.000  0.037  0.038
   22  0.000  0.000  0.018  0.018
   23  0.001  0.000  0.037  0.038
   24  0.000  0.000  0.018  0.018
   25  0.001  0.000  0.021  0.022
   26  0.001  0.000  0.021  0.022
   27  0.000  0.000  0.018  0.018
   28  0.000  0.000  0.003  0.003
   29  0.000  0.000  0.007  0.008
   30  0.000  0.000  0.007  0.008
   31  0.000  0.000  0.007  0.008
   32  0.000  0.000  0.007  0.008
   33  0.000  0.000  0.007  0.008
   34  0.000  0.000  0.007  0.008
   35  0.003  0.000  0.000  0.004
   36  0.006  0.000  0.001  0.007
   37  0.000  0.000  0.000  0.000
tot    0.055  0.016  0.758  0.829
 
band    21 # energy   -5.14261196 # occ.  2.00000000
 
ion      s      p      d    tot
    1  0.000  0.001  0.016  0.017
    2  0.001  0.001  0.015  0.017
    3  0.006  0.001  0.018  0.025
    4  0.001  0.001  0.015  0.017
    5  0.000  0.001  0.012  0.013
    6  0.013  0.001  0.011  0.025
    7  0.006  0.001  0.018  0.025
    8  0.013  0.001  0.011  0.025
    9  0.000  0.000  0.034  0.034
   10  0.000  0.000  0.074  0.074
   11  0.000  0.000  0.038  0.039
   12  0.000  0.001  0.060  0.061
   13  0.000  0.000  0.038  0.038
   14  0.000  0.000  0.026  0.026
   15  0.000  0.001  0.027  0.028
   16  0.000  0.001  0.060  0.061
   17  0.000  0.001  0.027  0.028
   18  0.000  0.000  0.029  0.029
   19  0.001  0.000  0.034  0.035
   20  0.000  0.001  0.020  0.020
   21  0.000  0.000  0.022  0.022
   22  0.003  0.000  0.015  0.018
   23  0.000  0.000  0.022  0.022
   24  0.000  0.000  0.006  0.006
   25  0.000  0.000  0.021  0.021
   26  0.001  0.000  0.034  0.035
   27  0.003  0.000  0.015  0.018
   28  0.000  0.000  0.008  0.009
   29  0.002  0.000  0.004  0.006
   30  0.000  0.000  0.005  0.006
   31  0.002  0.000  0.004  0.006
   32  0.002  0.000  0.002  0.004
   33  0.000  0.000  0.005  0.006
   34  0.002  0.000  0.002  0.004
   35  0.000  0.001  0.005  0.006
   36  0.000  0.000  0.001  0.001