PROCAR new format
# of k-points:   10         # of bands:  252         # of ions:   37

 k-point     1 :    0.00000000 0.00000000 0.00000000     weight = 0.01562500

band     1 # energy  -12.73139085 # occ.  2.00000000
 
ion      s      p      d    tot
    1  0.000  0.000  0.000  0.000
    2  0.000  0.000  0.000  0.000
    3  0.000  0.000  0.000  0.000
    4  0.000  0.000  0.000  0.000
    5  0.000  0.000  0.000  0.000
    6  0.000  0.000  0.000  0.000
    7  0.000  0.000  0.000  0.000
    8  0.000  0.000  0.000  0.000
    9  0.000  0.000  0.000  0.000
   10  0.000  0.000  0.000  0.000
   11  0.000  0.000  0.000  0.000
   12  0.000  0.000  0.000  0.000
   13  0.000  0.000  0.000  0.000
   14  0.000  0.000  0.000  0.000
   15  0.000  0.000  0.000  0.000
   16  0.000  0.000  0.000  0.000
   17  0.000  0.000  0.000  0.000
   18  0.000  0.000  0.000  0.000
   19  0.000  0.000  0.000  0.000
   20  0.000  0.000  0.000  0.000
   21  0.000  0.000  0.000  0.000
   22  0.000  0.000  0.000  0.000
   23  0.000  0.000  0.000  0.000
   24  0.000  0.000  0.000  0.000
   25  0.000  0.000  0.000  0.000
   26  0.000  0.000  0.000  0.000
   27  0.000  0.000  0.000  0.000
   28  0.000  0.000  0.000  0.000
   29  0.000  0.000  0.000  0.001
   30  0.000  0.000  0.000  0.001
   31  0.000  0.000  0.000  0.001
   32  0.000  0.000  0.000  0.001
   33  0.000  0.000  0.000  0.001
   34  0.000  0.000  0.000  0.001
   35  0.000  0.000  0.000  0.000
   36  0.066  0.067  0.085  0.219
   37  0.619  0.019  0.000  0.638
tot    0.687  0.087  0.087  0.861
 
band     2 # energy   -6.37881777 # occ.  2.00000000
 
ion      s      p      d    tot
    1  0.006  0.001  0.000  0.006
    2  0.006  0.001  0.000  0.006
    3  0.006  0.001  0.000  0.006
    4  0.006  0.001  0.000  0.006
    5  0.006  0.001  0.000  0.006
    6  0.006  0.001  0.000  0.006
    7  0.006  0.001  0.000  0.006
    8  0.006  0.001  0.000  0.006
    9  0.006  0.001  0.000  0.006
   10  0.023  0.000  0.000  0.023
   11  0.023  0.000  0.000  0.024
   12  0.023  0.000  0.000  0.023
   13  0.023  0.000  0.000  0.024
   14  0.023  0.000  0.000  0.024
   15  0.023  0.000  0.000  0.024
   16  0.023  0.000  0.000  0.023
   17  0.023  0.000  0.000  0.024
   18  0.023  0.000  0.000  0.024
   19  0.023  0.000  0.001  0.023
   20  0.025  0.000  0.000  0.026
   21  0.025  0.000  0.000  0.026
   22  0.024  0.000  0.000  0.024
   23  0.025  0.000  0.000  0.026
   24  0.024  0.000  0.000  0.024
   25  0.023  0.000  0.001  0.023
   26  0.023  0.000  0.001  0.023
   27  0.024  0.000  0.000  0.024
   28  0.005  0.001  0.000  0.006
   29  0.005  0.001  0.000  0.006
   30  0.005  0.001  0.000  0.006
   31  0.005  0.001  0.000  0.006
   32  0.005  0.001  0.000  0.006
   33  0.005  0.001  0.000  0.006
   34  0.005  0.001  0.000  0.006
   35  0.005  0.001  0.000  0.006
   36  0.005  0.002  0.000  0.007
   37  0.001  0.000  0.000  0.001
tot    0.524  0.014  0.007  0.545
 
band     3 # energy   -5.50430522 # occ.  2.00000000
 
ion      s      p      d    tot
    1  0.008  0.000  0.000  0.008
    2  0.008  0.000  0.000  0.008
    3  0.008  0.000  0.000  0.008
    4  0.008  0.000  0.000  0.008
    5  0.008  0.000  0.000  0.008
    6  0.008  0.000  0.000  0.008
    7  0.008  0.000  0.000  0.008
    8  0.008  0.000  0.000  0.008
    9  0.008  0.000  0.000  0.009
   10  0.011  0.001  0.016  0.028
   11  0.011  0.001  0.016  0.028
   12  0.011  0.001  0.016  0.028
   13  0.011  0.001  0.016  0.028
   14  0.011  0.001  0.016  0.028
   15  0.012  0.001  0.015  0.027
   16  0.011  0.001  0.016  0.028
   17  0.012  0.001  0.015  0.027
   18  0.012  0.001  0.015  0.027
   19  0.011  0.001  0.018  0.030
   20  0.014  0.001  0.019  0.034
   21  0.014  0.001  0.019  0.034
   22  0.011  0.001  0.018  0.030
   23  0.014  0.001  0.019  0.034
   24  0.011  0.001  0.018  0.030
   25  0.011  0.001  0.018  0.030
   26  0.011  0.001  0.018  0.030
   27  0.011  0.001  0.018  0.030
   28  0.006  0.000  0.000  0.006
   29  0.005  0.000  0.000  0.006
   30  0.005  0.000  0.000  0.006
   31  0.005  0.000  0.000  0.006
   32  0.005  0.000  0.000  0.006
   33  0.005  0.000  0.000  0.006
   34  0.005  0.000  0.000  0.006
   35  0.005  0.000  0.000  0.006
   36  0.005  0.001  0.000  0.007
   37  0.001  0.000  0.000  0.001
tot    0.330  0.026  0.306  0.662
 
band     4 # energy   -5.20345731 # occ.  2.00000000
 
ion      s      p      d    tot
    1  0.014  0.000  0.025  0.039
    2  0.016  0.000  0.024  0.039
    3  0.016  0.000  0.024  0.039
    4  0.016  0.000  0.024  0.039
    5  0.016  0.000  0.025  0.041
    6  0.016  0.000  0.024  0.039
    7  0.016  0.000  0.024  0.039
    8  0.016  0.000  0.024  0.039
    9  0.017  0.000  0.023  0.040
   10  0.000  0.001  0.017  0.018
   11  0.001  0.001  0.022  0.023
   12  0.000  0.001  0.017  0.018
   13  0.001  0.001  0.022  0.023
   14  0.001  0.001  0.022  0.023
   15  0.000  0.000  0.023  0.023
   16  0.000  0.001  0.017  0.018
   17  0.000  0.000  0.023  0.023
   18  0.000  0.000  0.023  0.023
   19  0.000  0.000  0.008  0.008
   20  0.000  0.000  0.011  0.012
   21  0.000  0.000  0.011  0.012
   22  0.000  0.000  0.013  0.013
   23  0.000  0.000  0.011  0.012
   24  0.000  0.000  0.013  0.013
   25  0.000  0.000  0.008  0.008
   26  0.000  0.000  0.008  0.008
   27  0.000  0.000  0.013  0.013
   28  0.005  0.000  0.008  0.013
   29  0.006  0.000  0.007  0.013
   30  0.006  0.000  0.007  0.013
   31  0.006  0.000  0.007  0.013
   32  0.006  0.000  0.007  0.013
   33  0.006  0.000  0.007  0.013
   34  0.006  0.000  0.007  0.013
   35  0.006  0.000  0.009  0.015
   36  0.005  0.000  0.002  0.007
   37  0.001  0.000  0.000  0.001
tot    0.195  0.007  0.559  0.762
 
band     5 # energy   -5.13058443 # occ.  2.00000000
 
ion      s      p      d    tot
    1  0.007  0.001  0.001  0.008
    2  0.000  0.000  0.005  0.005
    3  0.000  0.000  0.005  0.005
    4  0.000  0.000  0.005  0.005
    5  0.000  0.000  0.002  0.002
    6  0.000  0.000  0.005  0.005
    7  0.000  0.000  0.005  0.005
    8  0.000  0.000  0.005  0.005
    9  0.000  0.000  0.003  0.004
   10  0.003  0.000  0.039  0.043
   11  0.001  0.001  0.018  0.019
   12  0.003  0.000  0.039  0.043
   13  0.001  0.001  0.018  0.019
   14  0.001  0.001  0.018  0.019
   15  0.009  0.001  0.008  0.019
   16  0.003  0.000  0.039  0.043
   17  0.009  0.001  0.008  0.019
   18  0.009  0.001  0.008  0.019
   19  0.000  0.001  0.041  0.041
   20  0.010  0.000  0.077  0.087
   21  0.010  0.000  0.077  0.087
   22  0.016  0.001  0.004  0.021
   23  0.010  0.000  0.077  0.087
   24  0.015  0.001  0.004  0.021
   25  0.000  0.001  0.041  0.041
   26  0.000  0.001  0.041  0.041
   27  0.016  0.001  0.004  0.021
   28  0.000  0.000  0.002  0.003
   29  0.000  0.000  0.006  0.007
   30  0.000  0.000  0.006  0.007
   31  0.000  0.000  0.006  0.007
   32  0.000  0.000  0.006  0.007
   33  0.000  0.000  0.006  0.007
   34  0.000  0.000  0.006  0.007
   35  0.004  0.001  0.002  0.006
   36  0.008  0.003  0.004  0.015
   37  0.001  0.002  0.000  0.003
tot    0.139  0.020  0.642  0.801
 
band     6 # energy   -5.09776944 # occ.  2.00000000
 
ion      s      p      d    tot
    1  0.000  0.000  0.003  0.004
    2  0.000  0.000  0.003  0.003
    3  0.002  0.000  0.004  0.006
    4  0.000  0.000  0.003  0.003
    5  0.000  0.000  0.010  0.011
    6  0.002  0.000  0.003  0.006
    7  0.001  0.000  0.003  0.005
    8  0.001  0.000  0.003  0.005
    9  0.000  0.000  0.002  0.002
   10  0.006  0.001  0.007  0.014
   11  0.008  0.001  0.028  0.037
   12  0.001  0.000  0.036  0.037
   13  0.003  0.001  0.033  0.037
   14  0.019  0.001  0.016  0.037
   15  0.001  0.001  0.017  0.019
   16  0.003  0.000  0.027  0.030
   17  0.001  0.001  0.012  0.014
   18  0.003  0.000  0.028  0.032
   19  0.000  0.001  0.028  0.029
   20  0.027  0.000  0.028  0.056
   21  0.003  0.001  0.044  0.049
   22  0.003  0.000  0.102  0.105
   23  0.010  0.001  0.039  0.050
   24  0.019  0.001  0.005  0.025
   25  0.001  0.000  0.033  0.034
   26  0.000  0.001  0.024  0.025
   27  0.008  0.000  0.073  0.081
   28  0.000  0.000  0.000  0.000
   29  0.002  0.001  0.006  0.009
   30  0.000  0.000  0.005  0.005
   31  0.002  0.001  0.007  0.010
   32  0.000  0.000  0.002  0.003
   33  0.001  0.000  0.006  0.007
   34  0.001  0.000  0.002  0.004
   35  0.000  0.000  0.007  0.008
   36  0.000  0.001  0.001  0.002
   37  0.000  0.000  0.000  0.000
tot    0.131  0.017  0.654  0.802
 
band     7 # energy   -5.09773530 # occ.  2.00000000
 
ion      s      p      d    tot
    1  0.000  0.000  0.004  0.004
    2  0.002  0.000  0.004  0.006
    3  0.000  0.000  0.003  0.003
    4  0.002  0.001  0.004  0.006
    5  0.000  0.000  0.010  0.011
    6  0.000  0.000  0.003  0.003
    7  0.001  0.000  0.003  0.004
    8  0.001  0.000  0.003  0.004
    9  0.000  0.000  0.002  0.002
   10  0.000  0.000  0.041  0.041
   11  0.012  0.001  0.024  0.037
   12  0.006  0.001  0.011  0.017
   13  0.018  0.001  0.019  0.037
   14  0.000  0.001  0.035  0.036
   15  0.002  0.000  0.021  0.024
   16  0.004  0.000  0.020  0.024
   17  0.003  0.000  0.026  0.029
   18  0.000  0.001  0.011  0.012
   19  0.000  0.001  0.029  0.030
   20  0.001  0.001  0.047  0.049
   21  0.023  0.001  0.029  0.054
   22  0.017  0.001  0.018  0.036
   23  0.017  0.001  0.035  0.053
   24  0.000  0.000  0.114  0.115
   25  0.000  0.001  0.022  0.023
   26  0.000  0.000  0.033  0.034
   27  0.012  0.001  0.047  0.060
   28  0.000  0.000  0.000  0.000
   29  0.000  0.000  0.004  0.004
   30  0.002  0.001  0.005  0.007
   31  0.000  0.000  0.003  0.003
   32  0.002  0.001  0.007  0.010
   33  0.002  0.001  0.003  0.005
   34  0.001  0.001  0.007  0.009
   35  0.000  0.000  0.007  0.008
   36  0.000  0.001  0.001  0.002
   37  0.000  0.000  0.000  0.000
tot    0.131  0.017  0.654  0.802
 
band     8 # energy   -5.09601441 # occ.  2.00000000
 
ion      s      p      d    tot
    1  0.000  0.000  0.000  0.000
    2  0.000  0.000  0.005  0.006
    3  0.000  0.000  0.005  0.005
    4  0.000  0.000  0.005  0.006
    5  0.005  0.001  0.001  0.007
    6  0.000  0.000  0.006  0.006
    7  0.000  0.000  0.005  0.005
    8  0.000  0.000  0.006  0.006
    9  0.002  0.000  0.002  0.005
   10  0.005  0.001  0.007  0.012
   11  0.008  0.000  0.020  0.029
   12  0.004  0.001  0.008  0.013
   13  0.008  0.000  0.020  0.028
   14  0.009  0.000  0.020  0.029
   15  0.001  0.000  0.033  0.034
   16  0.004  0.001  0.007  0.013
   17  0.001  0.000  0.033  0.034
   18  0.001  0.000  0.032  0.033
   19  0.018  0.001  0.030  0.048
   20  0.005  0.001  0.013  0.019
   21  0.006  0.001  0.014  0.022
   22  0.002  0.000  0.085  0.087
   23  0.006  0.001  0.014  0.021
   24  0.002  0.000  0.085  0.087
   25  0.018  0.001  0.032  0.050
   26  0.018  0.001  0.029  0.048
   27  0.002  0.000  0.085  0.087
   28  0.006  0.002  0.006  0.014
   29  0.000  0.000  0.005  0.006
   30  0.000  0.000  0.006  0.006
   31  0.000  0.000  0.005  0.006
   32  0.000  0.000  0.006  0.006
   33  0.000  0.000  0.006  0.006
   34  0.000  0.000  0.006  0.006
   35  0.001  0.001  0.011  0.012
   36  0.001  0.000  0.000  0.001
   37  0.000  0.000  0.000  0.000
tot    0.132  0.016  0.653  0.801
 
band     9 # energy   -5.09373736 # occ.  2.00000000
 
ion      s      p      d    tot
    1  0.000  0.000  0.004  0.004
    2  0.000  0.000  0.003  0.004
    3  0.001  0.000  0.004  0.005
    4  0.000  0.000  0.002  0.002
    5  0.000  0.000  0.001  0.001
    6  0.001  0.000  0.004  0.006
    7  0.000  0.000  0.002  0.003
    8  0.001  0.000  0.004  0.005
    9  0.000  0.000  0.007  0.008
   10  0.001  0.001  0.015  0.017
   11  0.001  0.000  0.042  0.043
   12  0.010  0.000  0.031  0.041
   13  0.002  0.000  0.020  0.023
   14  0.000  0.000  0.054  0.054
   15  0.009  0.001  0.039  0.049
   16  0.004  0.001  0.020  0.025
   17  0.021  0.001  0.011  0.033
   18  0.003  0.000  0.054  0.057
   19  0.010  0.001  0.041  0.051
   20  0.000  0.000  0.072  0.073
   21  0.004  0.000  0.018  0.023
   22  0.009  0.000  0.037  0.046
   23  0.002  0.000  0.053  0.055
   24  0.001  0.001  0.015  0.018
   25  0.003  0.000  0.055  0.058
   26  0.023  0.001  0.014  0.038
   27  0.004  0.001  0.023  0.028
   28  0.000  0.000  0.007  0.007
   29  0.001  0.000  0.004  0.006
   30  0.000  0.000  0.002  0.003
   31  0.001  0.000  0.005  0.006
   32  0.000  0.000  0.002  0.002
   33  0.001  0.000  0.004  0.005
   34  0.001  0.000  0.003  0.004
   35  0.000  0.000  0.003  0.003
   36  0.000  0.000  0.001  0.001
   37  0.000  0.000  0.000  0.000
tot    0.115  0.016  0.678  0.808
 
band    10 # energy   -5.09372083 # occ.  2.00000000
 
ion      s      p      d    tot
    1  0.000  0.000  0.004  0.004
    2  0.001  0.000  0.003  0.005
    3  0.000  0.000  0.003  0.003
    4  0.001  0.000  0.005  0.006
    5  0.000  0.000  0.001  0.001
    6  0.000  0.000  0.002  0.002
    7  0.001  0.000  0.004  0.006
    8  0.001  0.000  0.003  0.003
    9  0.000  0.000  0.007  0.008
   10  0.009  0.000  0.030  0.039
   11  0.001  0.000  0.035  0.037
   12  0.000  0.001  0.013  0.015
   13  0.000  0.000  0.057  0.058
   14  0.002  0.000  0.024  0.026
   15  0.013  0.001  0.030  0.044
   16  0.006  0.001  0.024  0.030
   17  0.001  0.000  0.059  0.060
   18  0.019  0.001  0.015  0.036
   19  0.014  0.001  0.032  0.047
   20  0.004  0.000  0.024  0.028
   21  0.000  0.000  0.077  0.078
   22  0.000  0.002  0.013  0.015
   23  0.003  0.000  0.042  0.045
   24  0.008  0.000  0.035  0.043
   25  0.021  0.001  0.018  0.040
   26  0.001  0.000  0.059  0.060
   27  0.005  0.001  0.027  0.033
   28  0.000  0.000  0.007  0.007
   29  0.000  0.000  0.003  0.003
   30  0.001  0.000  0.004  0.006
   31  0.000  0.000  0.002  0.002
   32  0.001  0.000  0.005  0.007
   33  0.000  0.000  0.003  0.003
   34  0.001  0.000  0.004  0.005
   35  0.000  0.000  0.003  0.003
   36  0.000  0.000  0.001  0.001
   37  0.000  0.000  0.000  0.000
tot    0.114  0.016  0.678  0.808
 
band    11 # energy   -5.07561465 # occ.  2.00000000
 
ion      s      p      d    tot
    1  0.002  0.001  0.007  0.009
    2  0.000  0.000  0.008  0.008
    3  0.000  0.000  0.008  0.008
    4  0.000  0.000  0.008  0.008
    5  0.001  0.000  0.005  0.007
    6  0.000  0.000  0.008  0.008
    7  0.000  0.000  0.008  0.008
    8  0.000  0.000  0.008  0.008
    9  0.004  0.000  0.006  0.010
   10  0.009  0.000  0.010  0.020
   11  0.003  0.000  0.069  0.072
   12  0.009  0.000  0.010  0.020
   13  0.003  0.000  0.069  0.072
   14  0.003  0.000  0.069  0.072
   15  0.000  0.000  0.050  0.051
   16  0.009  0.000  0.010  0.020
   17  0.000  0.000  0.050  0.051
   18  0.000  0.000  0.050  0.051
   19  0.000  0.001  0.006  0.007
   20  0.001  0.000  0.037  0.038
   21  0.001  0.000  0.037  0.038
   22  0.000  0.000  0.039  0.039
   23  0.001  0.000  0.037  0.038
   24  0.000  0.000  0.039  0.039
   25  0.000  0.001  0.006  0.007
   26  0.000  0.001  0.006  0.007
   27  0.000  0.000  0.039  0.039
   28  0.002  0.000  0.000  0.003
   29  0.001  0.000  0.011  0.011
   30  0.000  0.000  0.011  0.011
   31  0.001  0.000  0.011  0.011
   32  0.000  0.000  0.011  0.011
   33  0.000  0.000  0.011  0.011
   34  0.000  0.000  0.011  0.011
   35  0.004  0.000  0.007  0.011
   36  0.004  0.001  0.000  0.004
   37  0.000  0.000  0.000  0.001
tot    0.063  0.009  0.765  0.837
 
band    12 # energy   -5.05332026 # occ.  2.00000000
 
ion      s      p      d    tot
    1  0.002  0.000  0.015  0.017
    2  0.000  0.000  0.009  0.009
    3  0.001  0.000  0.009  0.010
    4  0.001  0.000  0.012  0.013
    5  0.001  0.000  0.001  0.003
    6  0.000  0.000  0.005  0.006
    7  0.001  0.000  0.012  0.013
    8  0.000  0.000  0.005  0.005
    9  0.002  0.001  0.004  0.007
   10  0.003  0.000  0.056  0.059
   11  0.005  0.000  0.014  0.019
   12  0.000  0.000  0.092  0.092
   13  0.004  0.000  0.029  0.033
   14  0.005  0.000  0.002  0.008
   15  0.005  0.000  0.045  0.050
   16  0.000  0.000  0.076  0.076
   17  0.001  0.000  0.031  0.032
   18  0.010  0.000  0.039  0.049
   19  0.000  0.000  0.046  0.047
   20  0.001  0.001  0.027  0.028
   21  0.000  0.000  0.018  0.019
   22  0.001  0.000  0.037  0.039
   23  0.000  0.000  0.027  0.027
   24  0.001  0.000  0.008  0.009
   25  0.001  0.000  0.043  0.044
   26  0.000  0.000  0.041  0.041
   27  0.001  0.000  0.020  0.021
   28  0.003  0.000  0.009  0.012
   29  0.001  0.000  0.006  0.007
   30  0.000  0.000  0.009  0.009
   31  0.001  0.000  0.011  0.012
   32  0.000  0.000  0.004  0.004
   33  0.000  0.000  0.012  0.013
   34  0.000  0.000  0.003  0.003
   35  0.001  0.000  0.003  0.004
   36  0.001  0.000  0.001  0.002
   37  0.000  0.000  0.000  0.000
tot    0.055  0.008  0.781  0.844
 
band    13 # energy   -5.05327486 # occ.  2.00000000
 
ion      s      p      d    tot
    1  0.000  0.000  0.015  0.015
    2  0.002  0.000  0.007  0.009
    3  0.000  0.000  0.011  0.011
    4  0.002  0.000  0.003  0.005
    5  0.000  0.000  0.003  0.003
    6  0.001  0.000  0.006  0.008
    7  0.000  0.000  0.008  0.008
    8  0.001  0.000  0.007  0.008
    9  0.000  0.000  0.008  0.008
   10  0.000  0.000  0.045  0.045
   11  0.000  0.000  0.039  0.039
   12  0.006  0.000  0.033  0.039
   13  0.000  0.000  0.024  0.025
   14  0.000  0.000  0.018  0.019
   15  0.005  0.000  0.023  0.028
   16  0.005  0.000  0.049  0.054
   17  0.008  0.000  0.039  0.047
   18  0.000  0.000  0.101  0.101
   19  0.003  0.000  0.030  0.033
   20  0.000  0.000  0.050  0.050
   21  0.002  0.000  0.026  0.028
   22  0.000  0.000  0.025  0.025
   23  0.002  0.000  0.017  0.019
   24  0.000  0.000  0.010  0.010
   25  0.000  0.000  0.063  0.063
   26  0.003  0.000  0.036  0.039
   27  0.000  0.000  0.042  0.043
   28  0.000  0.000  0.013  0.013
   29  0.000  0.000  0.009  0.010
   30  0.002  0.000  0.007  0.010
   31  0.000  0.000  0.005  0.005
   32  0.001  0.000  0.004  0.006
   33  0.002  0.000  0.004  0.006
   34  0.001  0.000  0.005  0.006
   35  0.000  0.000  0.007  0.008
   36  0.000  0.000  0.000  0.001
   37  0.000  0.000  0.000  0.000
tot    0.049  0.007  0.791  0.847
 
band    14 # energy   -5.05322134 # occ.  2.00000000
 
ion      s      p      d    tot
    1  0.000  0.000  0.015  0.015
    2  0.000  0.000  0.007  0.008
    3  0.001  0.000  0.004  0.005
    4  0.000  0.000  0.007  0.008
    5  0.000  0.000  0.003  0.003
    6  0.001  0.000  0.011  0.012
    7  0.001  0.000  0.003  0.005
    8  0.002  0.000  0.011  0.012
    9  0.000  0.000  0.008  0.008
   10  0.005  0.000  0.062  0.067
   11  0.001  0.000  0.015  0.016
   12  0.003  0.000  0.038  0.040
   13  0.001  0.000  0.015  0.016
   14  0.000  0.000  0.047  0.048
   15  0.005  0.000  0.076  0.081
   16  0.002  0.000  0.038  0.041
   17  0.005  0.000  0.075  0.080
   18  0.004  0.000  0.005  0.010
   19  0.001  0.000  0.053  0.055
   20  0.002  0.000  0.009  0.011
   21  0.001  0.000  0.041  0.042
   22  0.000  0.000  0.011  0.011
   23  0.001  0.000  0.041  0.042
   24  0.001  0.000  0.055  0.056
   25  0.003  0.000  0.023  0.027
   26  0.001  0.000  0.053  0.054
   27  0.000  0.000  0.010  0.010
   28  0.000  0.000  0.012  0.013
   29  0.001  0.000  0.004  0.005
   30  0.001  0.000  0.003  0.004
   31  0.001  0.000  0.004  0.005
   32  0.001  0.000  0.011  0.013
   33  0.001  0.000  0.003  0.004
   34  0.001  0.000  0.011  0.013
   35  0.000  0.000  0.007  0.007
   36  0.000  0.000  0.000  0.001
   37  0.000  0.000  0.000  0.000
tot    0.049  0.007  0.790  0.847
 
band    15 # energy   -5.03848883 # occ.  2.00000000
 
ion      s      p      d    tot
    1  0.000  0.000  0.007  0.007
    2  0.004  0.001  0.005  0.010
    3  0.000  0.000  0.011  0.011
    4  0.003  0.001  0.006  0.010
    5  0.000  0.000  0.014  0.015
    6  0.001  0.001  0.010  0.012
    7  0.001  0.000  0.010  0.011
    8  0.002  0.001  0.009  0.011
    9  0.000  0.000  0.013  0.013
   10  0.011  0.000  0.010  0.021
   11  0.005  0.000  0.055  0.060
   12  0.002  0.000  0.073  0.075
   13  0.003  0.000  0.062  0.065
   14  0.014  0.000  0.021  0.036
   15  0.000  0.000  0.025  0.025
   16  0.004  0.000  0.062  0.065
   17  0.000  0.000  0.019  0.020
   18  0.000  0.000  0.049  0.049
   19  0.001  0.000  0.031  0.032
   20  0.000  0.000  0.037  0.037
   21  0.000  0.000  0.026  0.026
   22  0.001  0.000  0.044  0.045
   23  0.000  0.000  0.028  0.028
   24  0.006  0.000  0.013  0.019
   25  0.004  0.000  0.014  0.018
   26  0.001  0.000  0.035  0.035
   27  0.002  0.000  0.039  0.041
   28  0.000  0.000  0.003  0.003
   29  0.000  0.000  0.006  0.006
   30  0.002  0.000  0.001  0.003
   31  0.000  0.000  0.005  0.005
   32  0.001  0.000  0.005  0.007
   33  0.001  0.000  0.001  0.003
   34  0.001  0.000  0.006  0.007
   35  0.000  0.000  0.005  0.005
   36  0.000  0.000  0.001  0.001
   37  0.000  0.000  0.000  0.000
tot    0.070  0.009  0.759  0.838
 
band    16 # energy   -5.03847237 # occ.  2.00000000
 
ion      s      p      d    tot
    1  0.000  0.000  0.007  0.007
    2  0.000  0.000  0.011  0.012
    3  0.003  0.001  0.006  0.010
    4  0.000  0.000  0.011  0.012
    5  0.000  0.000  0.014  0.015
    6  0.002  0.000  0.007  0.010
    7  0.003  0.001  0.007  0.011
    8  0.002  0.000  0.008  0.010
    9  0.000  0.000  0.013  0.013
   10  0.000  0.000  0.086  0.086
   11  0.010  0.000  0.037  0.047
   12  0.009  0.000  0.023  0.033
   13  0.012  0.000  0.030  0.042
   14  0.000  0.000  0.071  0.071
   15  0.000  0.000  0.037  0.038
   16  0.008  0.000  0.034  0.042
   17  0.000  0.000  0.043  0.043
   18  0.000  0.000  0.013  0.013
   19  0.003  0.000  0.022  0.025
   20  0.000  0.000  0.024  0.024
   21  0.000  0.000  0.035  0.035
   22  0.005  0.000  0.020  0.025
   23  0.000  0.000  0.033  0.033
   24  0.000  0.000  0.051  0.051
   25  0.000  0.000  0.039  0.039
   26  0.003  0.000  0.019  0.022
   27  0.004  0.000  0.025  0.030
   28  0.000  0.000  0.003  0.003
   29  0.002  0.000  0.002  0.004
   30  0.000  0.000  0.007  0.007
   31  0.002  0.000  0.003  0.005
   32  0.000  0.000  0.003  0.004
   33  0.000  0.000  0.007  0.007
   34  0.001  0.000  0.002  0.003
   35  0.000  0.000  0.005  0.006
   36  0.000  0.000  0.001  0.001
   37  0.000  0.000  0.000  0.000
tot    0.070  0.009  0.759  0.838
 
band    17 # energy   -5.00862679 # occ.  2.00000000
 
ion      s      p      d    tot
    1  0.004  0.000  0.003  0.007
    2  0.003  0.000  0.011  0.014
    3  0.003  0.000  0.011  0.014
    4  0.003  0.000  0.011  0.014
    5  0.004  0.000  0.013  0.018
    6  0.003  0.000  0.011  0.014
    7  0.003  0.000  0.011  0.014
    8  0.003  0.000  0.011  0.014
    9  0.001  0.000  0.015  0.016
   10  0.000  0.000  0.008  0.008
   11  0.002  0.000  0.013  0.015
   12  0.000  0.000  0.008  0.008
   13  0.002  0.000  0.013  0.015
   14  0.002  0.000  0.013  0.015
   15  0.002  0.000  0.015  0.017
   16  0.000  0.000  0.008  0.008
   17  0.002  0.000  0.015  0.017
   18  0.003  0.000  0.015  0.017
   19  0.001  0.000  0.011  0.013
   20  0.001  0.001  0.031  0.033
   21  0.001  0.001  0.031  0.033
   22  0.000  0.001  0.017  0.018
   23  0.001  0.001  0.031  0.033
   24  0.000  0.001  0.017  0.018
   25  0.001  0.000  0.011  0.013
   26  0.001  0.000  0.011  0.013
   27  0.000  0.001  0.017  0.018
   28  0.010  0.000  0.023  0.033
   29  0.012  0.000  0.029  0.041
   30  0.012  0.000  0.029  0.041
   31  0.012  0.000  0.029  0.041
   32  0.012  0.000  0.029  0.041
   33  0.013  0.000  0.029  0.041
   34  0.012  0.000  0.029  0.041
   35  0.019  0.000  0.030  0.049
   36  0.007  0.000  0.011  0.018
   37  0.001  0.000  0.000  0.001
tot    0.161  0.009  0.615  0.785
 
band    18 # energy   -4.90526666 # occ.  2.00000000
 
ion      s      p      d    tot
    1  0.001  0.000  0.001  0.002
    2  0.000  0.000  0.008  0.008
    3  0.000  0.000  0.007  0.008
    4  0.000  0.000  0.008  0.008
    5  0.000  0.000  0.011  0.011
    6  0.000  0.000  0.007  0.008
    7  0.000  0.000  0.007  0.008
    8  0.000  0.000  0.007  0.008
    9  0.000  0.000  0.009  0.010
   10  0.000  0.000  0.015  0.015
   11  0.000  0.000  0.048  0.049
   12  0.000  0.000  0.014  0.014
   13  0.000  0.000  0.048  0.049
   14  0.000  0.000  0.048  0.048
   15  0.001  0.001  0.051  0.053
   16  0.000  0.000  0.014  0.015
   17  0.001  0.001  0.051  0.053
   18  0.001  0.001  0.051  0.053
   19  0.000  0.000  0.022  0.022
   20  0.000  0.000  0.054  0.055
   21  0.000  0.000  0.054  0.055
   22  0.002  0.001  0.037  0.040
   23  0.000  0.000  0.054  0.055
   24  0.002  0.001  0.037  0.039
   25  0.000  0.000  0.022  0.022
   26  0.000  0.000  0.022  0.022
   27  0.002  0.001  0.037  0.040
   28  0.007  0.001  0.003  0.010
   29  0.001  0.000  0.011  0.012
   30  0.001  0.000  0.011  0.013
   31  0.001  0.000  0.011  0.012
   32  0.001  0.000  0.011  0.012
   33  0.001  0.000  0.011  0.013
   34  0.001  0.000  0.011  0.012
   35  0.001  0.000  0.001  0.002
   36  0.002  0.001  0.004  0.008
   37  0.000  0.001  0.000  0.001
tot    0.030  0.015  0.821  0.865
 
band    19 # energy   -4.88428534 # occ.  2.00000000
 
ion      s      p      d    tot
    1  0.000  0.000  0.002  0.002
    2  0.001  0.001  0.009  0.010
    3  0.000  0.000  0.006  0.007
    4  0.001  0.001  0.009  0.010
    5  0.000  0.000  0.007  0.008
    6  0.001  0.001  0.006  0.008
    7  0.000  0.000  0.007  0.007
    8  0.001  0.001  0.006  0.008
    9  0.000  0.001  0.017  0.018
   10  0.001  0.001  0.036  0.037
   11  0.000  0.000  0.067  0.068
   12  0.001  0.000  0.009  0.010
   13  0.000  0.000  0.068  0.068
   14  0.000  0.000  0.028  0.028
   15  0.001  0.000  0.049  0.051
   16  0.001  0.001  0.009  0.010
   17  0.001  0.000  0.049  0.050
   18  0.002  0.000  0.041  0.044
   19  0.000  0.000  0.014  0.014
   20  0.005  0.000  0.048  0.053
   21  0.001  0.000  0.050  0.051
   22  0.000  0.000  0.059  0.059
   23  0.001  0.000  0.050  0.050
   24  0.001  0.001  0.026  0.027
   25  0.002  0.001  0.021  0.024
   26  0.000  0.000  0.013  0.014
   27  0.000  0.000  0.058  0.059
   28  0.000  0.000  0.004  0.004
   29  0.000  0.000  0.008  0.009
   30  0.001  0.001  0.008  0.009
   31  0.000  0.000  0.008  0.009
   32  0.002  0.001  0.004  0.007
   33  0.001  0.001  0.008  0.009
   34  0.002  0.001  0.004  0.007
   35  0.000  0.000  0.007  0.007
   36  0.000  0.001  0.004  0.006
   37  0.000  0.000  0.000  0.000
tot    0.027  0.016  0.819  0.862
 
band    20 # energy   -4.88422311 # occ.  2.00000000
 
ion      s      p      d    tot
    1  0.000  0.000  0.002  0.002
    2  0.001  0.000  0.008  0.009
    3  0.001  0.001  0.007  0.009
    4  0.001  0.000  0.004  0.004
    5  0.000  0.000  0.007  0.008
    6  0.000  0.000  0.008  0.008
    7  0.001  0.001  0.006  0.007
    8  0.000  0.000  0.011  0.012
    9  0.000  0.001  0.017  0.017
   10  0.000  0.000  0.009  0.009
   11  0.000  0.000  0.041  0.042
   12  0.001  0.001  0.014  0.016
   13  0.000  0.000  0.039  0.040
   14  0.000  0.000  0.082  0.082
   15  0.002  0.000  0.039  0.041
   16  0.000  0.001  0.033  0.034
   17  0.003  0.000  0.053  0.056
   18  0.000  0.000  0.046  0.046
   19  0.002  0.001  0.013  0.016
   20  0.000  0.000  0.055  0.055
   21  0.002  0.000  0.040  0.043
   22  0.001  0.000  0.038  0.039
   23  0.004  0.000  0.052  0.056
   24  0.000  0.000  0.068  0.068
   25  0.000  0.000  0.003  0.004
   26  0.001  0.001  0.033  0.035
   27  0.001  0.001  0.035  0.037
   28  0.000  0.000  0.004  0.004
   29  0.002  0.001  0.006  0.009
   30  0.001  0.000  0.003  0.005
   31  0.002  0.001  0.007  0.010
   32  0.000  0.000  0.007  0.007
   33  0.001  0.001  0.007  0.009
   34  0.000  0.000  0.010  0.010
   35  0.000  0.000  0.007  0.007
   36  0.000  0.001  0.004  0.006
   37  0.000  0.000  0.000  0.000
tot    0.027  0.016  0.819  0.862
 
band    21 # energy   -4.88419526 # occ.  2.00000000
 
ion      s      p      d    tot
    1  0.000  0.000  0.006  0.006
    2  0.000  0.000  0.008  0.008
    3  0.000  0.001  0.011  0.011
    4  0.000  0.001  0.012  0.013
    5  0.003  0.001  0.005  0.008
    6  0.000  0.000  0.010  0.011
    7  0.000  0.001  0.012  0.013
    8  0.000  0.000  0.007  0.008
    9  0.003  0.001  0.002  0.005
   10  0.002  0.001  0.036  0.040
   11  0.000  0.001  0.044  0.045
   12  0.001  0.000  0.057  0.059
   13  0.000  0.000  0.046  0.046
   14  0.000  0.001  0.042  0.043
   15  0.002  0.000  0.023  0.024
   16  0.002  0.001  0.038  0.041
   17  0.000  0.000  0.009  0.009
   18  0.002  0.000  0.024  0.026
   19  0.001  0.001  0.058  0.060
   20  0.001  0.000  0.026  0.027
   21  0.002  0.000  0.038  0.041
   22  0.000  0.001  0.032  0.033
   23  0.001  0.000  0.027  0.028
   24  0.000  0.000  0.034  0.034
   25  0.001  0.000  0.061  0.062
   26  0.002  0.001  0.039  0.041
   27  0.000  0.000  0.035  0.036
   28  0.000  0.000  0.010  0.010
   29  0.000  0.000  0.009  0.009
   30  0.000  0.001  0.012  0.012
   31  0.000  0.000  0.008  0.008
   32  0.000  0.001  0.012  0.012
   33  0.000  0.000  0.008  0.009
   34  0.000  0.000  0.009  0.009
   35  0.004  0.001  0.003  0.007
   36  0.001  0.000  0.002  0.003