 vasp.6.2.0 18Jan21 (build Jun 12 2021 23:27:24) complex                        
  
 executed on             LinuxIFC date 2022.05.30  16:18:12
 running on   28 total cores
 distrk:  each k-point on   28 cores,    1 groups
 distr:  one band on NCORE=   1 cores,   28 groups


--------------------------------------------------------------------------------------------------------


 INCAR:
   ISMEAR = -5
   SIGMA = 0.1
   ISPIN = 1
   EDIFF = 1.d-5
   EDIFFG = -0.01
   NSW = 0
   NELM = 150
   ENCUT = 500
   ISIF = 2
   IBRION = 2
   LREAL = Auto
   ALGO = Fast
   ICHARG = 11
   LORBIT = 10
   LCHARG = .F.
   LWAVE = .F.

 POTCAR:    PAW_PBE Au 04Oct2007                  
 POTCAR:    PAW_PBE Ru 04Feb2005                  
 POTCAR:    PAW_PBE O 08Apr2002                   
 -----------------------------------------------------------------------------
|                                                                             |
|           W    W    AA    RRRRR   N    N  II  N    N   GGGG   !!!           |
|           W    W   A  A   R    R  NN   N  II  NN   N  G    G  !!!           |
|           W    W  A    A  R    R  N N  N  II  N N  N  G       !!!           |
|           W WW W  AAAAAA  RRRRR   N  N N  II  N  N N  G  GGG   !            |
|           WW  WW  A    A  R   R   N   NN  II  N   NN  G    G                |
|           W    W  A    A  R    R  N    N  II  N    N   GGGG   !!!           |
|                                                                             |
|     For optimal performance we recommend to set                             |
|       NCORE = 2 up to number-of-cores-per-socket                            |
|     NCORE specifies how many cores store one orbital (NPAR=cpu/NCORE).      |
|     This setting can greatly improve the performance of VASP for DFT.       |
|     The default, NCORE=1 might be grossly inefficient on modern             |
|     multi-core architectures or massively parallel machines. Do your        |
|     own testing! More info at https://www.vasp.at/wiki/index.php/NCORE      |
|     Unfortunately you need to use the default for GW and RPA                |
|     calculations (for HF NCORE is supported but not extensively tested      |
|     yet).                                                                   |
|                                                                             |
 -----------------------------------------------------------------------------

 POTCAR:    PAW_PBE Au 04Oct2007                  
   VRHFIN =Au: s1d10                                                                                
   LEXCH  = PE                                                                                      
   EATOM  =   926.0867 eV,   68.0654 Ry                                                             
                                                                                                    
   TITEL  = PAW_PBE Au 04Oct2007                                                                    
   LULTRA =        F    use ultrasoft PP ?                                                          
   IUNSCR =        1    unscreen: 0-lin 1-nonlin 2-no                                               
   RPACOR =    2.330    partial core radius                                                         
   POMASS =  196.966; ZVAL   =   11.000    mass and valenz                                          
   RCORE  =    2.500    outmost cutoff radius                                                       
   RWIGS  =    2.840; RWIGS  =    1.503    wigner-seitz radius (au A)                               
   ENMAX  =  229.943; ENMIN  =  172.457 eV                                                          
   ICORE  =        3    local potential                                                             
   LCOR   =        T    correct aug charges                                                         
   LPAW   =        T    paw PP                                                                      
   EAUG   =  356.670                                                                                
   DEXC   =    0.000                                                                                
   RMAX   =    2.562    core radius for proj-oper                                                   
   RAUG   =    1.300    factor for augmentation sphere                                              
   RDEP   =    2.598    radius for radial grids                                                     
   RDEPT  =    2.193    core radius for aug-charge                                                  
                                                                                                    
   Atomic configuration                                                                             
   16 entries                                                                                       
     n  l   j            E        occ.                                                              
     1  0  0.50    -80748.5001   2.0000                                                             
     2  0  0.50    -14244.7466   2.0000                                                             
     2  1  1.50    -12310.9591   6.0000                                                             
     3  0  0.50     -3362.1768   2.0000                                                             
     3  1  1.50     -2801.5463   6.0000                                                             
     3  2  2.50     -2203.8206  10.0000                                                             
     4  0  0.50      -729.8168   2.0000                                                             
     4  1  1.50      -546.0527   6.0000                                                             
     4  2  2.50      -325.7302  10.0000                                                             
     4  3  3.50       -81.1472  14.0000                                                             
     5  0  0.50      -108.3201   2.0000                                                             
     5  1  1.50       -59.7479   6.0000                                                             
     5  2  2.50        -6.8783  10.0000                                                             
     6  0  0.50        -5.7602   1.0000                                                             
     6  1  1.50        -6.8029   0.0000                                                             
     5  3  2.50        -1.3606   0.0000                                                             
   Description                                                                                      
     l       E           TYP  RCUT    TYP  RCUT                                                     
     2     -6.8782861     23  2.500                                                                 
     2     -8.2388687     23  2.500                                                                 
     0     -5.7601759     23  2.500                                                                 
     0     -0.8493231     23  2.500                                                                 
     1     -2.7211652     23  2.500                                                                 
     1     27.2116520     23  2.500                                                                 
     3     -1.3605826     23  2.500                                                                 
  local pseudopotential read in
  partial core-charges read in
  partial kinetic energy density read in
  atomic valenz-charges read in
  non local Contribution for L=           2  read in
    real space projection operators read in
  non local Contribution for L=           2  read in
    real space projection operators read in
  non local Contribution for L=           0  read in
    real space projection operators read in
  non local Contribution for L=           0  read in
    real space projection operators read in
  non local Contribution for L=           1  read in
    real space projection operators read in
  non local Contribution for L=           1  read in
    real space projection operators read in
    PAW grid and wavefunctions read in
 
   number of l-projection  operators is LMAX  =           6
   number of lm-projection operators is LMMAX =          18
 
 POTCAR:    PAW_PBE Ru 04Feb2005                  
   VRHFIN =Ru: s1 d7                                                                                
   LEXCH  = PE                                                                                      
   EATOM  =   454.8837 eV,   33.4330 Ry                                                             
                                                                                                    
   TITEL  = PAW_PBE Ru 04Feb2005                                                                    
   LULTRA =        F    use ultrasoft PP ?                                                          
   IUNSCR =        1    unscreen: 0-lin 1-nonlin 2-no                                               
   RPACOR =    2.170    partial core radius                                                         
   POMASS =  101.070; ZVAL   =    8.000    mass and valenz                                          
   RCORE  =    2.700    outmost cutoff radius                                                       
   RWIGS  =    2.650; RWIGS  =    1.402    wigner-seitz radius (au A)                               
   ENMAX  =  213.271; ENMIN  =  159.953 eV                                                          
   ICORE  =        3    local potential                                                             
   LCOR   =        T    correct aug charges                                                         
   LPAW   =        T    paw PP                                                                      
   EAUG   =  333.494                                                                                
   DEXC   =    0.000                                                                                
   RMAX   =    2.758    core radius for proj-oper                                                   
   RAUG   =    1.300    factor for augmentation sphere                                              
   RDEP   =    2.865    radius for radial grids                                                     
   RDEPT  =    2.250    core radius for aug-charge                                                  
                                                                                                    
   Atomic configuration                                                                             
   12 entries                                                                                       
     n  l   j            E        occ.                                                              
     1  0  0.50    -21933.2693   2.0000                                                             
     2  0  0.50     -3153.4097   2.0000                                                             
     2  1  1.50     -2823.9548   6.0000                                                             
     3  0  0.50      -555.3323   2.0000                                                             
     3  1  1.50      -447.1024   6.0000                                                             
     3  2  2.50      -273.0570  10.0000                                                             
     4  0  0.50       -76.3589   2.0000                                                             
     4  1  1.50       -46.4050   6.0000                                                             
     4  2  2.50        -5.2029   7.0000                                                             
     5  0  0.50        -4.2392   1.0000                                                             
     5  1  0.50        -1.3606   0.0000                                                             
     4  3  2.50        -1.3606   0.0000                                                             
   Description                                                                                      
     l       E           TYP  RCUT    TYP  RCUT                                                     
     2     -5.2028939     23  2.600                                                                 
     2     -6.5634765     23  2.600                                                                 
     0     -4.2392259     23  2.700                                                                 
     0     27.2116520     23  2.700                                                                 
     1     -4.0817478     23  2.700                                                                 
     1     27.2116520     23  2.700                                                                 
     3     -5.4423304     23  2.600                                                                 
  local pseudopotential read in
  partial core-charges read in
  partial kinetic energy density read in
  atomic valenz-charges read in
  non local Contribution for L=           2  read in
    real space projection operators read in
  non local Contribution for L=           2  read in
    real space projection operators read in
  non local Contribution for L=           0  read in
    real space projection operators read in
  non local Contribution for L=           0  read in
    real space projection operators read in
  non local Contribution for L=           1  read in
    real space projection operators read in
  non local Contribution for L=           1  read in
    real space projection operators read in
    PAW grid and wavefunctions read in
 
   number of l-projection  operators is LMAX  =           6
   number of lm-projection operators is LMMAX =          18
 
 POTCAR:    PAW_PBE O 08Apr2002                   
   VRHFIN =O: s2p4                                                                                  
   LEXCH  = PE                                                                                      
   EATOM  =   432.3788 eV,   31.7789 Ry                                                             
                                                                                                    
   TITEL  = PAW_PBE O 08Apr2002                                                                     
   LULTRA =        F    use ultrasoft PP ?                                                          
   IUNSCR =        1    unscreen: 0-lin 1-nonlin 2-no                                               
   RPACOR =    1.200    partial core radius                                                         
   POMASS =   16.000; ZVAL   =    6.000    mass and valenz                                          
   RCORE  =    1.520    outmost cutoff radius                                                       
   RWIGS  =    1.550; RWIGS  =    0.820    wigner-seitz radius (au A)                               
   ENMAX  =  400.000; ENMIN  =  300.000 eV                                                          
   ICORE  =        2    local potential                                                             
   LCOR   =        T    correct aug charges                                                         
   LPAW   =        T    paw PP                                                                      
   EAUG   =  605.392                                                                                
   DEXC   =    0.000                                                                                
   RMAX   =    1.553    core radius for proj-oper                                                   
   RAUG   =    1.300    factor for augmentation sphere                                              
   RDEP   =    1.550    radius for radial grids                                                     
   RDEPT  =    1.329    core radius for aug-charge                                                  
                                                                                                    
   Atomic configuration                                                                             
    4 entries                                                                                       
     n  l   j            E        occ.                                                              
     1  0  0.50      -514.6923   2.0000                                                             
     2  0  0.50       -23.9615   2.0000                                                             
     2  1  0.50        -9.0305   4.0000                                                             
     3  2  1.50        -9.5241   0.0000                                                             
   Description                                                                                      
     l       E           TYP  RCUT    TYP  RCUT                                                     
     0    -23.9615318     23  1.200                                                                 
     0     -9.5240782     23  1.200                                                                 
     1     -9.0304911     23  1.520                                                                 
     1      8.1634956     23  1.520                                                                 
     2     -9.5240782      7  1.500                                                                 
  local pseudopotential read in
  partial core-charges read in
  partial kinetic energy density read in
  kinetic energy density of atom read in
  atomic valenz-charges read in
  non local Contribution for L=           0  read in
    real space projection operators read in
  non local Contribution for L=           0  read in
    real space projection operators read in
  non local Contribution for L=           1  read in
    real space projection operators read in
  non local Contribution for L=           1  read in
    real space projection operators read in
    PAW grid and wavefunctions read in
 
   number of l-projection  operators is LMAX  =           4
   number of lm-projection operators is LMMAX =           8
 
 Optimization of the real space projectors (new method)

 maximal supplied QI-value         = 15.12
 optimisation between [QCUT,QGAM] = [ 11.34, 22.83] = [ 36.00,145.93] Ry 
 Optimized for a Real-space Cutoff    1.39 Angstroem

   l    n(q)    QCUT    max X(q) W(low)/X(q) W(high)/X(q)  e(spline) 
   2      9    11.338    60.898    0.39E-03    0.42E-03    0.21E-06
   2      9    11.338    58.894    0.40E-03    0.42E-03    0.22E-06
   0      9    11.338   109.617    0.13E-03    0.20E-04    0.13E-06
   0      9    11.338    75.026    0.13E-03    0.20E-04    0.13E-06
   1      9    11.338    16.344    0.33E-04    0.24E-03    0.18E-06
   1      9    11.338    10.160    0.26E-04    0.19E-03    0.15E-06
 Optimization of the real space projectors (new method)

 maximal supplied QI-value         = 13.98
 optimisation between [QCUT,QGAM] = [ 11.33, 22.79] = [ 35.93,145.49] Ry 
 Optimized for a Real-space Cutoff    1.52 Angstroem

   l    n(q)    QCUT    max X(q) W(low)/X(q) W(high)/X(q)  e(spline) 
   2      9    11.327    61.733    0.26E-03    0.14E-03    0.16E-06
   2      9    11.327    59.886    0.26E-03    0.14E-03    0.17E-06
   0     10    11.327    23.358    0.19E-03    0.14E-04    0.46E-06
   0     10    11.327    11.320    0.15E-03    0.11E-04    0.37E-06
   1     10    11.327    14.765    0.49E-04    0.26E-03    0.24E-06
   1     10    11.327     8.283    0.37E-04    0.20E-03    0.18E-06
 Optimization of the real space projectors (new method)

 maximal supplied QI-value         = 24.76
 optimisation between [QCUT,QGAM] = [ 11.39, 22.77] = [ 36.31,145.25] Ry 
 Optimized for a Real-space Cutoff    1.00 Angstroem

   l    n(q)    QCUT    max X(q) W(low)/X(q) W(high)/X(q)  e(spline) 
   0      7    11.387    20.381    0.39E-03    0.13E-02    0.15E-06
   0      7    11.387    15.268    0.42E-03    0.14E-02    0.17E-06
   1      6    11.387     5.964    0.41E-03    0.11E-02    0.17E-06
   1      6    11.387     5.382    0.39E-03    0.87E-03    0.15E-06
  PAW_PBE Au 04Oct2007                  :
 energy of atom  1       EATOM= -926.0867
 kinetic energy error for atom=    0.0042 (will be added to EATOM!!)
  PAW_PBE Ru 04Feb2005                  :
 energy of atom  2       EATOM= -454.8837
 kinetic energy error for atom=    0.0015 (will be added to EATOM!!)
  PAW_PBE O 08Apr2002                   :
 energy of atom  3       EATOM= -432.3788
 kinetic energy error for atom=    0.0224 (will be added to EATOM!!)
 
 
 POSCAR: Au-Ru-O2
  positions in direct lattice
  velocities in cartesian coordinates
 exchange correlation table for  LEXCH =        8
   RHO(1)=    0.500       N(1)  =     2000
   RHO(2)=  100.500       N(2)  =     4000

 VTST: version 3.2, (02/03/18)

 CHAIN: initializing optimizer
 
 OPT: Using VASP Conjugate-Gradient optimizer
 CHAIN: Read ICHAIN            0
 
 POSCAR: Au-Ru-O2
  positions in direct lattice
  velocities in cartesian coordinates
 


--------------------------------------------------------------------------------------------------------


 ion  position               nearest neighbor table
   1  0.000  0.000  0.217-  16 2.94  12 2.94   6 2.94   8 2.94   7 2.94   3 2.94  10 2.94   4 2.94
                             2 2.94
   2  0.333  0.000  0.217-   9 2.94  11 2.94  17 2.94  10 2.94   8 2.94   4 2.94   5 2.94   1 2.94
                             3 2.94
   3  0.667  0.000  0.217-   7 2.94  18 2.94  12 2.94   1 2.94  11 2.94   5 2.94   6 2.94   9 2.94
                             2 2.94
   4  0.000  0.333  0.217-  10 2.94   6 2.94   5 2.94  13 2.94   2 2.94  15 2.94   9 2.94   1 2.94
                             7 2.94
   5  0.333  0.333  0.217-  13 2.94   7 2.94  11 2.94   4 2.94   2 2.94  14 2.94   3 2.94   8 2.94
                             6 2.94
   6  0.667  0.333  0.217-  15 2.94  14 2.94   1 2.94  12 2.94   4 2.94   9 2.94   8 2.94   3 2.94
                             5 2.94
   7  0.000  0.667  0.217-  18 2.94   3 2.94  16 2.94   5 2.94   1 2.94  13 2.94   8 2.94   4 2.94
                             9 2.94
   8  0.333  0.667  0.217-   9 2.94  17 2.94   1 2.94   2 2.94  14 2.94  16 2.94   6 2.94   7 2.94
                             5 2.94
   9  0.667  0.667  0.217-   2 2.94   8 2.94  17 2.94   6 2.94  15 2.94   4 2.94   3 2.94  18 2.94
                             7 2.94
  10  0.111  0.111  0.316-  20 2.91  26 2.94  19 2.94  11 2.94  17 2.94   2 2.94   4 2.94   1 2.94
                            12 2.94  16 2.94  13 2.94  15 2.94
  11  0.444  0.111  0.316-  20 2.91  21 2.91  27 2.94  13 2.94   2 2.94  10 2.94  17 2.94   5 2.94
                             3 2.94  18 2.94  14 2.94  12 2.94
  12  0.778  0.111  0.316-  21 2.91  25 2.94  19 2.94  16 2.94  18 2.94   1 2.94  14 2.94  15 2.94
                             3 2.94   6 2.94  10 2.94  11 2.94
  13  0.111  0.444  0.316-  23 2.91  20 2.91  22 2.94   5 2.94  18 2.94  11 2.94   7 2.94   4 2.94
                            16 2.94  10 2.94  14 2.94  15 2.94
  14  0.444  0.444  0.316-  21 2.91  23 2.91  24 2.94  15 2.94   6 2.94  12 2.94   8 2.94  17 2.94
                             5 2.94  16 2.94  13 2.94  11 2.94
  15  0.778  0.444  0.316-  24 2.92  22 2.92  19 2.94  14 2.94   6 2.94  17 2.94  12 2.94   9 2.94
                             4 2.94  10 2.94  13 2.94  18 2.94
  16  0.111  0.778  0.316-  23 2.91  25 2.94  26 2.94  18 2.94  12 2.94   7 2.94   1 2.94   8 2.94
                            13 2.94  10 2.94  14 2.94  17 2.94
  17  0.444  0.778  0.316-  27 2.92  24 2.92  26 2.94   9 2.94  15 2.94   2 2.94  10 2.94  11 2.94
                             8 2.94  14 2.94  16 2.94  18 2.94
  18  0.778  0.778  0.316-  22 2.92  27 2.92  25 2.94  16 2.94   7 2.94  13 2.94  12 2.94   3 2.94
                            11 2.94   9 2.94  15 2.94  17 2.94
  19  0.889  0.222  0.414-  15 2.94  10 2.94  12 2.94  24 2.94  22 2.94  26 2.94  25 2.94  21 2.94
                            20 2.94  28 2.95  32 2.97  31 2.97
  20  0.223  0.223  0.413-  36 2.78  11 2.91  13 2.91  10 2.91  23 2.93  21 2.93  29 2.94  31 2.94
                            26 2.94  19 2.94  27 2.95  22 2.95
  21  0.555  0.223  0.413-  36 2.78  14 2.91  11 2.91  12 2.91  20 2.93  23 2.93  30 2.94  32 2.94
                            25 2.94  19 2.94  27 2.95  24 2.95
  22  0.887  0.557  0.414-  24 2.91  27 2.91  18 2.92  15 2.92  13 2.94  25 2.94  19 2.94  23 2.95
                            20 2.95  35 2.96  33 2.96  31 2.96
  23  0.223  0.555  0.413-  36 2.78  13 2.91  14 2.91  16 2.91  20 2.93  21 2.93  33 2.94  34 2.94
                            25 2.94  26 2.94  22 2.95  24 2.95
  24  0.557  0.557  0.414-  27 2.91  22 2.91  15 2.92  17 2.92  14 2.94  26 2.94  19 2.94  21 2.95
                            23 2.95  35 2.96  32 2.96  34 2.96
  25  0.889  0.889  0.414-  18 2.94  16 2.94  12 2.94  22 2.94  27 2.94  19 2.94  26 2.94  23 2.94
                            21 2.94  28 2.95  33 2.97  30 2.97
  26  0.222  0.889  0.414-  17 2.94  10 2.94  16 2.94  27 2.94  24 2.94  19 2.94  25 2.94  20 2.94
                            23 2.94  28 2.95  29 2.97  34 2.97
  27  0.557  0.887  0.414-  24 2.91  22 2.91  17 2.92  18 2.92  11 2.94  26 2.94  25 2.94  20 2.95
                            21 2.95  35 2.96  29 2.96  30 2.96
  28  0.000  0.000  0.514-  25 2.95  19 2.95  26 2.95  34 2.97  32 2.97  33 2.97  30 2.97  31 2.97
                            29 2.97
  29  0.333  0.007  0.513-  31 2.88  30 2.88  36 2.89  20 2.94  27 2.96  28 2.97  35 2.97  26 2.97
                            34 3.05
  30  0.660  0.007  0.513-  32 2.88  29 2.88  36 2.89  21 2.94  27 2.96  28 2.97  35 2.97  25 2.97
                            33 3.05
  31  0.007  0.333  0.513-  37 2.77  29 2.88  33 2.88  36 2.89  20 2.94  22 2.96  28 2.97  35 2.97
                            19 2.97  32 3.05
  32  0.660  0.333  0.513-  38 2.77  30 2.88  34 2.88  36 2.89  21 2.94  24 2.96  28 2.97  35 2.97
                            19 2.97  31 3.05
  33  0.007  0.660  0.513-  34 2.88  31 2.88  36 2.89  23 2.94  22 2.96  28 2.97  35 2.97  25 2.97
                            30 3.05
  34  0.333  0.660  0.513-  33 2.88  32 2.88  36 2.89  23 2.94  24 2.96  28 2.97  35 2.97  26 2.97
                            29 3.05
  35  0.667  0.667  0.514-  24 2.96  27 2.96  22 2.96  29 2.97  34 2.97  32 2.97  31 2.97  30 2.97
                            33 2.97
  36  0.333  0.333  0.504-  38 2.04  37 2.04  20 2.78  23 2.78  21 2.78  33 2.89  31 2.89  29 2.89
                            30 2.89  34 2.89  32 2.89
  37  0.256  0.333  0.583-  38 1.36  36 2.04  31 2.77
  38  0.411  0.333  0.583-  37 1.36  36 2.04  32 2.77
 
  LATTYP: Found a hexagonal cell.
 ALAT       =     8.8135128021
 C/A-ratio  =     2.7586513333
  
  Lattice vectors:
  
 A1 = (  -4.4067569092,  -7.6327256898,   0.0000000000)
 A2 = (   8.8135128021,   0.0000000000,   0.0000000000)
 A3 = (   0.0000000000,   0.0000000000,  24.3134088421)


Analysis of symmetry for initial positions (statically):
=====================================================================
 Subroutine PRICEL returns:
 Original cell was already a primitive cell.
 

 Routine SETGRP: Setting up the symmetry group for a 
 hexagonal supercell.


 Subroutine GETGRP returns: Found  2 space group operations
 (whereof  2 operations were pure point group operations)
 out of a pool of 24 trial point group operations.


The static configuration has the point symmetry C_1h.


Analysis of symmetry for dynamics (positions and initial velocities):
=====================================================================
 Subroutine PRICEL returns:
 Original cell was already a primitive cell.
 

 Routine SETGRP: Setting up the symmetry group for a 
 hexagonal supercell.


 Subroutine GETGRP returns: Found  2 space group operations
 (whereof  2 operations were pure point group operations)
 out of a pool of 24 trial point group operations.


The dynamic configuration has the point symmetry C_1h.


Analysis of constrained symmetry for selective dynamics:
=====================================================================
 Subroutine PRICEL returns:
 Original cell was already a primitive cell.
 

 Routine SETGRP: Setting up the symmetry group for a 
 hexagonal supercell.


 Subroutine GETGRP returns: Found  2 space group operations
 (whereof  2 operations were pure point group operations)
 out of a pool of 24 trial point group operations.


The constrained configuration has the point symmetry C_1h.


 Subroutine INISYM returns: Found  2 space group operations
 (whereof  2 operations are pure point group operations),
 and found     1 'primitive' translations


----------------------------------------------------------------------------------------

                                     Primitive cell                                     

  volume of cell :    1635.5904

  direct lattice vectors                    reciprocal lattice vectors
     8.813512802  0.000000000  0.000000000     0.113462137 -0.065507406  0.000000000
     4.406756909  7.632725690  0.000000000     0.000000000  0.131014796  0.000000000
     0.000000000  0.000000000 24.313408842     0.000000000  0.000000000  0.041129568

  length of vectors
     8.813512802  8.813512802 24.313408842     0.131014796  0.131014796  0.041129568

  position of ions in fractional coordinates (direct lattice)
     0.000000000  0.000000000  0.217179745
     0.333333343  0.000000000  0.217179745
     0.666666687  0.000000000  0.217179745
     0.000000000  0.333333343  0.217179745
     0.333333313  0.333333343  0.217179745
     0.666666687  0.333333343  0.217179745
     0.000000000  0.666666687  0.217179745
     0.333333343  0.666666687  0.217179745
     0.666666627  0.666666687  0.217179745
     0.111111119  0.111111112  0.315838643
     0.444444418  0.111111112  0.315838643
     0.777777791  0.111111112  0.315838643
     0.111111127  0.444444448  0.315838643
     0.444444478  0.444444448  0.315838643
     0.777777731  0.444444448  0.315838643
     0.111111090  0.777777791  0.315838643
     0.444444448  0.777777791  0.315838643
     0.777777851  0.777777791  0.315838643
     0.888846350  0.222307315  0.414407873
     0.222561074  0.222561059  0.412990250
     0.554877911  0.222561059  0.412990250
     0.886631682  0.556684189  0.413884915
     0.222561029  0.554877911  0.412990250
     0.556684189  0.556684189  0.413884915
     0.888846350  0.888846350  0.414407873
     0.222307345  0.888846350  0.414407873
     0.556684129  0.886631682  0.413884915
     0.000000000  0.000000000  0.513897254
     0.333249581  0.006611377  0.513230140
     0.660139073  0.006611377  0.513230140
     0.006611377  0.333249581  0.513230140
     0.660139073  0.333249581  0.513230140
     0.006611377  0.660139073  0.513230140
     0.333249581  0.660139073  0.513230140
     0.666666627  0.666666687  0.513936437
     0.333333313  0.333333343  0.503507518
     0.256340804  0.332710440  0.582556928
     0.410948724  0.332710440  0.582556928

  ion indices of the primitive-cell ions
   primitive index   ion index
                 1           1
                 2           2
                 3           3
                 4           4
                 5           5
                 6           6
                 7           7
                 8           8
                 9           9
                10          10
                11          11
                12          12
                13          13
                14          14
                15          15
                16          16
                17          17
                18          18
                19          19
                20          20
                21          21
                22          22
                23          23
                24          24
                25          25
                26          26
                27          27
                28          28
                29          29
                30          30
                31          31
                32          32
                33          33
                34          34
                35          35
                36          36
                37          37
                38          38

----------------------------------------------------------------------------------------

 
 
 KPOINTS: Automatic mesh                          

Automatic generation of k-mesh.
 Grid dimensions read from file:
 generate k-points for:    8    8    1

 Generating k-lattice:

  Cartesian coordinates                     Fractional coordinates (reciprocal lattice)
     0.014182767 -0.008188426  0.000000000     0.125000000  0.000000000  0.000000000
     0.000000000  0.016376850  0.000000000     0.000000000  0.125000000  0.000000000
     0.000000000  0.000000000  0.041129568     0.000000000  0.000000000  1.000000000

  Length of vectors
     0.016376850  0.016376850  0.041129568

  Shift w.r.t. Gamma in fractional coordinates (k-lattice)
     0.000000000  0.000000000  0.000000000

 TETIRR: Found    100 inequivalent tetrahedra from      384
 
 Subroutine IBZKPT returns following result:
 ===========================================
 
 Found     21 irreducible k-points:
 
 Following reciprocal coordinates:
            Coordinates               Weight
  0.000000  0.000000  0.000000      1.000000
  0.125000  0.000000  0.000000      4.000000
  0.000000  0.125000  0.000000      2.000000
  0.250000  0.000000  0.000000      4.000000
  0.000000  0.250000  0.000000      2.000000
  0.375000 -0.000000  0.000000      4.000000
  0.000000  0.375000  0.000000      2.000000
  0.500000  0.000000  0.000000      2.000000
  0.000000  0.500000  0.000000      1.000000
  0.250000  0.125000  0.000000      2.000000
  0.125000  0.250000  0.000000      4.000000
  0.375000  0.125000  0.000000      4.000000
  0.250000  0.375000  0.000000      4.000000
 -0.125000  0.250000  0.000000      4.000000
  0.500000  0.125000  0.000000      4.000000
  0.375000  0.500000  0.000000      4.000000
 -0.125000  0.375000  0.000000      4.000000
  0.500000  0.250000  0.000000      2.000000
  0.250000  0.500000  0.000000      4.000000
 -0.375000  0.250000  0.000000      4.000000
 -0.250000  0.375000  0.000000      2.000000
 
 Following cartesian coordinates:
            Coordinates               Weight
  0.000000  0.000000  0.000000      1.000000
  0.014183 -0.008188  0.000000      4.000000
  0.000000  0.016377  0.000000      2.000000
  0.028366 -0.016377  0.000000      4.000000
  0.000000  0.032754  0.000000      2.000000
  0.042548 -0.024565  0.000000      4.000000
  0.000000  0.049131  0.000000      2.000000
  0.056731 -0.032754  0.000000      2.000000
  0.000000  0.065507  0.000000      1.000000
  0.028366 -0.000000  0.000000      2.000000
  0.014183  0.024565  0.000000      4.000000
  0.042548 -0.008188  0.000000      4.000000
  0.028366  0.032754  0.000000      4.000000
 -0.014183  0.040942  0.000000      4.000000
  0.056731 -0.016377  0.000000      4.000000
  0.042548  0.040942  0.000000      4.000000
 -0.014183  0.057319  0.000000      4.000000
  0.056731 -0.000000  0.000000      2.000000
  0.028366  0.049131  0.000000      4.000000
 -0.042548  0.057319  0.000000      4.000000
 -0.028366  0.065507  0.000000      2.000000
 


--------------------------------------------------------------------------------------------------------




 Dimension of arrays:
   k-points           NKPTS =     21   k-points in BZ     NKDIM =     21   number of bands    NBANDS=    252
   number of dos      NEDOS =    301   number of ions     NIONS =     38
   non local maximal  LDIM  =      6   non local SUM 2l+1 LMDIM =     18
   total plane-waves  NPLWV = 322560
   max r-space proj   IRMAX =   2943   max aug-charges    IRDMAX=  13537
   dimension x,y,z NGX =    48 NGY =   48 NGZ =  140
   dimension x,y,z NGXF=    96 NGYF=   96 NGZF=  280
   support grid    NGXF=    96 NGYF=   96 NGZF=  280
   ions per type =              35   1   2
   NGX,Y,Z   is equivalent  to a cutoff of   9.05,  9.05,  9.57 a.u.
   NGXF,Y,Z  is equivalent  to a cutoff of  18.11, 18.11, 19.15 a.u.

 SYSTEM =  unknown system                          
 POSCAR =  Au-Ru-O2                                

 Startparameter for this run:
   NWRITE =      2    write-flag & timer
   PREC   = normal    normal or accurate (medium, high low for compatibility)
   ISTART =      0    job   : 0-new  1-cont  2-samecut
   ICHARG =     11    charge: 1-file 2-atom 10-const
   ISPIN  =      1    spin polarized calculation?
   LNONCOLLINEAR =      F non collinear calculations
   LSORBIT =      F    spin-orbit coupling
   INIWAV =      1    electr: 0-lowe 1-rand  2-diag
   LASPH  =      F    aspherical Exc in radial PAW
   METAGGA=      F    non-selfconsistent MetaGGA calc.

 Electronic Relaxation 1
   ENCUT  =  500.0 eV  36.75 Ry    6.06 a.u.  16.07 16.07 44.33*2*pi/ulx,y,z
   ENINI  =  500.0     initial cutoff
   ENAUG  =  605.4 eV  augmentation charge cutoff
   NELM   =    150;   NELMIN=  2; NELMDL= -5     # of ELM steps 
   EDIFF  = 0.1E-04   stopping-criterion for ELM
   LREAL  =      T    real-space projection
   NLSPLINE    = F    spline interpolate recip. space projectors
   LCOMPAT=      F    compatible to vasp.4.4
   GGA_COMPAT  = T    GGA compatible to vasp.4.4-vasp.4.6
   LMAXPAW     = -100 max onsite density
   LMAXMIX     =    2 max onsite mixed and CHGCAR
   VOSKOWN=      0    Vosko Wilk Nusair interpolation
   ROPT   =   -0.00050  -0.00050  -0.00050
 Ionic relaxation
   EDIFFG = -.1E-01   stopping-criterion for IOM
   NSW    =      0    number of steps for IOM
   NBLOCK =      1;   KBLOCK =      1    inner block; outer block 
   IBRION =     -1    ionic relax: 0-MD 1-quasi-New 2-CG
   NFREE  =      1    steps in history (QN), initial steepest desc. (CG)
   ISIF   =      2    stress and relaxation
   IWAVPR =     10    prediction:  0-non 1-charg 2-wave 3-comb
   ISYM   =      2    0-nonsym 1-usesym 2-fastsym
   LCORR  =      T    Harris-Foulkes like correction to forces

   POTIM  = 0.5000    time-step for ionic-motion
   TEIN   =    0.0    initial temperature
   TEBEG  =    0.0;   TEEND  =   0.0 temperature during run
   SMASS  =  -3.00    Nose mass-parameter (am)
   estimated Nose-frequenzy (Omega)   =  0.10E-29 period in steps = 0.13E+47 mass=  -0.178E-26a.u.
   SCALEE = 1.0000    scale energy and forces
   NPACO  =    256;   APACO  = 16.0  distance and # of slots for P.C.
   PSTRESS=    0.0 pullay stress

  Mass of Ions in am
   POMASS = 196.97101.07 16.00
  Ionic Valenz
   ZVAL   =  11.00  8.00  6.00
  Atomic Wigner-Seitz radii
   RWIGS  =  -1.00 -1.00 -1.00
  virtual crystal weights 
   VCA    =   1.00  1.00  1.00
   NELECT =     405.0000    total number of electrons
   NUPDOWN=      -1.0000    fix difference up-down

 DOS related values:
   EMIN   =  10.00;   EMAX   =-10.00  energy-range for DOS
   EFERMI =   0.00
   ISMEAR =    -5;   SIGMA  =   0.10  broadening in eV -4-tet -1-fermi 0-gaus

 Electronic relaxation 2 (details)
   IALGO  =     68    algorithm
   LDIAG  =      T    sub-space diagonalisation (order eigenvalues)
   LSUBROT=      F    optimize rotation matrix (better conditioning)
   TURBO    =      0    0=normal 1=particle mesh
   IRESTART =      0    0=no restart 2=restart with 2 vectors
   NREBOOT  =      0    no. of reboots
   NMIN     =      0    reboot dimension
   EREF     =   0.00    reference energy to select bands
   IMIX   =      4    mixing-type and parameters
     AMIX     =   0.40;   BMIX     =  1.00
     AMIX_MAG =   1.60;   BMIX_MAG =  1.00
     AMIN     =   0.10
     WC   =   100.;   INIMIX=   1;  MIXPRE=   1;  MAXMIX= -45

 Intra band minimization:
   WEIMIN = 0.0000     energy-eigenvalue tresh-hold
   EBREAK =  0.99E-08  absolut break condition
   DEPER  =   0.30     relativ break condition  

   TIME   =   0.40     timestep for ELM

  volume/ion in A,a.u.               =      43.04       290.46
  Fermi-wavevector in a.u.,A,eV,Ry     =   1.028020  1.942677 14.378985  1.056826
  Thomas-Fermi vector in A             =   2.161995
 
 Write flags
   LWAVE        =      F    write WAVECAR
   LDOWNSAMPLE  =      F    k-point downsampling of WAVECAR
   LCHARG       =      F    write CHGCAR
   LVTOT        =      F    write LOCPOT, total local potential
   LVHAR        =      F    write LOCPOT, Hartree potential only
   LELF         =      F    write electronic localiz. function (ELF)
   LORBIT       =     10    0 simple, 1 ext, 2 COOP (PROOUT), +10 PAW based schemes


 Dipole corrections
   LMONO  =      F    monopole corrections only (constant potential shift)
   LDIPOL =      F    correct potential (dipole corrections)
   IDIPOL =      0    1-x, 2-y, 3-z, 4-all directions 
   EPSILON=  1.0000000 bulk dielectric constant

 Exchange correlation treatment:
   GGA     =    --    GGA type
   LEXCH   =     8    internal setting for exchange type
   VOSKOWN=      0    Vosko Wilk Nusair interpolation
   LHFCALC =     F    Hartree Fock is set to
   LHFONE  =     F    Hartree Fock one center treatment
   AEXX    =    0.0000 exact exchange contribution

 Linear response parameters
   LEPSILON=     F    determine dielectric tensor
   LRPA    =     F    only Hartree local field effects (RPA)
   LNABLA  =     F    use nabla operator in PAW spheres
   LVEL    =     F    velocity operator in full k-point grid
   LINTERFAST=   F  fast interpolation
   KINTER  =     0    interpolate to denser k-point grid
   CSHIFT  =0.1000    complex shift for real part using Kramers Kronig
   OMEGAMAX=  -1.0    maximum frequency
   DEG_THRESHOLD= 0.2000000E-02 threshold for treating states as degnerate
   RTIME   =   -0.100 relaxation time in fs
  (WPLASMAI=    0.000 imaginary part of plasma frequency in eV, 0.658/RTIME)
   DFIELD  = 0.0000000 0.0000000 0.0000000 field for delta impulse in time
 
 Orbital magnetization related:
   ORBITALMAG=     F  switch on orbital magnetization
   LCHIMAG   =     F  perturbation theory with respect to B field
   DQ        =  0.001000  dq finite difference perturbation B field
   LLRAUG    =     F  two centre corrections for induced B field



--------------------------------------------------------------------------------------------------------


 Static calculation
 charge density and potential remain constant during run
 non-spin polarized calculation
 RMM-DIIS sequential band-by-band and
  variant of blocked Davidson during initial phase
 perform sub-space diagonalisation
    before iterative eigenvector-optimisation
 no mixing
 using additional bands           49
 real space projection scheme for non local part
 use partial core corrections
 calculate Harris-corrections to forces 
   (improved forces if not selfconsistent)
 use gradient corrections 
 WARNING: stress and forces are not correct
  (second derivative of E(xc) not defined)
 use of overlap-Matrix (Vanderbilt PP)
 Fermi weights with tetrahedron method with Bloechl corrections


--------------------------------------------------------------------------------------------------------


  energy-cutoff  :      500.00
  volume of cell :     1635.59
      direct lattice vectors                 reciprocal lattice vectors
     8.813512802  0.000000000  0.000000000     0.113462137 -0.065507406  0.000000000
     4.406756909  7.632725690  0.000000000     0.000000000  0.131014796  0.000000000
     0.000000000  0.000000000 24.313408842     0.000000000  0.000000000  0.041129568

  length of vectors
     8.813512802  8.813512802 24.313408842     0.131014796  0.131014796  0.041129568


 
 k-points in units of 2pi/SCALE and weight: Automatic mesh                          
   0.00000000  0.00000000  0.00000000       0.016
   0.01418277 -0.00818843  0.00000000       0.062
   0.00000000  0.01637685  0.00000000       0.031
   0.02836553 -0.01637685  0.00000000       0.062
   0.00000000  0.03275370  0.00000000       0.031
   0.04254830 -0.02456528  0.00000000       0.062
   0.00000000  0.04913055  0.00000000       0.031
   0.05673107 -0.03275370  0.00000000       0.031
   0.00000000  0.06550740  0.00000000       0.016
   0.02836553 -0.00000000  0.00000000       0.031
   0.01418277  0.02456527  0.00000000       0.062
   0.04254830 -0.00818843  0.00000000       0.062
   0.02836553  0.03275370  0.00000000       0.062
  -0.01418277  0.04094212  0.00000000       0.062
   0.05673107 -0.01637685  0.00000000       0.062
   0.04254830  0.04094212  0.00000000       0.062
  -0.01418277  0.05731897  0.00000000       0.062
   0.05673107 -0.00000000  0.00000000       0.031
   0.02836553  0.04913055  0.00000000       0.062
  -0.04254830  0.05731898  0.00000000       0.062
  -0.02836553  0.06550740  0.00000000       0.031
 
 k-points in reciprocal lattice and weights: Automatic mesh                          
   0.00000000  0.00000000  0.00000000       0.016
   0.12500000  0.00000000  0.00000000       0.062
   0.00000000  0.12500000  0.00000000       0.031
   0.25000000  0.00000000  0.00000000       0.062
   0.00000000  0.25000000  0.00000000       0.031
   0.37500000 -0.00000000  0.00000000       0.062
   0.00000000  0.37500000  0.00000000       0.031
   0.50000000  0.00000000  0.00000000       0.031
   0.00000000  0.50000000  0.00000000       0.016
   0.25000000  0.12500000  0.00000000       0.031
   0.12500000  0.25000000  0.00000000       0.062
   0.37500000  0.12500000  0.00000000       0.062
   0.25000000  0.37500000  0.00000000       0.062
  -0.12500000  0.25000000  0.00000000       0.062
   0.50000000  0.12500000  0.00000000       0.062
   0.37500000  0.50000000  0.00000000       0.062
  -0.12500000  0.37500000  0.00000000       0.062
   0.50000000  0.25000000  0.00000000       0.031
   0.25000000  0.50000000  0.00000000       0.062
  -0.37500000  0.25000000  0.00000000       0.062
  -0.25000000  0.37500000  0.00000000       0.031
 
 position of ions in fractional coordinates (direct lattice) 
   0.00000000  0.00000000  0.21717974
   0.33333334  0.00000000  0.21717974
   0.66666669  0.00000000  0.21717974
   0.00000000  0.33333334  0.21717974
   0.33333331  0.33333334  0.21717974
   0.66666669  0.33333334  0.21717974
   0.00000000  0.66666669  0.21717974
   0.33333334  0.66666669  0.21717974
   0.66666663  0.66666669  0.21717974
   0.11111112  0.11111111  0.31583864
   0.44444442  0.11111111  0.31583864
   0.77777779  0.11111111  0.31583864
   0.11111113  0.44444445  0.31583864
   0.44444448  0.44444445  0.31583864
   0.77777773  0.44444445  0.31583864
   0.11111109  0.77777779  0.31583864
   0.44444445  0.77777779  0.31583864
   0.77777785  0.77777779  0.31583864
   0.88884635  0.22230732  0.41440787
   0.22256107  0.22256106  0.41299025
   0.55487791  0.22256106  0.41299025
   0.88663168  0.55668419  0.41388491
   0.22256103  0.55487791  0.41299025
   0.55668419  0.55668419  0.41388491
   0.88884635  0.88884635  0.41440787
   0.22230735  0.88884635  0.41440787
   0.55668413  0.88663168  0.41388491
   0.00000000  0.00000000  0.51389725
   0.33324958  0.00661138  0.51323014
   0.66013907  0.00661138  0.51323014
   0.00661138  0.33324958  0.51323014
   0.66013907  0.33324958  0.51323014
   0.00661138  0.66013907  0.51323014
   0.33324958  0.66013907  0.51323014
   0.66666663  0.66666669  0.51393644
   0.33333331  0.33333334  0.50350752
   0.25634080  0.33271044  0.58255693
   0.41094872  0.33271044  0.58255693
 
 position of ions in cartesian coordinates  (Angst):
   0.00000000  0.00000000  5.28037993
   2.93783769  0.00000000  5.28037993
   5.87567538  0.00000000  5.28037993
   1.46891901  2.54424197  5.28037993
   4.40675643  2.54424197  5.28037993
   7.34459439  2.54424197  5.28037993
   2.93783803  5.08848395  5.28037993
   5.87567571  5.08848395  5.28037993
   8.81351288  5.08848395  5.28037993
   1.46891893  0.84808064  7.67911405
   4.40675623  0.84808064  7.67911405
   7.34459418  0.84808064  7.67911405
   2.93783798  3.39232256  7.67911405
   5.87567574  3.39232256  7.67911405
   8.81351263  3.39232256  7.67911405
   4.40675667  5.93656453  7.67911405
   7.34459449  5.93656453  7.67911405
  10.28243270  5.93656453  7.67911405
   8.81351299  1.69681076 10.07566805
   2.94231737  1.69874752 10.04120080
   5.87119606  1.69874752 10.04120080
  10.26751158  4.24901771 10.06295314
   4.40675655  4.23523089 10.04120080
   7.35951512  4.24901771 10.06295314
  11.75078848  6.78432037 10.07566805
   5.87623843  6.78432037 10.07566805
   8.81351299  6.76741642 10.06295314
   0.00000000  0.00000000 12.49459404
   2.96623417  0.05046282 12.47837422
   5.84727890  0.05046282 12.47837422
   1.52681934  2.54360264 12.47837422
   7.28669406  2.54360264 12.47837422
   2.96734187  5.03866046 12.47837422
   5.84617187  5.03866046 12.47837422
   8.81351288  5.08848395 12.49554672
   4.40675643  2.54424197 12.24198414
   3.72543699  2.53948753 14.16394477
   5.08807587  2.53948753 14.16394477
 


--------------------------------------------------------------------------------------------------------


 k-point   1 :   0.0000 0.0000 0.0000  plane waves:   41363
 k-point   2 :   0.1250 0.0000 0.0000  plane waves:   41482
 k-point   3 :   0.0000 0.1250 0.0000  plane waves:   41482
 k-point   4 :   0.2500 0.0000 0.0000  plane waves:   41496
 k-point   5 :   0.0000 0.2500 0.0000  plane waves:   41496
 k-point   6 :   0.3750-0.0000 0.0000  plane waves:   41568
 k-point   7 :   0.0000 0.3750 0.0000  plane waves:   41568
 k-point   8 :   0.5000 0.0000 0.0000  plane waves:   41500
 k-point   9 :   0.0000 0.5000 0.0000  plane waves:   41500
 k-point  10 :   0.2500 0.1250 0.0000  plane waves:   41456
 k-point  11 :   0.1250 0.2500 0.0000  plane waves:   41456
 k-point  12 :   0.3750 0.1250 0.0000  plane waves:   41540
 k-point  13 :   0.2500 0.3750 0.0000  plane waves:   41540
 k-point  14 :  -0.1250 0.2500 0.0000  plane waves:   41540
 k-point  15 :   0.5000 0.1250 0.0000  plane waves:   41540
 k-point  16 :   0.3750 0.5000 0.0000  plane waves:   41540
 k-point  17 :  -0.1250 0.3750 0.0000  plane waves:   41540
 k-point  18 :   0.5000 0.2500 0.0000  plane waves:   41588
 k-point  19 :   0.2500 0.5000 0.0000  plane waves:   41588
 k-point  20 :  -0.3750 0.2500 0.0000  plane waves:   41554
 k-point  21 :  -0.2500 0.3750 0.0000  plane waves:   41554

 maximum and minimum number of plane-waves per node :     41588    41363

 maximum number of plane-waves:     41588
 maximum index in each direction: 
   IXMAX=   16   IYMAX=   16   IZMAX=   44
   IXMIN=  -16   IYMIN=  -16   IZMIN=  -44


 serial   3D FFT for wavefunctions
 parallel 3D FFT for charge:
    minimum data exchange during FFTs selected (reduces bandwidth)


 total amount of memory used by VASP MPI-rank0   197458. kBytes
=======================================================================

   base      :      30000. kBytes
   nonlr-proj:      14349. kBytes
   fftplans  :       4808. kBytes
   grid      :      19857. kBytes
   one-center:        590. kBytes
   wavefun   :     127854. kBytes
 
     INWAV:  cpu time    0.0000: real time    0.0000
 initial charge density was supplied:
 number of electron     405.0000035 magnetization 
 keeping initial charge density in first step


--------------------------------------------------------------------------------------------------------


 Maximum index for non-local projection operator         2820
 Maximum index for augmentation-charges          861 (set IRDMAX)


--------------------------------------------------------------------------------------------------------


 First call to EWALD:  gamma=   0.150
 Maximum number of real-space cells 4x 4x 2
 Maximum number of reciprocal cells 2x 2x 5

    FEWALD:  cpu time    0.0013: real time    0.0013


--------------------------------------- Iteration      1(   1)  ---------------------------------------


    POTLOK:  cpu time    0.0505: real time    0.0509
    SETDIJ:  cpu time    0.0050: real time    0.0051
     EDDAV:  cpu time   16.4169: real time   16.4185
 BZINTS: Fermi energy:   11.065499;  405.000000 electrons
         Band energy: 0.138051E+04;  BLOECHL correction:   -0.025030
       DOS:  cpu time    0.0308: real time    0.0309
    --------------------------------------------
      LOOP:  cpu time   16.5031: real time   16.5054

 eigenvalue-minimisations  : 10584
 total energy-change (2. order) : 0.2743099E+04  (-0.1818392E+05)
 number of electron     405.0000035 magnetization 
 augmentation part      405.0000035 magnetization 

 Free energy of the ion-electron system (eV)
  ---------------------------------------------------
  alpha Z        PSCENC =       943.38112201
  Ewald energy   TEWEN  =    128861.91385563
  -Hartree energ DENC   =   -163489.21267246
  -exchange      EXHF   =         0.00000000
  -V(xc)+E(xc)   XCENC  =       541.21411623
  PAW double counting   =     36679.03682152   -35906.23020094
  entropy T*S    EENTRO =         0.00000000
  eigenvalues    EBANDS =      1380.51447475
  atomic energy  EATOM  =     33732.48122851
  Solvation  Ediel_sol  =         0.00000000
  ---------------------------------------------------
  free energy    TOTEN  =      2743.09874525 eV

  energy without entropy =     2743.09874525  energy(sigma->0) =     2743.09874525


--------------------------------------------------------------------------------------------------------




--------------------------------------- Iteration      1(   2)  ---------------------------------------


     EDDAV:  cpu time   17.9945: real time   17.9948
 BZINTS: Fermi energy:    1.021400;  405.000000 electrons
         Band energy:-0.133396E+04;  BLOECHL correction:   -0.066920
       DOS:  cpu time    0.0282: real time    0.0282
    --------------------------------------------
      LOOP:  cpu time   18.0227: real time   18.0230

 eigenvalue-minimisations  : 11900
 total energy-change (2. order) :-0.2714471E+04  (-0.2533477E+04)
 number of electron     405.0000035 magnetization 
 augmentation part      405.0000035 magnetization 

 Free energy of the ion-electron system (eV)
  ---------------------------------------------------
  alpha Z        PSCENC =       943.38112201
  Ewald energy   TEWEN  =    128861.91385563
  -Hartree energ DENC   =   -163489.21267246
  -exchange      EXHF   =         0.00000000
  -V(xc)+E(xc)   XCENC  =       541.21411623
  PAW double counting   =     36679.03682152   -35906.23020094
  entropy T*S    EENTRO =         0.00000000
  eigenvalues    EBANDS =     -1333.95620555
  atomic energy  EATOM  =     33732.48122851
  Solvation  Ediel_sol  =         0.00000000
  ---------------------------------------------------
  free energy    TOTEN  =        28.62806495 eV

  energy without entropy =       28.62806495  energy(sigma->0) =       28.62806495


--------------------------------------------------------------------------------------------------------




--------------------------------------- Iteration      1(   3)  ---------------------------------------


     EDDAV:  cpu time   18.6248: real time   18.6251
 BZINTS: Fermi energy:    0.243367;  405.000000 electrons
         Band energy:-0.148344E+04;  BLOECHL correction:   -0.057645
       DOS:  cpu time    0.0301: real time    0.0301
    --------------------------------------------
      LOOP:  cpu time   18.6549: real time   18.6552

 eigenvalue-minimisations  : 12376
 total energy-change (2. order) :-0.1494866E+03  (-0.1443862E+03)
 number of electron     405.0000035 magnetization 
 augmentation part      405.0000035 magnetization 

 Free energy of the ion-electron system (eV)
  ---------------------------------------------------
  alpha Z        PSCENC =       943.38112201
  Ewald energy   TEWEN  =    128861.91385563
  -Hartree energ DENC   =   -163489.21267246
  -exchange      EXHF   =         0.00000000
  -V(xc)+E(xc)   XCENC  =       541.21411623
  PAW double counting   =     36679.03682152   -35906.23020094
  entropy T*S    EENTRO =         0.00000000
  eigenvalues    EBANDS =     -1483.44284398
  atomic energy  EATOM  =     33732.48122851
  Solvation  Ediel_sol  =         0.00000000
  ---------------------------------------------------
  free energy    TOTEN  =      -120.85857348 eV

  energy without entropy =     -120.85857348  energy(sigma->0) =     -120.85857348


--------------------------------------------------------------------------------------------------------




--------------------------------------- Iteration      1(   4)  ---------------------------------------


     EDDAV:  cpu time   17.8281: real time   17.8283
 BZINTS: Fermi energy:    0.199463;  405.000000 electrons
         Band energy:-0.148699E+04;  BLOECHL correction:   -0.054844
       DOS:  cpu time    0.0301: real time    0.0301
    --------------------------------------------
      LOOP:  cpu time   17.8582: real time   17.8584

 eigenvalue-minimisations  : 11732
 total energy-change (2. order) :-0.3549780E+01  (-0.3525737E+01)
 number of electron     405.0000035 magnetization 
 augmentation part      405.0000035 magnetization 

 Free energy of the ion-electron system (eV)
  ---------------------------------------------------
  alpha Z        PSCENC =       943.38112201
  Ewald energy   TEWEN  =    128861.91385563
  -Hartree energ DENC   =   -163489.21267246
  -exchange      EXHF   =         0.00000000
  -V(xc)+E(xc)   XCENC  =       541.21411623
  PAW double counting   =     36679.03682152   -35906.23020094
  entropy T*S    EENTRO =         0.00000000
  eigenvalues    EBANDS =     -1486.99262352
  atomic energy  EATOM  =     33732.48122851
  Solvation  Ediel_sol  =         0.00000000
  ---------------------------------------------------
  free energy    TOTEN  =      -124.40835302 eV

  energy without entropy =     -124.40835302  energy(sigma->0) =     -124.40835302


--------------------------------------------------------------------------------------------------------




--------------------------------------- Iteration      1(   5)  ---------------------------------------


     EDDAV:  cpu time   19.5200: real time   19.5201
 BZINTS: Fermi energy:    0.198462;  405.000000 electrons
         Band energy:-0.148710E+04;  BLOECHL correction:   -0.055024
       DOS:  cpu time    0.0308: real time    0.0308
    --------------------------------------------
      LOOP:  cpu time   19.5508: real time   19.5509

 eigenvalue-minimisations  : 13104
 total energy-change (2. order) :-0.1085896E+00  (-0.1083714E+00)
 number of electron     405.0000035 magnetization 
 augmentation part      405.0000035 magnetization 

 Free energy of the ion-electron system (eV)
  ---------------------------------------------------
  alpha Z        PSCENC =       943.38112201
  Ewald energy   TEWEN  =    128861.91385563
  -Hartree energ DENC   =   -163489.21267246
  -exchange      EXHF   =         0.00000000
  -V(xc)+E(xc)   XCENC  =       541.21411623
  PAW double counting   =     36679.03682152   -35906.23020094
  entropy T*S    EENTRO =         0.00000000
  eigenvalues    EBANDS =     -1487.10121317
  atomic energy  EATOM  =     33732.48122851
  Solvation  Ediel_sol  =         0.00000000
  ---------------------------------------------------
  free energy    TOTEN  =      -124.51694267 eV

  energy without entropy =     -124.51694267  energy(sigma->0) =     -124.51694267


--------------------------------------------------------------------------------------------------------




--------------------------------------- Iteration      1(   6)  ---------------------------------------


    EDDIAG:  cpu time    3.2064: real time    3.2069
  RMM-DIIS:  cpu time    9.7081: real time    9.7081
    ORTHCH:  cpu time    0.5863: real time    0.5863
 BZINTS: Fermi energy:    0.198456;  405.000000 electrons
         Band energy:-0.148710E+04;  BLOECHL correction:   -0.055026
       DOS:  cpu time    0.0275: real time    0.0275
    --------------------------------------------
      LOOP:  cpu time   13.5283: real time   13.5288

 eigenvalue-minimisations  : 11140
 total energy-change (2. order) :-0.2383490E-02  (-0.2381183E-02)
 number of electron     405.0000035 magnetization 
 augmentation part      405.0000035 magnetization 

 Free energy of the ion-electron system (eV)
  ---------------------------------------------------
  alpha Z        PSCENC =       943.38112201
  Ewald energy   TEWEN  =    128861.91385563
  -Hartree energ DENC   =   -163489.21267246
  -exchange      EXHF   =         0.00000000
  -V(xc)+E(xc)   XCENC  =       541.21411623
  PAW double counting   =     36679.03682152   -35906.23020094
  entropy T*S    EENTRO =         0.00000000
  eigenvalues    EBANDS =     -1487.10359666
  atomic energy  EATOM  =     33732.48122851
  Solvation  Ediel_sol  =         0.00000000
  ---------------------------------------------------
  free energy    TOTEN  =      -124.51932616 eV

  energy without entropy =     -124.51932616  energy(sigma->0) =     -124.51932616


--------------------------------------------------------------------------------------------------------




--------------------------------------- Iteration      1(   7)  ---------------------------------------


    EDDIAG:  cpu time    3.2129: real time    3.2130
  RMM-DIIS:  cpu time   12.5505: real time   12.5505
    ORTHCH:  cpu time    0.5883: real time    0.5883
 BZINTS: Fermi energy:    0.198454;  405.000000 electrons
         Band energy:-0.148710E+04;  BLOECHL correction:   -0.055027
       DOS:  cpu time    0.0288: real time    0.0288
    --------------------------------------------
      LOOP:  cpu time   16.3805: real time   16.3807

 eigenvalue-minimisations  : 14733
 total energy-change (2. order) :-0.8131054E-03  (-0.8086973E-03)
 number of electron     405.0000035 magnetization 
 augmentation part      405.0000035 magnetization 

 Free energy of the ion-electron system (eV)
  ---------------------------------------------------
  alpha Z        PSCENC =       943.38112201
  Ewald energy   TEWEN  =    128861.91385563
  -Hartree energ DENC   =   -163489.21267246
  -exchange      EXHF   =         0.00000000
  -V(xc)+E(xc)   XCENC  =       541.21411623
  PAW double counting   =     36679.03682152   -35906.23020094
  entropy T*S    EENTRO =         0.00000000
  eigenvalues    EBANDS =     -1487.10440977
  atomic energy  EATOM  =     33732.48122851
  Solvation  Ediel_sol  =         0.00000000
  ---------------------------------------------------
  free energy    TOTEN  =      -124.52013926 eV

  energy without entropy =     -124.52013926  energy(sigma->0) =     -124.52013926


--------------------------------------------------------------------------------------------------------




--------------------------------------- Iteration      1(   8)  ---------------------------------------


    EDDIAG:  cpu time    3.2080: real time    3.2082
  RMM-DIIS:  cpu time   10.6093: real time   10.6093
    ORTHCH:  cpu time    0.5876: real time    0.5877
 BZINTS: Fermi energy:    0.198454;  405.000000 electrons
         Band energy:-0.148710E+04;  BLOECHL correction:   -0.055027
       DOS:  cpu time    0.0295: real time    0.0295
    --------------------------------------------
      LOOP:  cpu time   14.4344: real time   14.4347

 eigenvalue-minimisations  : 11909
 total energy-change (2. order) :-0.5144379E-04  (-0.4764959E-04)
 number of electron     405.0000035 magnetization 
 augmentation part      405.0000035 magnetization 

 Free energy of the ion-electron system (eV)
  ---------------------------------------------------
  alpha Z        PSCENC =       943.38112201
  Ewald energy   TEWEN  =    128861.91385563
  -Hartree energ DENC   =   -163489.21267246
  -exchange      EXHF   =         0.00000000
  -V(xc)+E(xc)   XCENC  =       541.21411623
  PAW double counting   =     36679.03682152   -35906.23020094
  entropy T*S    EENTRO =         0.00000000
  eigenvalues    EBANDS =     -1487.10446121
  atomic energy  EATOM  =     33732.48122851
  Solvation  Ediel_sol  =         0.00000000
  ---------------------------------------------------
  free energy    TOTEN  =      -124.52019071 eV

  energy without entropy =     -124.52019071  energy(sigma->0) =     -124.52019071


--------------------------------------------------------------------------------------------------------




--------------------------------------- Iteration      1(   9)  ---------------------------------------


    EDDIAG:  cpu time    3.2108: real time    3.2110
  RMM-DIIS:  cpu time    8.5996: real time    8.5996
    ORTHCH:  cpu time    0.5871: real time    0.5871
 BZINTS: Fermi energy:    0.198454;  405.000000 electrons
         Band energy:-0.148710E+04;  BLOECHL correction:   -0.055027
       DOS:  cpu time    0.0295: real time    0.0295
    --------------------------------------------
      LOOP:  cpu time   12.4269: real time   12.4272

 eigenvalue-minimisations  :  8836
 total energy-change (2. order) :-0.7965195E-05  (-0.7906968E-05)
 number of electron     405.0000035 magnetization 
 augmentation part      405.0000035 magnetization 

 Free energy of the ion-electron system (eV)
  ---------------------------------------------------
  alpha Z        PSCENC =       943.38112201
  Ewald energy   TEWEN  =    128861.91385563
  -Hartree energ DENC   =   -163489.21267246
  -exchange      EXHF   =         0.00000000
  -V(xc)+E(xc)   XCENC  =       541.21411623
  PAW double counting   =     36679.03682152   -35906.23020094
  entropy T*S    EENTRO =         0.00000000
  eigenvalues    EBANDS =     -1487.10446917
  atomic energy  EATOM  =     33732.48122851
  Solvation  Ediel_sol  =         0.00000000
  ---------------------------------------------------
  free energy    TOTEN  =      -124.52019867 eV

  energy without entropy =     -124.52019867  energy(sigma->0) =     -124.52019867


--------------------------------------------------------------------------------------------------------




 average (electrostatic) potential at core
  the test charge radii are     1.2098  1.2511  0.7215
  (the norm of the test charge is              1.0000)
       1 -72.8679       2 -72.8242       3 -72.8242       4 -72.8284       5 -72.8368
       6 -72.8281       7 -72.8237       8 -72.8234       9 -72.8377      10 -73.1979
      11 -73.1431      12 -73.1978      13 -73.1447      14 -73.1444      15 -73.1826
      16 -73.1945      17 -73.1773      18 -73.1775      19 -73.0964      20 -73.2418
      21 -73.2418      22 -73.1498      23 -73.2357      24 -73.1496      25 -73.1063
      26 -73.1062      27 -73.1378      28 -72.7331      29 -72.7725      30 -72.7726
      31 -72.7779      32 -72.7778      33 -72.7585      34 -72.7583      35 -72.7157
      36 -68.1350      37 -77.1295      38 -77.1294
 
 
 
 E-fermi :   0.1985     XC(G=0):  -5.6640     alpha+bet : -5.3365

 Fermi energy:         0.1984541837

 k-point     1 :       0.0000    0.0000    0.0000
  band No.  band energies     occupation 
      1     -23.7722      2.00000
      2     -14.9193      2.00000
      3      -8.6275      2.00000
      4      -7.5500      2.00000
      5      -7.0744      2.00000
      6      -6.6741      2.00000
      7      -6.4902      2.00000
      8      -6.4746      2.00000
      9      -6.4670      2.00000
     10      -6.4466      2.00000
     11      -6.4379      2.00000
     12      -6.4357      2.00000
     13      -6.3886      2.00000
     14      -6.2187      2.00000
     15      -5.9885      2.00000
     16      -5.9811      2.00000
     17      -5.9735      2.00000
     18      -5.9468      2.00000
     19      -5.9433      2.00000
     20      -5.9347      2.00000
     21      -5.9030      2.00000
     22      -5.5984      2.00000
     23      -5.5923      2.00000
     24      -5.5840      2.00000
     25      -5.5747      2.00000
     26      -5.5654      2.00000
     27      -5.5549      2.00000
     28      -5.4116      2.00000
     29      -5.4105      2.00000
     30      -5.3988      2.00000
     31      -5.3924      2.00000
     32      -5.3785      2.00000
     33      -5.3367      2.00000
     34      -5.2581      2.00000
     35      -5.2536      2.00000
     36      -5.2472      2.00000
     37      -5.2408      2.00000
     38      -5.2319      2.00000
     39      -5.2120      2.00000
     40      -5.2052      2.00000
     41      -5.2050      2.00000
     42      -5.1855      2.00000
     43      -5.1513      2.00000
     44      -5.1142      2.00000
     45      -5.0231      2.00000
     46      -4.7455      2.00000
     47      -4.7423      2.00000
     48      -4.7042      2.00000
     49      -4.6963      2.00000
     50      -4.6766      2.00000
     51      -4.6736      2.00000
     52      -4.6717      2.00000
     53      -4.6530      2.00000
     54      -4.6438      2.00000
     55      -4.6224      2.00000
     56      -4.5910      2.00000
     57      -4.5785      2.00000
     58      -4.5072      2.00000
     59      -4.4858      2.00000
     60      -4.1554      2.00000
     61      -4.1502      2.00000
     62      -4.1490      2.00000
     63      -4.1268      2.00000
     64      -4.1265      2.00000
     65      -4.1200      2.00000
     66      -4.1017      2.00000
     67      -4.0897      2.00000
     68      -4.0871      2.00000
     69      -4.0317      2.00000
     70      -4.0260      2.00000
     71      -3.9832      2.00000
     72      -3.9798      2.00000
     73      -3.9751      2.00000
     74      -3.9132      2.00000
     75      -3.9118      2.00000
     76      -3.9062      2.00000
     77      -3.8925      2.00000
     78      -3.8833      2.00000
     79      -3.8817      2.00000
     80      -3.8809      2.00000
     81      -3.8745      2.00000
     82      -3.8619      2.00000
     83      -3.8611      2.00000
     84      -3.8599      2.00000
     85      -3.8174      2.00000
     86      -3.8052      2.00000
     87      -3.8009      2.00000
     88      -3.7965      2.00000
     89      -3.7679      2.00000
     90      -3.7546      2.00000
     91      -3.7504      2.00000
     92      -3.7430      2.00000
     93      -3.7429      2.00000
     94      -3.6626      2.00000
     95      -3.6621      2.00000
     96      -3.5711      2.00000
     97      -3.5231      2.00000
     98      -3.5198      2.00000
     99      -3.4739      2.00000
    100      -3.4735      2.00000
    101      -3.4652      2.00000
    102      -3.4648      2.00000
    103      -3.3208      2.00000
    104      -3.2915      2.00000
    105      -3.2826      2.00000
    106      -3.2703      2.00000
    107      -3.2563      2.00000
    108      -3.2417      2.00000
    109      -3.2024      2.00000
    110      -3.1655      2.00000
    111      -3.1237      2.00000
    112      -3.0937      2.00000
    113      -3.0786      2.00000
    114      -3.0583      2.00000
    115      -3.0574      2.00000
    116      -3.0357      2.00000
    117      -3.0240      2.00000
    118      -3.0000      2.00000
    119      -2.9583      2.00000
    120      -2.9472      2.00000
    121      -2.8704      2.00000
    122      -2.8170      2.00000
    123      -2.7776      2.00000
    124      -2.7742      2.00000
    125      -2.7497      2.00000
    126      -2.7456      2.00000
    127      -2.7268      2.00000
    128      -2.7134      2.00000
    129      -2.6998      2.00000
    130      -2.6948      2.00000
    131      -2.6530      2.00000
    132      -2.6279      2.00000
    133      -2.6113      2.00000
    134      -2.5234      2.00000
    135      -2.5206      2.00000
    136      -2.5194      2.00000
    137      -2.5045      2.00000
    138      -2.5032      2.00000
    139      -2.5020      2.00000
    140      -2.4964      2.00000
    141      -2.4786      2.00000
    142      -2.4710      2.00000
    143      -2.4313      2.00000
    144      -2.4089      2.00000
    145      -2.3559      2.00000
    146      -2.3396      2.00000
    147      -2.2619      2.00000
    148      -2.2556      2.00000
    149      -2.2470      2.00000
    150      -2.2428      2.00000
    151      -2.2285      2.00000
    152      -2.2282      2.00000
    153      -2.2201      2.00000
    154      -2.2087      2.00000
    155      -2.1965      2.00000
    156      -2.1838      2.00000
    157      -2.1811      2.00000
    158      -2.1717      2.00000
    159      -2.1142      2.00000
    160      -2.0805      2.00000
    161      -2.0624      2.00000
    162      -2.0549      2.00000
    163      -2.0525      2.00000
    164      -2.0518      2.00000
    165      -2.0379      2.00000
    166      -2.0332      2.00000
    167      -2.0258      2.00000
    168      -1.9939      2.00000
    169      -1.9890      2.00000
    170      -1.9817      2.00000
    171      -1.9809      2.00000
    172      -1.9642      2.00000
    173      -1.9579      2.00000
    174      -1.9380      2.00000
    175      -1.9356      2.00000
    176      -1.9337      2.00000
    177      -1.9318      2.00000
    178      -1.9316      2.00000
    179      -1.9084      2.00000
    180      -1.9054      2.00000
    181      -1.8883      2.00000
    182      -1.8686      2.00000
    183      -1.8615      2.00000
    184      -1.8379      2.00000
    185      -1.8335      2.00000
    186      -1.8290      2.00000
    187      -1.8142      2.00000
    188      -1.7672      2.00000
    189      -1.7439      2.00000
    190      -1.6925      2.00000
    191      -1.6721      2.00000
    192      -1.6562      2.00000
    193      -1.6259      2.00000
    194      -1.6175      2.00000
    195      -1.6107      2.00000
    196      -1.5974      2.00000
    197      -0.8818      2.00000
    198      -0.7800      2.00000
    199      -0.6953      2.00000
    200      -0.4757      2.00000
    201      -0.3743      2.00000
    202      -0.3485      2.00000
    203      -0.2950      2.00000
    204      -0.2827      2.00000
    205      -0.2294      2.00000
    206      -0.1741      2.00000
    207       0.1762      1.25046
    208       0.5645      0.00000
    209       1.0329      0.00000
    210       1.2667      0.00000
    211       1.7780      0.00000
    212       1.8344      0.00000
    213       1.8775      0.00000
    214       1.9563      0.00000
    215       1.9672      0.00000
    216       2.7800      0.00000
    217       2.9925      0.00000
    218       2.9959      0.00000
    219       3.0351      0.00000
    220       3.0656      0.00000
    221       3.1449      0.00000
    222       3.2204      0.00000
    223       3.6062      0.00000
    224       4.3341      0.00000
    225       4.7244      0.00000
    226       4.8592      0.00000
    227       4.9027      0.00000
    228       4.9099      0.00000
    229       4.9318      0.00000
    230       4.9804      0.00000
    231       5.0486      0.00000
    232       5.0495      0.00000
    233       5.0850      0.00000
    234       5.1336      0.00000
    235       5.3084      0.00000
    236       5.3511      0.00000
    237       5.5921      0.00000
    238       6.1111      0.00000
    239       6.1482      0.00000
    240       6.2705      0.00000
    241       6.3289      0.00000
    242       6.5882      0.00000
    243       6.6081      0.00000
    244       6.6218      0.00000
    245       6.6325      0.00000
    246       6.7035      0.00000
    247       6.7111      0.00000
    248       6.7686      0.00000
    249       6.7741      0.00000
    250       6.8167      0.00000
    251       6.8566      0.00000
    252       6.9727      0.00000

 k-point     2 :       0.1250    0.0000    0.0000
  band No.  band energies     occupation 
      1     -23.7722      2.00000
      2     -14.9195      2.00000
      3      -8.5766      2.00000
      4      -7.5094      2.00000
      5      -7.0574      2.00000
      6      -6.7406      2.00000
      7      -6.6302      2.00000
      8      -6.5294      2.00000
      9      -6.4960      2.00000
     10      -6.4380      2.00000
     11      -6.3401      2.00000
     12      -6.3355      2.00000
     13      -6.3031      2.00000
     14      -6.1880      2.00000
     15      -6.0131      2.00000
     16      -5.9862      2.00000
     17      -5.9611      2.00000
     18      -5.9530      2.00000
     19      -5.9384      2.00000
     20      -5.8988      2.00000
     21      -5.8804      2.00000
     22      -5.6453      2.00000
     23      -5.5910      2.00000
     24      -5.5885      2.00000
     25      -5.5480      2.00000
     26      -5.5330      2.00000
     27      -5.5256      2.00000
     28      -5.4813      2.00000
     29      -5.4234      2.00000
     30      -5.4094      2.00000
     31      -5.3646      2.00000
     32      -5.3600      2.00000
     33      -5.3139      2.00000
     34      -5.3053      2.00000
     35      -5.2968      2.00000
     36      -5.2895      2.00000
     37      -5.2728      2.00000
     38      -5.2283      2.00000
     39      -5.1843      2.00000
     40      -5.1712      2.00000
     41      -5.1118      2.00000
     42      -5.1100      2.00000
     43      -5.0982      2.00000
     44      -5.0721      2.00000
     45      -4.9985      2.00000
     46      -4.8087      2.00000
     47      -4.8068      2.00000
     48      -4.7637      2.00000
     49      -4.7393      2.00000
     50      -4.7190      2.00000
     51      -4.7099      2.00000
     52      -4.6942      2.00000
     53      -4.6205      2.00000
     54      -4.6035      2.00000
     55      -4.5678      2.00000
     56      -4.5410      2.00000
     57      -4.5380      2.00000
     58      -4.5021      2.00000
     59      -4.4876      2.00000
     60      -4.2048      2.00000
     61      -4.1835      2.00000
     62      -4.1764      2.00000
     63      -4.1623      2.00000
     64      -4.1565      2.00000
     65      -4.1385      2.00000
     66      -4.1278      2.00000
     67      -4.1154      2.00000
     68      -4.1075      2.00000
     69      -4.0694      2.00000
     70      -4.0609      2.00000
     71      -4.0480      2.00000
     72      -4.0366      2.00000
     73      -4.0097      2.00000
     74      -4.0015      2.00000
[...]
  0.000   0.000   0.000   0.000   0.000   0.000   0.000   0.000   0.000   0.000   0.000   0.000   0.000   0.000   0.000   0.000
  0.000   0.000   0.000   0.000   0.000   0.000   0.000   0.000   0.000   0.000   0.000   0.000   0.000   0.000   0.000   0.000
  0.000   0.000   0.000   0.000   0.000   0.000   0.000   0.000   0.000   0.000   1.000   0.000   0.000   0.000   0.000   0.000
  0.000   0.000   0.000   0.000   0.000   0.000   0.000   0.000   0.000   0.000   0.000   0.000   0.000   0.000   0.000   0.000
  0.000   0.000   0.000   0.000   0.000   0.000   0.000   0.000   0.000   0.000   0.000   0.000   0.000   0.000   0.000   0.000
  0.000   0.000   0.000   0.000   0.000   0.000   0.000   0.000   0.000   0.000   0.000   0.000   0.000   0.000   0.000   0.000
  0.000   0.000   0.000   0.000   0.000   0.000   0.000   0.000   0.000   0.000   0.000   0.000   0.000   0.000   0.000   0.000
  0.000   0.000   0.000   0.000   0.000   0.000   0.000   0.000   0.000   0.000   0.000   0.000   0.000   0.000   0.000   0.000
  0.000   0.000   0.000   0.000   0.000   0.000   0.000   0.000   0.000   0.000   0.000   0.000   0.000   0.000   0.000   0.000
  0.000   0.000   0.000   0.000   0.000   0.000   0.000   0.000   0.000   0.000   0.000   0.000   0.000   0.000   0.000   0.000


------------------------ aborting loop because EDIFF is reached ----------------------------------------





 total charge

# of ion       s       p       d       tot
------------------------------------------
    1        0.546   0.238   8.768   9.553
    2        0.544   0.241   8.766   9.550
    3        0.544   0.241   8.766   9.550
    4        0.545   0.241   8.764   9.550
    5        0.543   0.242   8.761   9.546
    6        0.545   0.241   8.764   9.550
    7        0.545   0.241   8.765   9.550
    8        0.545   0.241   8.765   9.550
    9        0.541   0.240   8.769   9.549
   10        0.523   0.309   8.770   9.601
   11        0.522   0.308   8.781   9.611
   12        0.523   0.309   8.770   9.601
   13        0.521   0.308   8.779   9.608
   14        0.521   0.308   8.779   9.608
   15        0.515   0.309   8.776   9.600
   16        0.521   0.311   8.768   9.600
   17        0.514   0.310   8.778   9.602
   18        0.514   0.310   8.778   9.602
   19        0.514   0.301   8.779   9.594
   20        0.549   0.330   8.751   9.630
   21        0.549   0.330   8.751   9.630
   22        0.509   0.311   8.775   9.594
   23        0.544   0.338   8.747   9.628
   24        0.509   0.311   8.775   9.594
   25        0.516   0.303   8.775   9.594
   26        0.516   0.303   8.775   9.594
   27        0.509   0.309   8.778   9.595
   28        0.542   0.226   8.769   9.537
   29        0.548   0.238   8.761   9.548
   30        0.548   0.238   8.761   9.548
   31        0.540   0.241   8.770   9.551
   32        0.540   0.241   8.770   9.551
   33        0.547   0.238   8.764   9.549
   34        0.547   0.238   8.764   9.549
   35        0.537   0.226   8.769   9.533
   36        0.458   0.579   6.487   7.524
   37        1.610   3.245   0.000   4.855
   38        1.610   3.245   0.000   4.855
--------------------------------------------------
tot         22.314  16.737 313.386 352.437
 
    CHARGE:  cpu time    0.7913: real time    0.7914
    FORLOC:  cpu time    0.0114: real time    0.0114
    FORNL :  cpu time    3.3232: real time    3.3234
    STRESS:  cpu time    9.9719: real time    9.9722
    FORCOR:  cpu time    0.0498: real time    0.0499
    FORHAR:  cpu time    0.0185: real time    0.0185
    OFIELD:  cpu time    0.0003: real time    0.0003

  FORCE on cell =-STRESS in cart. coord.  units (eV):
  Direction    XX          YY          ZZ          XY          YZ          ZX
  --------------------------------------------------------------------------------------
  Alpha Z   943.38112   943.38112   943.38112
  Ewald  151837.55765151430.24238************    -0.00031     0.29960    -0.00010
  Hartree160336.84514160142.28011************     0.00001     0.11808    -0.00003
  E(xc)   -1823.83951 -1825.10573 -1831.12621     0.00000    -0.07699    -0.00000
  Local  ************************324130.89992     0.00272    -0.98032    -0.00003
  n-local   -89.68268   -95.77530   -67.25341     4.86131     0.59491     0.17799
  augment  2422.09286  2429.10850  2437.53572    -0.00137     0.19922     0.00002
  Kinetic  5678.06032  5728.56102  5745.09932     1.35134     0.15587     0.09970
  Fock        0.00000     0.00000     0.00000     0.00000     0.00000     0.00000
  -------------------------------------------------------------------------------------
  Total     -17.76629   -20.25431     1.99673    -0.00000     0.31037     0.00000
  in kB     -17.40335   -19.84054     1.95594    -0.00000     0.30403     0.00000
  external pressure =      -11.76 kB  Pullay stress =        0.00 kB


 VOLUME and BASIS-vectors are now :
 -----------------------------------------------------------------------------
  energy-cutoff  :      500.00
  volume of cell :     1635.59
      direct lattice vectors                 reciprocal lattice vectors
     8.813512802  0.000000000  0.000000000     0.113462137 -0.065507406  0.000000000
     4.406756909  7.632725690  0.000000000     0.000000000  0.131014796  0.000000000
     0.000000000  0.000000000 24.313408842     0.000000000  0.000000000  0.041129568

  length of vectors
     8.813512802  8.813512802 24.313408842     0.131014796  0.131014796  0.041129568


 FORCES acting on ions
    electron-ion (+dipol)            ewald-force                    non-local-force                 convergence-correction
 -----------------------------------------------------------------------------------------------
   -.199E-04 0.192E-01 0.268E+04   0.519E-04 -.244E-01 -.268E+04   0.712E-09 0.107E-01 -.945E+00   -.181E-03 -.670E-02 -.408E+00
   0.510E+00 0.414E+00 0.268E+04   -.545E+00 -.485E+00 -.268E+04   0.644E-02 0.555E-01 -.275E+00   0.331E-01 0.334E-01 -.508E+00
   -.510E+00 0.414E+00 0.268E+04   0.545E+00 -.485E+00 -.268E+04   -.644E-02 0.555E-01 -.275E+00   -.329E-01 0.354E-01 -.508E+00
   0.485E+00 0.178E+00 0.268E+04   -.672E+00 -.240E+00 -.268E+04   0.115E+00 -.131E-01 -.279E+00   0.677E-01 0.630E-01 -.420E+00
   0.803E-05 -.102E+00 0.268E+04   0.951E-04 0.136E-02 -.268E+04   0.224E-08 0.336E-01 -.183E+00   0.424E-02 0.707E-01 -.417E+00
   -.485E+00 0.178E+00 0.268E+04   0.672E+00 -.241E+00 -.268E+04   -.115E+00 -.131E-01 -.279E+00   -.692E-01 0.639E-01 -.419E+00
   0.134E+00 -.560E+00 0.268E+04   -.126E+00 0.725E+00 -.268E+04   0.574E-02 -.657E-01 -.299E+00   0.121E-01 -.103E+00 -.483E+00
   -.134E+00 -.560E+00 0.268E+04   0.126E+00 0.725E+00 -.268E+04   -.574E-02 -.657E-01 -.299E+00   -.102E-01 -.104E+00 -.483E+00
   0.196E-04 0.491E-01 0.268E+04   0.166E-03 0.231E-01 -.268E+04   -.167E-08 -.250E-01 -.546E+00   -.461E-02 -.569E-01 -.438E+00
   0.554E+01 0.319E+01 0.943E+03   -.511E+01 -.314E+01 -.943E+03   -.391E+00 -.137E+00 -.711E+00   -.843E-02 0.981E-01 0.278E+00
   0.172E-04 0.580E+01 0.950E+03   0.148E-03 -.598E+01 -.950E+03   0.936E-09 0.141E-01 -.351E+00   0.364E-02 0.821E-01 0.391E+00
   -.554E+01 0.319E+01 0.943E+03   0.511E+01 -.314E+01 -.943E+03   0.391E+00 -.137E+00 -.711E+00   0.731E-02 0.992E-01 0.277E+00
   0.486E+01 -.295E+01 0.951E+03   -.501E+01 0.303E+01 -.951E+03   0.684E-01 -.531E-01 -.307E+00   0.241E-01 -.140E-01 0.310E+00
   -.486E+01 -.295E+01 0.951E+03   0.501E+01 0.303E+01 -.951E+03   -.684E-01 -.531E-01 -.307E+00   -.167E-01 -.145E-01 0.309E+00
   0.311E-04 0.243E+01 0.945E+03   0.236E-03 -.248E+01 -.945E+03   0.331E-09 0.497E-02 -.597E+00   -.208E-02 0.238E-01 0.228E+00
   -.218E-04 -.634E+01 0.943E+03   0.163E-03 0.594E+01 -.943E+03   0.293E-07 0.440E+00 -.813E+00   0.373E-04 -.794E-01 0.225E+00
   0.225E+01 -.121E+01 0.944E+03   -.225E+01 0.136E+01 -.944E+03   -.335E-01 -.401E-01 -.479E+00   0.151E-01 -.917E-01 0.273E+00
   -.225E+01 -.121E+01 0.944E+03   0.225E+01 0.136E+01 -.944E+03   0.335E-01 -.401E-01 -.479E+00   -.151E-01 -.901E-01 0.273E+00
   -.408E-04 0.403E+01 -.830E+03   0.529E-04 -.432E+01 0.829E+03   0.572E-08 0.859E-01 0.760E+00   0.346E-02 0.158E+00 0.106E+01
   0.187E+02 0.121E+02 -.781E+03   -.183E+02 -.118E+02 0.780E+03   -.973E+00 -.648E+00 -.102E+01   0.510E+00 0.235E+00 0.177E+01
   -.187E+02 0.121E+02 -.781E+03   0.183E+02 -.118E+02 0.780E+03   0.973E+00 -.648E+00 -.102E+01   -.511E+00 0.236E+00 0.177E+01
   0.423E+01 -.367E+01 -.817E+03   -.462E+01 0.395E+01 0.816E+03   0.302E+00 -.208E+00 0.647E+00   0.154E+00 -.102E+00 0.118E+01
   -.682E-05 -.234E+02 -.783E+03   0.143E-03 0.228E+02 0.782E+03   0.729E-07 0.109E+01 -.784E+00   0.234E-03 -.600E+00 0.185E+01
   -.423E+01 -.367E+01 -.817E+03   0.462E+01 0.395E+01 0.816E+03   -.302E+00 -.208E+00 0.647E+00   -.155E+00 -.101E+00 0.118E+01
   -.292E+01 -.112E+01 -.832E+03   0.315E+01 0.123E+01 0.830E+03   -.506E-01 -.341E-01 0.652E+00   -.163E+00 -.603E-01 0.114E+01
   0.292E+01 -.112E+01 -.832E+03   -.315E+01 0.123E+01 0.830E+03   0.506E-01 -.341E-01 0.652E+00   0.170E+00 -.602E-01 0.114E+01
   0.116E-04 0.467E+01 -.819E+03   0.198E-03 -.545E+01 0.817E+03   0.374E-07 0.562E+00 0.709E+00   -.175E-02 0.262E+00 0.125E+01
   -.148E-04 0.512E+01 -.259E+04   0.301E-04 -.499E+01 0.259E+04   -.431E-08 -.647E-01 0.481E+00   0.288E-03 -.689E-01 0.109E+01
   0.394E+02 0.813E+02 -.254E+04   -.395E+02 -.819E+02 0.254E+04   -.536E+00 -.435E+00 0.698E+00   0.507E+00 0.730E+00 0.107E+01
   -.394E+02 0.813E+02 -.254E+04   0.395E+02 -.819E+02 0.254E+04   0.536E+00 -.435E+00 0.698E+00   -.507E+00 0.731E+00 0.108E+01
   0.993E+02 0.152E+00 -.253E+04   -.101E+03 -.650E-01 0.252E+04   -.317E+00 -.767E-01 0.970E+00   0.104E+01 0.177E-01 0.105E+01
   -.993E+02 0.152E+00 -.253E+04   0.101E+03 -.651E-01 0.252E+04   0.317E+00 -.767E-01 0.970E+00   -.104E+01 0.189E-01 0.105E+01
   0.384E+02 -.811E+02 -.254E+04   -.386E+02 0.817E+02 0.254E+04   -.403E+00 0.491E+00 0.693E+00   0.433E+00 -.779E+00 0.107E+01
   -.384E+02 -.811E+02 -.254E+04   0.386E+02 0.817E+02 0.254E+04   0.403E+00 0.491E+00 0.693E+00   -.431E+00 -.780E+00 0.107E+01
   0.317E-04 -.504E+01 -.259E+04   0.142E-03 0.477E+01 0.259E+04   0.946E-08 0.142E+00 0.592E+00   -.455E-02 0.116E+00 0.971E+00
   -.153E-05 -.761E+00 -.153E+04   0.824E-04 0.728E+00 0.153E+04   0.113E-07 0.170E+00 -.172E-01   0.159E-02 0.128E-01 0.116E+01
   0.228E+03 -.585E-01 -.172E+04   -.267E+03 0.873E-01 0.173E+04   0.389E+02 -.657E-01 -.160E+02   0.653E+00 0.341E-01 -.446E+00
   -.228E+03 -.585E-01 -.172E+04   0.267E+03 0.873E-01 0.173E+04   -.389E+02 -.657E-01 -.160E+02   -.653E+00 0.342E-01 -.446E+00
 -----------------------------------------------------------------------------------------------
   -.437E-03 -.286E-01 0.139E+02   0.000E+00 0.239E-12 0.477E-11   0.482E-09 0.724E-02 -.332E+02   0.145E-01 0.460E-01 0.196E+02
 
 
 POSITION                                       TOTAL-FORCE (eV/Angst)
 -----------------------------------------------------------------------------------
      0.00000      0.00000      5.28038        -0.000000     -0.001875     -0.087050
      2.93784      0.00000      5.28038         0.004922      0.018870     -0.018186
      5.87568      0.00000      5.28038        -0.004922      0.018870     -0.018186
      1.46892      2.54424      5.28038        -0.003385     -0.012938     -0.034131
      4.40676      2.54424      5.28038         0.000000      0.003169     -0.057823
      7.34459      2.54424      5.28038         0.003385     -0.012938     -0.034131
      2.93784      5.08848      5.28038         0.025212     -0.003656     -0.027006
      5.87568      5.08848      5.28038        -0.025212     -0.003656     -0.027006
      8.81351      5.08848      5.28038        -0.000000     -0.010395     -0.046575
      1.46892      0.84808      7.67911         0.027819      0.013085      0.073104
      4.40676      0.84808      7.67911        -0.000000     -0.091142     -0.047543
      7.34459      0.84808      7.67911        -0.027819      0.013085      0.073104
      2.93784      3.39232      7.67911        -0.059710      0.019678     -0.013635
      5.87568      3.39232      7.67911         0.059710      0.019678     -0.013635
      8.81351      3.39232      7.67911        -0.000000     -0.016811      0.073300
      4.40676      5.93656      7.67911        -0.000000     -0.039586      0.103855
      7.34459      5.93656      7.67911        -0.021150      0.021980      0.060072
     10.28243      5.93656      7.67911         0.021150      0.021980      0.060072
      8.81351      1.69681     10.07567        -0.000000     -0.053490     -0.013254
      2.94232      1.69875     10.04120        -0.052852     -0.024131     -0.127784
      5.87120      1.69875     10.04120         0.052852     -0.024131     -0.127784
     10.26751      4.24902     10.06295         0.068764     -0.028084      0.031297
      4.40676      4.23523     10.04120        -0.000000     -0.025392     -0.117020
      7.35952      4.24902     10.06295        -0.068764     -0.028084      0.031297
     11.75079      6.78432     10.07567         0.007581      0.015824      0.011863
      5.87624      6.78432     10.07567        -0.007581      0.015824      0.011863
      8.81351      6.76742     10.06295         0.000000      0.040174      0.029727
      0.00000      0.00000     12.49459        -0.000000     -0.007705     -0.038415
      2.96623      0.05046     12.47837        -0.151990     -0.360087     -0.194729
      5.84728      0.05046     12.47837         0.151990     -0.360087     -0.194729
      1.52682      2.54360     12.47837        -0.779812      0.027926     -0.401579
      7.28669      2.54360     12.47837         0.779812      0.027926     -0.401579
      2.96734      5.03866     12.47837        -0.195720      0.345817     -0.149161
      5.84617      5.03866     12.47837         0.195720      0.345817     -0.149161
      8.81351      5.08848     12.49555        -0.000000     -0.008098      0.012810
      4.40676      2.54424     12.24198         0.000000      0.149392      1.818616
      3.72544      2.53949     14.16394         0.039224     -0.003405     -0.025438
      5.08808      2.53949     14.16394        -0.039224     -0.003405     -0.025438
 -----------------------------------------------------------------------------------
    total drift:                                0.014091      0.024645      0.265129


--------------------------------------------------------------------------------------------------------



  FREE ENERGIE OF THE ION-ELECTRON SYSTEM (eV)
  ---------------------------------------------------
  free  energy   TOTEN  =      -124.52019867 eV

  energy  without entropy=     -124.52019867  energy(sigma->0) =     -124.52019867
 


--------------------------------------------------------------------------------------------------------


    POTLOK:  cpu time    0.0467: real time    0.0467


--------------------------------------------------------------------------------------------------------


 stress matrix after NEB project (eV)
    -17.76629     -0.00000      0.00000
     -0.00000    -20.25431      0.31037
      0.00000      0.31037      1.99673
  FORCES: max atom, RMS     0.046874    0.010754
  FORCE total and by dimension    0.066290    0.039224
  Stress total and by dimension   27.019585   20.254312
     LOOP+:  cpu time  161.6567: real time  161.6694
 -----------------------------------------------------------------------------
|                                                                             |
|           W    W    AA    RRRRR   N    N  II  N    N   GGGG   !!!           |
|           W    W   A  A   R    R  NN   N  II  NN   N  G    G  !!!           |
|           W    W  A    A  R    R  N N  N  II  N N  N  G       !!!           |
|           W WW W  AAAAAA  RRRRR   N  N N  II  N  N N  G  GGG   !            |
|           WW  WW  A    A  R   R   N   NN  II  N   NN  G    G                |
|           W    W  A    A  R    R  N    N  II  N    N   GGGG   !!!           |
|                                                                             |
|     Tetrahedron method does not include variations of the Fermi             |
|     occupations, so forces and stress will be inaccurate. We suggest        |
|     using a different smearing scheme ISMEAR = 1 or 2 for metals in         |
|     relaxations.                                                            |
|                                                                             |
 -----------------------------------------------------------------------------

    4ORBIT:  cpu time    0.0000: real time    0.0000



 total charge

# of ion       s       p       d       tot
------------------------------------------
    1        0.546   0.238   8.768   9.553
    2        0.544   0.241   8.766   9.550
    3        0.544   0.241   8.766   9.550
    4        0.545   0.241   8.764   9.550
    5        0.543   0.242   8.761   9.546
    6        0.545   0.241   8.764   9.550
    7        0.545   0.241   8.765   9.550
    8        0.545   0.241   8.765   9.550
    9        0.541   0.240   8.769   9.549
   10        0.523   0.309   8.770   9.601
   11        0.522   0.308   8.781   9.611
   12        0.523   0.309   8.770   9.601
   13        0.521   0.308   8.779   9.608
   14        0.521   0.308   8.779   9.608
   15        0.515   0.309   8.776   9.600
   16        0.521   0.311   8.768   9.600
   17        0.514   0.310   8.778   9.602
   18        0.514   0.310   8.778   9.602
   19        0.514   0.301   8.779   9.594
   20        0.549   0.330   8.751   9.630
   21        0.549   0.330   8.751   9.630
   22        0.509   0.311   8.775   9.594
   23        0.544   0.338   8.747   9.628
   24        0.509   0.311   8.775   9.594
   25        0.516   0.303   8.775   9.594
   26        0.516   0.303   8.775   9.594
   27        0.509   0.309   8.778   9.595
   28        0.542   0.226   8.769   9.537
   29        0.548   0.238   8.761   9.548
   30        0.548   0.238   8.761   9.548
   31        0.540   0.241   8.770   9.551
   32        0.540   0.241   8.770   9.551
   33        0.547   0.238   8.764   9.549
   34        0.547   0.238   8.764   9.549
   35        0.537   0.226   8.769   9.533
   36        0.458   0.579   6.487   7.524
   37        1.610   3.245   0.000   4.855
   38        1.610   3.245   0.000   4.855
--------------------------------------------------
tot         22.314  16.737 313.386 352.437
 
 BZINTS: Fermi energy:    0.198454;  405.000000 electrons
         Band energy:-0.148710E+04;  BLOECHL correction:   -0.055027

 total amount of memory used by VASP MPI-rank0   197458. kBytes
=======================================================================

   base      :      30000. kBytes
   nonlr-proj:      14349. kBytes
   fftplans  :       4808. kBytes
   grid      :      19857. kBytes
   one-center:        590. kBytes
   wavefun   :     127854. kBytes
 
  
  
 General timing and accounting informations for this job:
 ========================================================
  
                  Total CPU time used (sec):      176.354
                            User time (sec):      170.357
                          System time (sec):        5.997
                         Elapsed time (sec):      176.798
  
                   Maximum memory used (kb):      481420.
                   Average memory used (kb):          N/A
  
                          Minor page faults:        96271
                          Major page faults:            0
                 Voluntary context switches:         5868
