PROCAR new format
# of k-points:   10         # of bands:  252         # of ions:   36

 k-point     1 :    0.00000000 0.00000000 0.00000000     weight = 0.01562500

band     1 # energy   -8.74285028 # occ.  2.00000000
 
ion      s      p      d    tot
    1  0.007  0.001  0.000  0.007
    2  0.007  0.001  0.000  0.007
    3  0.007  0.001  0.000  0.007
    4  0.007  0.001  0.000  0.007
    5  0.007  0.001  0.000  0.007
    6  0.007  0.001  0.000  0.007
    7  0.007  0.001  0.000  0.007
    8  0.007  0.001  0.000  0.007
    9  0.007  0.001  0.000  0.007
   10  0.024  0.000  0.000  0.024
   11  0.025  0.000  0.000  0.025
   12  0.024  0.000  0.000  0.024
   13  0.025  0.000  0.000  0.025
   14  0.025  0.000  0.000  0.025
   15  0.024  0.000  0.000  0.024
   16  0.024  0.000  0.000  0.024
   17  0.024  0.000  0.000  0.024
   18  0.024  0.000  0.000  0.024
   19  0.024  0.000  0.000  0.024
   20  0.025  0.000  0.000  0.026
   21  0.025  0.000  0.000  0.026
   22  0.024  0.000  0.000  0.024
   23  0.025  0.000  0.000  0.026
   24  0.024  0.000  0.000  0.024
   25  0.024  0.000  0.000  0.024
   26  0.024  0.000  0.000  0.024
   27  0.024  0.000  0.000  0.024
   28  0.007  0.001  0.000  0.008
   29  0.007  0.001  0.000  0.008
   30  0.007  0.001  0.000  0.008
   31  0.007  0.001  0.000  0.008
   32  0.007  0.001  0.000  0.008
   33  0.007  0.001  0.000  0.008
   34  0.007  0.001  0.000  0.008
   35  0.007  0.001  0.000  0.007
   36  0.014  0.001  0.000  0.016
tot    0.568  0.016  0.001  0.585
 
band     2 # energy   -7.48023749 # occ.  2.00000000
 
ion      s      p      d    tot
    1  0.018  0.001  0.000  0.019
    2  0.017  0.001  0.000  0.019
    3  0.017  0.001  0.000  0.019
    4  0.017  0.001  0.000  0.019
    5  0.017  0.001  0.000  0.019
    6  0.017  0.001  0.000  0.019
    7  0.017  0.001  0.000  0.019
    8  0.017  0.001  0.000  0.019
    9  0.018  0.001  0.000  0.019
   10  0.010  0.002  0.001  0.013
   11  0.010  0.002  0.001  0.013
   12  0.010  0.002  0.001  0.013
   13  0.010  0.002  0.001  0.013
   14  0.010  0.002  0.001  0.013
   15  0.010  0.002  0.001  0.013
   16  0.010  0.002  0.001  0.013
   17  0.010  0.002  0.001  0.013
   18  0.010  0.002  0.001  0.013
   19  0.009  0.002  0.000  0.012
   20  0.009  0.002  0.000  0.012
   21  0.009  0.002  0.000  0.012
   22  0.009  0.002  0.000  0.012
   23  0.009  0.002  0.000  0.012
   24  0.009  0.002  0.000  0.012
   25  0.009  0.002  0.000  0.012
   26  0.009  0.002  0.000  0.012
   27  0.009  0.002  0.000  0.012
   28  0.018  0.001  0.001  0.019
   29  0.019  0.001  0.001  0.020
   30  0.019  0.001  0.001  0.020
   31  0.019  0.001  0.001  0.020
   32  0.019  0.001  0.001  0.020
   33  0.019  0.001  0.001  0.020
   34  0.019  0.001  0.001  0.020
   35  0.017  0.001  0.001  0.019
   36  0.036  0.001  0.002  0.039
tot    0.517  0.053  0.020  0.591
 
band     3 # energy   -5.87003536 # occ.  2.00000000
 
ion      s      p      d    tot
    1  0.016  0.000  0.006  0.023
    2  0.017  0.000  0.006  0.023
    3  0.017  0.000  0.006  0.023
    4  0.017  0.000  0.006  0.023
    5  0.016  0.000  0.006  0.022
    6  0.017  0.000  0.006  0.023
    7  0.017  0.000  0.006  0.023
    8  0.017  0.000  0.006  0.023
    9  0.018  0.000  0.006  0.024
   10  0.004  0.004  0.002  0.009
   11  0.004  0.004  0.002  0.009
   12  0.004  0.004  0.002  0.009
   13  0.004  0.004  0.002  0.009
   14  0.004  0.004  0.002  0.009
   15  0.003  0.004  0.002  0.008
   16  0.004  0.004  0.002  0.009
   17  0.003  0.004  0.002  0.008
   18  0.003  0.004  0.002  0.008
   19  0.006  0.003  0.003  0.012
   20  0.006  0.004  0.004  0.014
   21  0.006  0.004  0.004  0.014
   22  0.004  0.003  0.003  0.010
   23  0.006  0.004  0.004  0.014
   24  0.004  0.003  0.003  0.010
   25  0.006  0.003  0.003  0.012
   26  0.006  0.003  0.003  0.012
   27  0.004  0.003  0.003  0.010
   28  0.014  0.000  0.007  0.020
   29  0.018  0.000  0.008  0.026
   30  0.018  0.000  0.008  0.026
   31  0.018  0.000  0.008  0.026
   32  0.018  0.000  0.008  0.026
   33  0.018  0.000  0.008  0.026
   34  0.018  0.000  0.008  0.026
   35  0.015  0.000  0.006  0.021
   36  0.030  0.000  0.020  0.050
tot    0.396  0.063  0.180  0.639
 
band     4 # energy   -5.76004715 # occ.  2.00000000
 
ion      s      p      d    tot
    1  0.000  0.003  0.005  0.008
    2  0.009  0.002  0.002  0.014
    3  0.003  0.001  0.002  0.006
    4  0.010  0.002  0.002  0.014
    5  0.000  0.002  0.003  0.006
    6  0.004  0.002  0.002  0.008
    7  0.001  0.001  0.002  0.004
    8  0.002  0.001  0.002  0.005
    9  0.000  0.000  0.003  0.003
   10  0.057  0.005  0.004  0.066
   11  0.004  0.011  0.004  0.019
   12  0.023  0.003  0.011  0.036
   13  0.010  0.008  0.004  0.023
   14  0.026  0.001  0.007  0.033
   15  0.001  0.005  0.008  0.014
   16  0.008  0.002  0.014  0.024
   17  0.002  0.004  0.007  0.013
   18  0.006  0.003  0.003  0.012
   19  0.004  0.011  0.003  0.018
   20  0.064  0.004  0.006  0.074
   21  0.025  0.002  0.013  0.040
   22  0.002  0.004  0.007  0.013
   23  0.009  0.002  0.015  0.026
   24  0.005  0.003  0.003  0.011
   25  0.027  0.001  0.006  0.034
   26  0.011  0.008  0.004  0.023
   27  0.001  0.005  0.008  0.014
   28  0.000  0.003  0.004  0.006
   29  0.010  0.003  0.003  0.016
   30  0.006  0.002  0.002  0.010
   31  0.009  0.003  0.003  0.015
   32  0.002  0.001  0.003  0.007
   33  0.003  0.001  0.002  0.006
   34  0.000  0.001  0.003  0.004
   35  0.000  0.000  0.003  0.003
   36  0.000  0.005  0.016  0.021
tot    0.344  0.113  0.190  0.648
 
band     5 # energy   -5.75989129 # occ.  2.00000000
 
ion      s      p      d    tot
    1  0.000  0.003  0.005  0.008
    2  0.000  0.001  0.002  0.003
    3  0.007  0.002  0.002  0.011
    4  0.000  0.001  0.002  0.003
    5  0.000  0.002  0.003  0.006
    6  0.005  0.002  0.002  0.009
    7  0.009  0.002  0.002  0.013
    8  0.008  0.002  0.002  0.012
    9  0.000  0.000  0.003  0.003
   10  0.001  0.002  0.015  0.018
   11  0.023  0.002  0.006  0.031
   12  0.036  0.003  0.008  0.047
   13  0.016  0.005  0.005  0.027
   14  0.001  0.013  0.003  0.017
   15  0.005  0.003  0.004  0.012
   16  0.051  0.004  0.005  0.060
   17  0.004  0.004  0.005  0.013
   18  0.000  0.005  0.009  0.014
   19  0.024  0.002  0.006  0.032
   20  0.001  0.002  0.017  0.020
   21  0.040  0.003  0.010  0.053
   22  0.003  0.004  0.005  0.013
   23  0.056  0.004  0.007  0.067
   24  0.000  0.005  0.009  0.014
   25  0.001  0.013  0.003  0.016
   26  0.017  0.005  0.005  0.027
   27  0.005  0.003  0.004  0.012
   28  0.000  0.003  0.004  0.006
   29  0.000  0.001  0.003  0.003
   30  0.004  0.002  0.003  0.009
   31  0.001  0.001  0.002  0.004
   32  0.008  0.002  0.003  0.013
   33  0.007  0.002  0.003  0.013
   34  0.010  0.003  0.003  0.015
   35  0.000  0.000  0.003  0.003
   36  0.000  0.005  0.016  0.021
tot    0.344  0.113  0.190  0.648
 
band     6 # energy   -5.74886213 # occ.  2.00000000
 
ion      s      p      d    tot
    1  0.001  0.000  0.000  0.001
    2  0.000  0.002  0.004  0.006
    3  0.000  0.002  0.004  0.006
    4  0.000  0.002  0.004  0.006
    5  0.018  0.003  0.001  0.022
    6  0.000  0.002  0.004  0.006
    7  0.000  0.002  0.004  0.006
    8  0.000  0.002  0.004  0.006
    9  0.011  0.002  0.001  0.014
   10  0.000  0.003  0.009  0.012
   11  0.025  0.009  0.002  0.036
   12  0.000  0.003  0.009  0.012
   13  0.025  0.009  0.002  0.036
   14  0.025  0.009  0.002  0.036
   15  0.021  0.002  0.010  0.033
   16  0.000  0.003  0.009  0.012
   17  0.021  0.002  0.010  0.033
   18  0.021  0.002  0.010  0.032
   19  0.008  0.000  0.011  0.019
   20  0.030  0.007  0.005  0.043
   21  0.031  0.007  0.005  0.043
   22  0.010  0.007  0.004  0.021
   23  0.030  0.007  0.005  0.043
   24  0.010  0.007  0.004  0.021
   25  0.007  0.000  0.011  0.019
   26  0.008  0.000  0.011  0.019
   27  0.010  0.007  0.004  0.021
   28  0.003  0.001  0.000  0.004
   29  0.000  0.002  0.004  0.006
   30  0.000  0.002  0.004  0.006
   31  0.000  0.002  0.004  0.006
   32  0.000  0.002  0.004  0.006
   33  0.000  0.002  0.004  0.006
   34  0.000  0.002  0.004  0.006
   35  0.009  0.001  0.000  0.010
   36  0.036  0.005  0.002  0.043
tot    0.361  0.118  0.176  0.655
 
band     7 # energy   -5.72423891 # occ.  2.00000000
 
ion      s      p      d    tot
    1  0.000  0.001  0.002  0.003
    2  0.010  0.002  0.002  0.015
    3  0.002  0.001  0.002  0.006
    4  0.010  0.002  0.002  0.015
    5  0.000  0.001  0.005  0.006
    6  0.003  0.001  0.002  0.007
    7  0.002  0.001  0.002  0.005
    8  0.003  0.001  0.002  0.006
    9  0.000  0.003  0.005  0.009
   10  0.000  0.011  0.003  0.014
   11  0.028  0.004  0.005  0.037
   12  0.001  0.004  0.005  0.010
   13  0.026  0.003  0.006  0.035
   14  0.000  0.000  0.016  0.016
   15  0.042  0.003  0.006  0.052
   16  0.001  0.003  0.005  0.009
   17  0.039  0.004  0.007  0.049
   18  0.000  0.008  0.009  0.017
   19  0.027  0.004  0.005  0.035
   20  0.000  0.013  0.002  0.015
   21  0.002  0.004  0.004  0.011
   22  0.041  0.004  0.006  0.051
   23  0.002  0.003  0.005  0.010
   24  0.000  0.008  0.009  0.017
   25  0.000  0.000  0.016  0.016
   26  0.025  0.003  0.006  0.034
   27  0.044  0.004  0.006  0.053
   28  0.000  0.001  0.005  0.006
   29  0.011  0.003  0.003  0.017
   30  0.003  0.002  0.003  0.008
   31  0.011  0.003  0.003  0.016
   32  0.003  0.001  0.003  0.006
   33  0.003  0.002  0.003  0.007
   34  0.002  0.001  0.003  0.006
   35  0.000  0.004  0.005  0.009
   36  0.000  0.001  0.008  0.009
tot    0.343  0.116  0.179  0.638
 
band     8 # energy   -5.72410191 # occ.  2.00000000
 
ion      s      p      d    tot
    1  0.000  0.001  0.002  0.003
    2  0.000  0.001  0.002  0.003
    3  0.008  0.002  0.003  0.013
    4  0.000  0.001  0.002  0.003
    5  0.000  0.001  0.005  0.006
    6  0.007  0.002  0.002  0.011
    7  0.008  0.002  0.003  0.013
    8  0.007  0.002  0.002  0.012
    9  0.000  0.003  0.005  0.009
   10  0.002  0.001  0.005  0.008
   11  0.008  0.001  0.013  0.022
   12  0.000  0.008  0.004  0.013
   13  0.010  0.001  0.012  0.024
   14  0.036  0.005  0.002  0.043
   15  0.012  0.007  0.008  0.027
   16  0.000  0.009  0.003  0.013
   17  0.015  0.007  0.008  0.029
   18  0.054  0.002  0.006  0.062
   19  0.008  0.001  0.013  0.022
   20  0.003  0.001  0.006  0.009
   21  0.001  0.010  0.003  0.013
   22  0.016  0.006  0.008  0.030
   23  0.001  0.010  0.002  0.013
   24  0.056  0.002  0.005  0.064
   25  0.034  0.005  0.002  0.041
   26  0.010  0.002  0.012  0.023
   27  0.013  0.007  0.008  0.028
   28  0.000  0.001  0.005  0.006
   29  0.000  0.001  0.003  0.004
   30  0.008  0.002  0.002  0.012
   31  0.000  0.001  0.003  0.004
   32  0.008  0.002  0.003  0.014
   33  0.009  0.002  0.002  0.013
   34  0.009  0.002  0.003  0.014
   35  0.000  0.004  0.005  0.009
   36  0.000  0.001  0.008  0.009
tot    0.343  0.116  0.179  0.638
 
band     9 # energy   -5.71447993 # occ.  2.00000000
 
ion      s      p      d    tot
    1  0.023  0.003  0.001  0.027
    2  0.000  0.002  0.004  0.006
    3  0.000  0.002  0.004  0.006
    4  0.000  0.002  0.004  0.006
    5  0.002  0.000  0.001  0.003
    6  0.000  0.002  0.004  0.006
    7  0.000  0.002  0.004  0.006
    8  0.000  0.002  0.004  0.006
    9  0.009  0.001  0.000  0.010
   10  0.031  0.006  0.005  0.042
   11  0.006  0.000  0.012  0.019
   12  0.031  0.006  0.005  0.043
   13  0.006  0.000  0.012  0.019
   14  0.007  0.000  0.012  0.019
   15  0.011  0.008  0.004  0.022
   16  0.031  0.006  0.005  0.043
   17  0.011  0.008  0.004  0.022
   18  0.010  0.008  0.004  0.022
   19  0.023  0.009  0.002  0.034
   20  0.000  0.003  0.009  0.012
   21  0.000  0.003  0.009  0.012
   22  0.022  0.002  0.009  0.033
   23  0.000  0.003  0.009  0.012
   24  0.023  0.002  0.009  0.034
   25  0.024  0.009  0.002  0.034
   26  0.023  0.009  0.002  0.034
   27  0.022  0.002  0.009  0.033
   28  0.019  0.003  0.000  0.022
   29  0.000  0.002  0.004  0.006
   30  0.000  0.002  0.004  0.006
   31  0.000  0.002  0.004  0.006
   32  0.000  0.002  0.004  0.006
   33  0.000  0.002  0.004  0.006
   34  0.000  0.002  0.004  0.006
   35  0.011  0.002  0.001  0.014
   36  0.001  0.000  0.000  0.001
tot    0.345  0.115  0.178  0.638
 
band    10 # energy   -5.01996939 # occ.  2.00000000
 
ion      s      p      d    tot
    1  0.000  0.003  0.010  0.013
    2  0.016  0.003  0.005  0.023
    3  0.002  0.002  0.005  0.008
    4  0.019  0.003  0.005  0.027
    5  0.000  0.000  0.010  0.010
    6  0.013  0.003  0.005  0.021
    7  0.000  0.001  0.005  0.006
    8  0.008  0.002  0.005  0.015
    9  0.000  0.005  0.008  0.013
   10  0.000  0.004  0.017  0.021
   11  0.004  0.002  0.008  0.015
   12  0.004  0.002  0.010  0.017
   13  0.003  0.002  0.010  0.015
   14  0.000  0.002  0.014  0.016
   15  0.021  0.004  0.007  0.032
   16  0.006  0.001  0.008  0.015
   17  0.015  0.003  0.011  0.029
   18  0.000  0.000  0.021  0.022
   19  0.010  0.005  0.008  0.024
   20  0.000  0.003  0.018  0.022
   21  0.000  0.002  0.014  0.015
   22  0.008  0.003  0.012  0.022
   23  0.000  0.001  0.012  0.013
   24  0.000  0.002  0.026  0.028
   25  0.000  0.000  0.013  0.013
   26  0.007  0.003  0.010  0.021
   27  0.010  0.003  0.006  0.020
   28  0.000  0.004  0.008  0.011
   29  0.020  0.003  0.008  0.031
   30  0.002  0.002  0.009  0.014
   31  0.024  0.003  0.008  0.036
   32  0.020  0.002  0.008  0.030
   33  0.000  0.002  0.009  0.012
   34  0.013  0.002  0.009  0.023
   35  0.000  0.006  0.009  0.014
   36  0.000  0.000  0.040  0.040
tot    0.227  0.091  0.389  0.706
 
band    11 # energy   -5.01993367 # occ.  2.00000000
 
ion      s      p      d    tot
    1  0.000  0.003  0.010  0.013
    2  0.004  0.002  0.005  0.010
    3  0.017  0.003  0.005  0.025
    4  0.001  0.002  0.005  0.007
    5  0.000  0.000  0.010  0.010
    6  0.006  0.002  0.005  0.012
    7  0.019  0.004  0.005  0.028
    8  0.011  0.003  0.005  0.018
    9  0.000  0.005  0.008  0.013
   10  0.007  0.001  0.006  0.014
   11  0.001  0.002  0.013  0.016
   12  0.003  0.003  0.013  0.019
   13  0.002  0.002  0.012  0.015
   14  0.005  0.002  0.008  0.014
   15  0.003  0.001  0.019  0.023
   16  0.001  0.004  0.016  0.020
   17  0.009  0.002  0.015  0.026
   18  0.024  0.005  0.005  0.033
   19  0.002  0.001  0.012  0.015
   20  0.000  0.001  0.011  0.012
   21  0.000  0.002  0.016  0.018
   22  0.005  0.002  0.018  0.024
   23  0.000  0.003  0.017  0.020
   24  0.012  0.003  0.003  0.018
   25  0.012  0.005  0.008  0.025
   26  0.005  0.002  0.011  0.018
   27  0.002  0.002  0.023  0.027
   28  0.000  0.004  0.008  0.011
   29  0.007  0.002  0.009  0.017
   30  0.024  0.003  0.008  0.035
   31  0.002  0.002  0.009  0.013
   32  0.006  0.003  0.009  0.018
   33  0.026  0.003  0.008  0.037
   34  0.013  0.003  0.009  0.025
   35  0.000  0.006  0.009  0.014
   36  0.000  0.000  0.040  0.040
tot    0.227  0.091  0.389  0.706
 
band    12 # energy   -5.01418381 # occ.  2.00000000
 
ion      s      p      d    tot
    1  0.000  0.002  0.009  0.011
    2  0.005  0.001  0.010  0.015
    3  0.005  0.001  0.010  0.015
    4  0.005  0.001  0.010  0.015
    5  0.021  0.000  0.006  0.028
    6  0.005  0.001  0.010  0.015
    7  0.005  0.001  0.010  0.015
    8  0.005  0.001  0.010  0.015
    9  0.003  0.001  0.009  0.013
   10  0.011  0.000  0.022  0.033
   11  0.001  0.001  0.022  0.024
   12  0.011  0.000  0.022  0.033
   13  0.001  0.001  0.022  0.024
   14  0.001  0.001  0.022  0.024
   15  0.009  0.000  0.022  0.032
   16  0.011  0.000  0.022  0.033
   17  0.009  0.000  0.022  0.032
   18  0.010  0.000  0.022  0.032
   19  0.011  0.001  0.018  0.029
   20  0.002  0.000  0.026  0.027
   21  0.002  0.000  0.025  0.027
   22  0.004  0.000  0.017  0.021
   23  0.002  0.000  0.025  0.027
   24  0.004  0.000  0.017  0.021
   25  0.011  0.001  0.017  0.029
   26  0.011  0.001  0.018  0.029
   27  0.004  0.000  0.017  0.021
   28  0.000  0.002  0.006  0.008
   29  0.003  0.001  0.010  0.014
   30  0.003  0.001  0.009  0.013
   31  0.003  0.001  0.010  0.014
   32  0.003  0.001  0.010  0.014
   33  0.003  0.001  0.009  0.013
   34  0.003  0.001  0.010  0.014
   35  0.000  0.001  0.005  0.006
   36  0.029  0.000  0.013  0.042
tot    0.214  0.025  0.540  0.779
 
band    13 # energy   -4.97610906 # occ.  2.00000000
 
ion      s      p      d    tot
    1  0.024  0.001  0.001  0.025
    2  0.001  0.003  0.010  0.013
    3  0.001  0.003  0.010  0.013
    4  0.001  0.003  0.010  0.013
    5  0.024  0.005  0.004  0.033
    6  0.001  0.003  0.010  0.013
    7  0.001  0.003  0.010  0.013
    8  0.001  0.003  0.010  0.013
    9  0.008  0.000  0.001  0.008
   10  0.000  0.002  0.022  0.024
   11  0.017  0.004  0.012  0.033
   12  0.000  0.002  0.022  0.024
   13  0.017  0.004  0.012  0.033
   14  0.017  0.004  0.012  0.033
   15  0.000  0.000  0.012  0.013
   16  0.000  0.002  0.022  0.024
   17  0.000  0.000  0.012  0.013
   18  0.000  0.000  0.012  0.013
   19  0.002  0.002  0.011  0.015
   20  0.014  0.004  0.020  0.038
   21  0.014  0.004  0.020  0.038
   22  0.001  0.000  0.018  0.019
   23  0.014  0.004  0.020  0.038
   24  0.001  0.000  0.018  0.019
   25  0.002  0.002  0.011  0.015
   26  0.002  0.002  0.011  0.015
   27  0.001  0.000  0.018  0.019
   28  0.024  0.001  0.000  0.025
   29  0.001  0.003  0.010  0.013
   30  0.001  0.003  0.010  0.013
   31  0.001  0.003  0.010  0.013
   32  0.001  0.003  0.010  0.013
   33  0.001  0.003  0.010  0.013
   34  0.001  0.003  0.010  0.013
   35  0.008  0.000  0.002  0.010
   36  0.040  0.007  0.007  0.054
tot    0.238  0.083  0.415  0.736
 
band    14 # energy   -4.96092864 # occ.  2.00000000
 
ion      s      p      d    tot
    1  0.000  0.003  0.010  0.013
    2  0.018  0.003  0.006  0.027
    3  0.005  0.002  0.005  0.012
    4  0.022  0.004  0.006  0.032
    5  0.000  0.006  0.010  0.016
    6  0.016  0.003  0.006  0.025
    7  0.000  0.002  0.005  0.007
    8  0.007  0.002  0.006  0.015
    9  0.000  0.000  0.013  0.014
   10  0.016  0.005  0.009  0.031
   11  0.002  0.002  0.027  0.031
   12  0.008  0.002  0.015  0.025
   13  0.008  0.003  0.018  0.029
   14  0.016  0.004  0.006  0.026
   15  0.000  0.003  0.017  0.020
   16  0.002  0.001  0.018  0.021
   17  0.000  0.002  0.014  0.016
   18  0.000  0.000  0.009  0.010
   19  0.000  0.003  0.019  0.023
   20  0.021  0.005  0.005  0.031
   21  0.010  0.003  0.018  0.031
   22  0.003  0.002  0.011  0.016
   23  0.002  0.001  0.027  0.030
   24  0.007  0.003  0.009  0.019
   25  0.003  0.001  0.007  0.011
   26  0.002  0.002  0.014  0.018
   27  0.001  0.001  0.013  0.015
   28  0.000  0.002  0.010  0.013
   29  0.013  0.003  0.006  0.022
   30  0.003  0.002  0.005  0.009
   31  0.018  0.004  0.007  0.028
   32  0.014  0.003  0.007  0.024
   33  0.000  0.001  0.005  0.006
   34  0.007  0.002  0.006  0.015
   35  0.000  0.001  0.009  0.010
   36  0.000  0.009  0.017  0.026
tot    0.220  0.096  0.396  0.712
 
band    15 # energy   -4.96086733 # occ.  2.00000000
 
ion      s      p      d    tot
    1  0.000  0.003  0.010  0.013
    2  0.005  0.002  0.006  0.012
    3  0.018  0.004  0.006  0.027
    4  0.000  0.002  0.005  0.007
    5  0.000  0.006  0.010  0.016
    6  0.007  0.002  0.005  0.014
    7  0.022  0.004  0.006  0.032
    8  0.016  0.003  0.006  0.025
    9  0.000  0.000  0.013  0.014
   10  0.001  0.000  0.019  0.020
   11  0.015  0.003  0.007  0.026
   12  0.009  0.003  0.014  0.026
   13  0.009  0.003  0.016  0.028
   14  0.001  0.002  0.028  0.031
   15  0.000  0.001  0.010  0.010
   16  0.015  0.005  0.010  0.030
   17  0.000  0.002  0.013  0.015
   18  0.000  0.003  0.017  0.021
   19  0.003  0.001  0.008  0.012
   20  0.001  0.001  0.029  0.030
   21  0.012  0.003  0.016  0.031
   22  0.004  0.002  0.011  0.017
   23  0.020  0.005  0.006  0.031
   24  0.000  0.001  0.013  0.015
   25  0.000  0.003  0.020  0.023
   26  0.002  0.002  0.013  0.016
   27  0.006  0.003  0.010  0.018
   28  0.000  0.002  0.010  0.013
   29  0.005  0.002  0.006  0.012
   30  0.015  0.003  0.007  0.025
   31  0.000  0.001  0.005  0.006
   32  0.004  0.002  0.005  0.011
   33  0.018  0.004  0.007  0.028
   34  0.011  0.003  0.006  0.020
   35  0.000  0.001  0.009  0.010
   36  0.000  0.009  0.017  0.026
tot    0.220  0.096  0.396  0.712
 
band    16 # energy   -4.95915261 # occ.  2.00000000
 
ion      s      p      d    tot
    1  0.023  0.002  0.000  0.026
    2  0.000  0.003  0.010  0.014
    3  0.000  0.003  0.010  0.014
    4  0.000  0.003  0.010  0.013
    5  0.003  0.000  0.000  0.004
    6  0.000  0.003  0.010  0.013
    7  0.000  0.003  0.010  0.014
    8  0.000  0.003  0.010  0.014
    9  0.039  0.004  0.001  0.044
   10  0.007  0.003  0.010  0.019
   11  0.000  0.000  0.017  0.017
   12  0.007  0.003  0.010  0.019
   13  0.000  0.000  0.017  0.017
   14  0.000  0.000  0.017  0.017
   15  0.009  0.004  0.017  0.030
   16  0.007  0.003  0.010  0.019
   17  0.009  0.004  0.017  0.030
   18  0.009  0.004  0.017  0.030
   19  0.003  0.003  0.017  0.023
   20  0.002  0.000  0.013  0.015
   21  0.002  0.000  0.013  0.015
   22  0.012  0.004  0.011  0.028
   23  0.002  0.000  0.013  0.015
   24  0.012  0.004  0.011  0.028
   25  0.003  0.003  0.017  0.023
   26  0.003  0.003  0.017  0.023
   27  0.012  0.004  0.011  0.028
   28  0.025  0.002  0.000  0.028
   29  0.000  0.003  0.010  0.013
   30  0.000  0.003  0.010  0.013
   31  0.000  0.003  0.011  0.013
   32  0.000  0.003  0.010  0.013
   33  0.000  0.003  0.010  0.013
   34  0.000  0.003  0.010  0.013
   35  0.038  0.004  0.001  0.043
   36  0.003  0.000  0.000  0.003
tot    0.230  0.093  0.382  0.705
 
band    17 # energy   -4.38882076 # occ.  2.00000000
 
ion      s      p      d    tot
    1  0.000  0.001  0.029  0.029
    2  0.015  0.001  0.008  0.024
    3  0.008  0.001  0.007  0.016
    4  0.014  0.001  0.008  0.023
    5  0.000  0.001  0.013  0.014
    6  0.002  0.001  0.008  0.011
    7  0.006  0.001  0.007  0.014
    8  0.001  0.001  0.008  0.009
    9  0.000  0.003  0.004  0.007
   10  0.000  0.000  0.060  0.060
   11  0.000  0.004  0.017  0.020
   12  0.000  0.000  0.022  0.022
   13  0.000  0.003  0.015  0.018
   14  0.000  0.000  0.005  0.005
   15  0.000  0.005  0.014  0.020
   16  0.000  0.000  0.017  0.017
   17  0.000  0.004  0.016  0.021
   18  0.000  0.000  0.028  0.029
   19  0.004  0.003  0.011  0.019
   20  0.000  0.000  0.062  0.062
   21  0.000  0.000  0.028  0.028
   22  0.002  0.002  0.015  0.020
   23  0.000  0.000  0.023  0.023
   24  0.000  0.000  0.015  0.015
   25  0.000  0.000  0.016  0.016
   26  0.004  0.003  0.012  0.018
   27  0.003  0.002  0.015  0.020
   28  0.000  0.001  0.006  0.006
   29  0.008  0.000  0.019  0.028
   30  0.000  0.001  0.017  0.018
   31  0.010  0.000  0.019  0.029
   32  0.010  0.000  0.018  0.028
   33  0.000  0.001  0.016  0.018
   34  0.009  0.000  0.017  0.027
   35  0.000  0.001  0.006  0.007
   36  0.000  0.000  0.069  0.069
tot    0.097  0.044  0.670  0.811
 
band    18 # energy   -4.38873656 # occ.  2.00000000
 
ion      s      p      d    tot
    1  0.000  0.001  0.029  0.029
    2  0.000  0.001  0.007  0.009
    3  0.007  0.001  0.008  0.016
    4  0.001  0.001  0.007  0.009
    5  0.000  0.001  0.013  0.014
    6  0.013  0.001  0.008  0.022
    7  0.009  0.001  0.008  0.018
    8  0.014  0.001  0.008  0.023
    9  0.000  0.003  0.004  0.007
   10  0.000  0.000  0.006  0.006
   11  0.000  0.001  0.008  0.009
   12  0.000  0.000  0.044  0.044
   13  0.000  0.001  0.010  0.011
   14  0.000  0.004  0.019  0.024
   15  0.000  0.001  0.025  0.026
   16  0.000  0.000  0.049  0.049
   17  0.000  0.002  0.023  0.025
   18  0.000  0.006  0.011  0.017
   19  0.001  0.001  0.015  0.017
   20  0.000  0.000  0.013  0.014
   21  0.000  0.000  0.047  0.047
   22  0.001  0.001  0.015  0.017
   23  0.000  0.000  0.052  0.052
   24  0.003  0.003  0.015  0.021
   25  0.005  0.004  0.010  0.019
   26  0.002  0.001  0.014  0.017
   27  0.001  0.001  0.015  0.016
   28  0.000  0.001  0.006  0.006
   29  0.004  0.001  0.016  0.021
   30  0.013  0.000  0.019  0.031
   31  0.003  0.001  0.016  0.020
   32  0.002  0.001  0.018  0.021
   33  0.012  0.000  0.019  0.031
   34  0.003  0.001  0.018  0.022
   35  0.000  0.001  0.006  0.007
   36  0.000  0.000  0.069  0.069
tot    0.097  0.044  0.670  0.811
 
band    19 # energy   -4.29527909 # occ.  2.00000000
 
ion      s      p      d    tot
    1  0.023  0.001  0.000  0.024
    2  0.000  0.001  0.017  0.019
    3  0.000  0.001  0.017  0.019
    4  0.000  0.001  0.017  0.019
    5  0.022  0.001  0.002  0.025
    6  0.000  0.001  0.017  0.019
    7  0.000  0.001  0.017  0.019
    8  0.000  0.001  0.017  0.019
    9  0.000  0.000  0.000  0.000
   10  0.000  0.002  0.029  0.031
   11  0.001  0.003  0.035  0.039
   12  0.000  0.002  0.029  0.031
   13  0.001  0.003  0.035  0.039
   14  0.001  0.003  0.035  0.039
   15  0.000  0.001  0.005  0.005
   16  0.000  0.002  0.029  0.031
   17  0.000  0.001  0.005  0.005
   18  0.000  0.001  0.005  0.005
   19  0.001  0.002  0.011  0.013
   20  0.001  0.003  0.037  0.041
   21  0.001  0.003  0.037  0.041
   22  0.000  0.001  0.018  0.018
   23  0.001  0.003  0.037  0.041
   24  0.000  0.001  0.018  0.018
   25  0.001  0.002  0.011  0.013
   26  0.001  0.002  0.011  0.013
   27  0.000  0.001  0.018  0.018
   28  0.004  0.000  0.003  0.008
   29  0.000  0.002  0.022  0.023
   30  0.000  0.002  0.022  0.023
   31  0.000  0.002  0.022  0.023
   32  0.000  0.002  0.022  0.023
   33  0.000  0.002  0.022  0.023
   34  0.000  0.002  0.022  0.023
   35  0.017  0.000  0.001  0.018
   36  0.036  0.000  0.005  0.041
tot    0.110  0.053  0.649  0.813
 
band    20 # energy   -4.26384346 # occ.  2.00000000
 
ion      s      p      d    tot
    1  0.007  0.000  0.002  0.009
    2  0.000  0.001  0.018  0.019
    3  0.000  0.001  0.018  0.019
    4  0.000  0.001  0.018  0.019
    5  0.007  0.000  0.000  0.008
    6  0.000  0.001  0.018  0.019
    7  0.000  0.001  0.018  0.019
    8  0.000  0.001  0.018  0.019
    9  0.029  0.001  0.002  0.032
   10  0.001  0.002  0.017  0.020
   11  0.000  0.000  0.011  0.012
   12  0.001  0.002  0.017  0.020
   13  0.000  0.000  0.011  0.012
   14  0.000  0.000  0.011  0.012
   15  0.000  0.003  0.040  0.043
   16  0.001  0.002  0.017  0.020
   17  0.000  0.003  0.040  0.043
   18  0.000  0.003  0.040  0.043
   19  0.000  0.002  0.034  0.037
   20  0.000  0.000  0.007  0.008
   21  0.000  0.000  0.007  0.008
   22  0.001  0.003  0.028  0.032
   23  0.000  0.000  0.007  0.008
   24  0.001  0.003  0.028  0.032
   25  0.000  0.002  0.034  0.037
   26  0.000  0.002  0.034  0.037
   27  0.001  0.003  0.028  0.032
   28  0.026  0.001  0.001  0.028
   29  0.000  0.001  0.020  0.021
   30  0.000  0.001  0.020  0.021
   31  0.000  0.001  0.020  0.021
   32  0.000  0.001  0.020  0.021
   33  0.000  0.001  0.020  0.021
   34  0.000  0.001  0.020  0.021
   35  0.020  0.001  0.003  0.023
   36  0.001  0.000  0.001  0.002
tot    0.098  0.052  0.650  0.800
 
band    21 # energy   -4.25545928 # occ.  2.00000000
 
ion      s      p      d    tot
    1  0.000  0.002  0.001  0.003
    2  0.015  0.001  0.010  0.026
    3  0.010  0.001  0.010  0.021
    4  0.012  0.001  0.011  0.024
    5  0.000  0.002  0.023  0.025
    6  0.002  0.001  0.010  0.013
    7  0.006  0.001  0.009  0.017
    8  0.000  0.001  0.010  0.011
    9  0.000  0.000  0.033  0.033
   10  0.001  0.007  0.021  0.029
   11  0.000  0.000  0.045  0.045
   12  0.001  0.003  0.014  0.017
   13  0.000  0.001  0.035  0.036
   14  0.001  0.002  0.006  0.009
   15  0.000  0.000  0.033  0.034
   16  0.000  0.001  0.011  0.013
   17  0.000  0.001  0.028  0.029
   18  0.000  0.001  0.013  0.014
   19  0.000  0.000  0.052  0.052
   20  0.001  0.007  0.020  0.029
   21  0.000  0.003  0.015  0.018
   22  0.000  0.001  0.022  0.023
   23  0.000  0.001  0.014  0.015
   24  0.000  0.002  0.015  0.018
   25  0.001  0.001  0.004  0.006
   26  0.000  0.000  0.040  0.040
   27  0.000  0.000  0.024  0.025
   28  0.000  0.002  0.030  0.031
   29  0.011  0.001  0.011  0.023
   30  0.001  0.001  0.010  0.011
   31  0.014  0.001  0.011  0.027
   32  0.012  0.001  0.011  0.024
   33  0.000  0.001  0.010  0.010
   34  0.009  0.001  0.010  0.020
   35  0.000  0.000  0.028  0.028
   36  0.000  0.004  0.000  0.004
tot    0.098  0.054  0.649  0.801
 
band    22 # energy   -4.25536474 # occ.  2.00000000
 
ion      s      p      d    tot
    1  0.000  0.002  0.001  0.003
    2  0.000  0.001  0.010  0.011
    3  0.005  0.001  0.010  0.016
    4  0.003  0.001  0.009  0.013
    5  0.000  0.002  0.023  0.025
    6  0.013  0.001  0.010  0.024
    7  0.009  0.001  0.011  0.020
    8  0.015  0.001  0.010  0.026
    9  0.000  0.000  0.033  0.033
   10  0.000  0.000  0.010  0.010
   11  0.001  0.002  0.012  0.015
   12  0.001  0.004  0.017  0.022
   13  0.001  0.001  0.022  0.024
   14  0.000  0.000  0.051  0.051
   15  0.000  0.001  0.016  0.017
   16  0.001  0.006  0.020  0.027