PROCAR new format
# of k-points:   10         # of bands:  252         # of ions:   37

 k-point     1 :    0.00000000 0.00000000 0.00000000     weight = 0.01562500

band     1 # energy  -12.36079465 # occ.  2.00000000
 
ion      s      p      d    tot
    1  0.000  0.000  0.000  0.000
    2  0.000  0.000  0.000  0.000
    3  0.000  0.000  0.000  0.000
    4  0.000  0.000  0.000  0.000
    5  0.000  0.000  0.000  0.000
    6  0.000  0.000  0.000  0.000
    7  0.000  0.000  0.000  0.000
    8  0.000  0.000  0.000  0.000
    9  0.000  0.000  0.000  0.000
   10  0.000  0.000  0.000  0.000
   11  0.000  0.000  0.000  0.000
   12  0.000  0.000  0.000  0.000
   13  0.000  0.000  0.000  0.000
   14  0.000  0.000  0.000  0.000
   15  0.000  0.000  0.000  0.000
   16  0.000  0.000  0.000  0.000
   17  0.000  0.000  0.000  0.000
   18  0.000  0.000  0.000  0.000
   19  0.000  0.000  0.000  0.000
   20  0.000  0.000  0.000  0.001
   21  0.000  0.000  0.000  0.001
   22  0.000  0.000  0.000  0.000
   23  0.000  0.000  0.000  0.001
   24  0.000  0.000  0.000  0.000
   25  0.000  0.000  0.000  0.000
   26  0.000  0.000  0.000  0.000
   27  0.000  0.000  0.000  0.000
   28  0.000  0.000  0.000  0.000
   29  0.000  0.000  0.000  0.000
   30  0.000  0.000  0.000  0.000
   31  0.000  0.000  0.000  0.000
   32  0.000  0.000  0.000  0.000
   33  0.000  0.000  0.000  0.000
   34  0.000  0.000  0.000  0.000
   35  0.000  0.000  0.000  0.000
   36  0.088  0.065  0.170  0.323
   37  0.618  0.018  0.000  0.636
tot    0.707  0.084  0.173  0.965
 
band     2 # energy   -6.39057044 # occ.  2.00000000
 
ion      s      p      d    tot
    1  0.005  0.001  0.000  0.006
    2  0.005  0.001  0.000  0.006
    3  0.005  0.001  0.000  0.006
    4  0.005  0.001  0.000  0.006
    5  0.005  0.001  0.000  0.006
    6  0.005  0.001  0.000  0.006
    7  0.005  0.001  0.000  0.006
    8  0.005  0.001  0.000  0.006
    9  0.005  0.000  0.000  0.005
   10  0.022  0.000  0.000  0.022
   11  0.022  0.000  0.000  0.023
   12  0.022  0.000  0.000  0.022
   13  0.022  0.000  0.000  0.023
   14  0.022  0.000  0.000  0.023
   15  0.020  0.000  0.000  0.020
   16  0.022  0.000  0.000  0.022
   17  0.020  0.000  0.000  0.020
   18  0.020  0.000  0.000  0.020
   19  0.022  0.000  0.001  0.022
   20  0.030  0.000  0.001  0.031
   21  0.030  0.000  0.001  0.031
   22  0.022  0.000  0.001  0.023
   23  0.030  0.000  0.001  0.031
   24  0.022  0.000  0.001  0.023
   25  0.022  0.000  0.001  0.022
   26  0.022  0.000  0.001  0.022
   27  0.022  0.000  0.001  0.023
   28  0.006  0.000  0.000  0.006
   29  0.006  0.001  0.000  0.007
   30  0.006  0.001  0.000  0.007
   31  0.006  0.001  0.000  0.007
   32  0.006  0.001  0.000  0.007
   33  0.006  0.001  0.000  0.007
   34  0.006  0.001  0.000  0.007
   35  0.005  0.000  0.000  0.006
   36  0.015  0.004  0.001  0.020
   37  0.003  0.000  0.000  0.003
tot    0.525  0.016  0.010  0.552
 
band     3 # energy   -5.53701040 # occ.  2.00000000
 
ion      s      p      d    tot
    1  0.008  0.000  0.001  0.009
    2  0.009  0.000  0.000  0.010
    3  0.009  0.000  0.000  0.010
    4  0.009  0.000  0.000  0.010
    5  0.010  0.001  0.000  0.011
    6  0.009  0.000  0.000  0.010
    7  0.009  0.000  0.000  0.010
    8  0.009  0.000  0.000  0.010
    9  0.010  0.001  0.000  0.011
   10  0.012  0.001  0.015  0.028
   11  0.013  0.001  0.012  0.026
   12  0.012  0.001  0.015  0.028
   13  0.013  0.001  0.012  0.026
   14  0.013  0.001  0.012  0.026
   15  0.014  0.001  0.010  0.025
   16  0.012  0.001  0.015  0.028
   17  0.014  0.001  0.010  0.025
   18  0.014  0.001  0.010  0.025
   19  0.006  0.001  0.013  0.020
   20  0.015  0.002  0.017  0.034
   21  0.015  0.002  0.017  0.034
   22  0.006  0.001  0.011  0.018
   23  0.015  0.002  0.017  0.034
   24  0.006  0.001  0.011  0.018
   25  0.006  0.001  0.013  0.020
   26  0.006  0.001  0.013  0.020
   27  0.006  0.001  0.011  0.018
   28  0.005  0.000  0.001  0.006
   29  0.007  0.000  0.002  0.010
   30  0.007  0.000  0.002  0.010
   31  0.007  0.000  0.002  0.010
   32  0.007  0.000  0.002  0.010
   33  0.007  0.000  0.002  0.010
   34  0.007  0.000  0.002  0.010
   35  0.005  0.000  0.000  0.005
   36  0.025  0.004  0.001  0.030
   37  0.004  0.001  0.000  0.004
tot    0.364  0.032  0.255  0.652
 
band     4 # energy   -5.30900515 # occ.  2.00000000
 
ion      s      p      d    tot
    1  0.001  0.000  0.009  0.010
    2  0.003  0.000  0.004  0.007
    3  0.003  0.000  0.004  0.007
    4  0.003  0.000  0.004  0.007
    5  0.003  0.000  0.002  0.005
    6  0.003  0.000  0.004  0.007
    7  0.003  0.000  0.004  0.007
    8  0.003  0.000  0.004  0.007
    9  0.005  0.000  0.003  0.007
   10  0.001  0.000  0.018  0.018
   11  0.000  0.000  0.013  0.014
   12  0.001  0.000  0.018  0.018
   13  0.000  0.000  0.013  0.014
   14  0.000  0.000  0.013  0.014
   15  0.000  0.000  0.006  0.006
   16  0.001  0.000  0.018  0.018
   17  0.000  0.000  0.006  0.006
   18  0.000  0.000  0.006  0.006
   19  0.005  0.000  0.015  0.020
   20  0.000  0.001  0.075  0.076
   21  0.000  0.001  0.075  0.075
   22  0.002  0.000  0.013  0.015
   23  0.000  0.001  0.075  0.075
   24  0.002  0.000  0.013  0.015
   25  0.005  0.000  0.015  0.020
   26  0.005  0.000  0.015  0.020
   27  0.002  0.000  0.013  0.015
   28  0.003  0.000  0.012  0.015
   29  0.010  0.001  0.025  0.035
   30  0.010  0.001  0.025  0.035
   31  0.010  0.001  0.025  0.035
   32  0.010  0.001  0.025  0.035
   33  0.010  0.001  0.025  0.035
   34  0.010  0.001  0.025  0.035
   35  0.005  0.000  0.011  0.016
   36  0.040  0.001  0.025  0.066
   37  0.001  0.000  0.000  0.001
tot    0.153  0.008  0.655  0.817
 
band     5 # energy   -5.21897443 # occ.  2.00000000
 
ion      s      p      d    tot
    1  0.006  0.001  0.000  0.007
    2  0.000  0.000  0.003  0.003
    3  0.000  0.000  0.003  0.003
    4  0.000  0.000  0.003  0.003
    5  0.000  0.000  0.000  0.001
    6  0.000  0.000  0.003  0.003
    7  0.000  0.000  0.003  0.003
    8  0.000  0.000  0.003  0.003
    9  0.000  0.000  0.000  0.001
   10  0.005  0.000  0.018  0.023
   11  0.000  0.000  0.012  0.012
   12  0.005  0.000  0.018  0.023
   13  0.000  0.000  0.012  0.012
   14  0.000  0.000  0.012  0.012
   15  0.002  0.001  0.003  0.005
   16  0.005  0.000  0.018  0.023
   17  0.002  0.001  0.003  0.005
   18  0.002  0.001  0.003  0.005
   19  0.000  0.001  0.033  0.034
   20  0.005  0.000  0.136  0.142
   21  0.005  0.000  0.136  0.141
   22  0.017  0.000  0.005  0.022
   23  0.005  0.000  0.136  0.141
   24  0.017  0.000  0.005  0.022
   25  0.000  0.001  0.033  0.034
   26  0.000  0.001  0.033  0.034
   27  0.017  0.000  0.005  0.022
   28  0.002  0.000  0.000  0.002
   29  0.002  0.000  0.003  0.005
   30  0.002  0.000  0.003  0.005
   31  0.002  0.000  0.003  0.005
   32  0.002  0.000  0.003  0.005
   33  0.002  0.000  0.003  0.005
   34  0.002  0.000  0.003  0.005
   35  0.009  0.001  0.001  0.011
   36  0.008  0.007  0.014  0.029
   37  0.003  0.004  0.000  0.008
tot    0.125  0.023  0.674  0.822
 
band     6 # energy   -5.14871954 # occ.  2.00000000
 
ion      s      p      d    tot
    1  0.000  0.000  0.006  0.006
    2  0.001  0.000  0.002  0.002
    3  0.001  0.000  0.002  0.002
    4  0.001  0.000  0.002  0.002
    5  0.000  0.000  0.004  0.004
    6  0.000  0.000  0.002  0.002
    7  0.001  0.000  0.002  0.002
    8  0.000  0.000  0.002  0.002
    9  0.000  0.000  0.001  0.001
   10  0.000  0.000  0.017  0.018
   11  0.001  0.000  0.020  0.021
   12  0.004  0.001  0.015  0.020
   13  0.001  0.000  0.020  0.021
   14  0.000  0.001  0.023  0.024
   15  0.002  0.000  0.007  0.009
   16  0.005  0.001  0.015  0.020
   17  0.001  0.000  0.007  0.009
   18  0.000  0.000  0.005  0.005
   19  0.014  0.001  0.035  0.050
   20  0.000  0.000  0.194  0.195
   21  0.023  0.000  0.056  0.079
   22  0.001  0.001  0.034  0.035
   23  0.024  0.000  0.051  0.075
   24  0.000  0.001  0.047  0.048
   25  0.000  0.001  0.016  0.017
   26  0.013  0.001  0.035  0.049
   27  0.001  0.001  0.033  0.035
   28  0.000  0.000  0.004  0.004
   29  0.000  0.000  0.008  0.008
   30  0.001  0.000  0.006  0.007
   31  0.000  0.000  0.008  0.008
   32  0.001  0.001  0.006  0.007
   33  0.001  0.000  0.006  0.007
   34  0.001  0.001  0.006  0.007
   35  0.000  0.000  0.001  0.001
   36  0.000  0.002  0.015  0.016
   37  0.000  0.001  0.000  0.001
tot    0.094  0.016  0.710  0.819
 
band     7 # energy   -5.14864304 # occ.  2.00000000
 
ion      s      p      d    tot
    1  0.000  0.000  0.006  0.006
    2  0.000  0.000  0.002  0.002
    3  0.000  0.000  0.002  0.002
    4  0.000  0.000  0.002  0.002
    5  0.000  0.000  0.004  0.004
    6  0.001  0.000  0.002  0.003
    7  0.000  0.000  0.002  0.002
    8  0.001  0.000  0.002  0.003
    9  0.000  0.000  0.001  0.001
   10  0.006  0.001  0.014  0.021
   11  0.000  0.001  0.022  0.023
   12  0.002  0.001  0.016  0.018
   13  0.000  0.001  0.022  0.023
   14  0.001  0.000  0.019  0.020
   15  0.000  0.000  0.006  0.007
   16  0.001  0.001  0.016  0.018
   17  0.001  0.000  0.006  0.007
   18  0.002  0.000  0.008  0.011
   19  0.004  0.001  0.022  0.027
   20  0.031  0.000  0.007  0.038
   21  0.008  0.000  0.144  0.153
   22  0.000  0.001  0.042  0.043
   23  0.007  0.000  0.150  0.157
   24  0.001  0.001  0.029  0.030
   25  0.018  0.000  0.041  0.060
   26  0.005  0.001  0.023  0.029
   27  0.000  0.001  0.043  0.044
   28  0.000  0.000  0.004  0.004
   29  0.001  0.001  0.005  0.007
   30  0.000  0.000  0.007  0.008
   31  0.001  0.001  0.005  0.007
   32  0.000  0.000  0.007  0.007
   33  0.000  0.000  0.007  0.008
   34  0.000  0.000  0.007  0.007
   35  0.000  0.000  0.001  0.001
   36  0.000  0.002  0.015  0.016
   37  0.000  0.001  0.000  0.001
tot    0.094  0.016  0.710  0.819
 
band     8 # energy   -5.12030545 # occ.  2.00000000
 
ion      s      p      d    tot
    1  0.016  0.000  0.008  0.025
    2  0.010  0.000  0.022  0.033
    3  0.010  0.000  0.022  0.033
    4  0.010  0.000  0.022  0.033
    5  0.013  0.000  0.034  0.046
    6  0.010  0.000  0.022  0.033
    7  0.010  0.000  0.022  0.033
    8  0.010  0.000  0.022  0.033
    9  0.005  0.000  0.021  0.026
   10  0.000  0.001  0.016  0.017
   11  0.002  0.000  0.043  0.045
   12  0.000  0.001  0.016  0.017
   13  0.002  0.000  0.043  0.045
   14  0.002  0.000  0.043  0.045
   15  0.003  0.000  0.022  0.026
   16  0.000  0.001  0.016  0.017
   17  0.003  0.000  0.022  0.026
   18  0.003  0.000  0.022  0.026
   19  0.003  0.000  0.002  0.005
   20  0.000  0.000  0.037  0.038
   21  0.000  0.000  0.037  0.037
   22  0.000  0.000  0.014  0.014
   23  0.000  0.000  0.037  0.037
   24  0.000  0.000  0.014  0.014
   25  0.003  0.000  0.002  0.005
   26  0.003  0.000  0.002  0.005
   27  0.000  0.000  0.014  0.014
   28  0.003  0.000  0.000  0.003
   29  0.000  0.000  0.010  0.010
   30  0.000  0.000  0.010  0.010
   31  0.000  0.000  0.010  0.010
   32  0.000  0.000  0.010  0.010
   33  0.000  0.000  0.010  0.010
   34  0.000  0.000  0.010  0.010
   35  0.000  0.000  0.001  0.002
   36  0.008  0.000  0.003  0.011
   37  0.000  0.000  0.000  0.000
tot    0.132  0.008  0.662  0.803
 
band     9 # energy   -5.09576204 # occ.  2.00000000
 
ion      s      p      d    tot
    1  0.000  0.000  0.004  0.004
    2  0.000  0.000  0.002  0.002
    3  0.001  0.000  0.006  0.007
    4  0.000  0.000  0.002  0.002
    5  0.000  0.000  0.008  0.008
    6  0.001  0.001  0.005  0.007
    7  0.001  0.000  0.006  0.007
    8  0.001  0.001  0.005  0.007
    9  0.000  0.000  0.001  0.001
   10  0.007  0.001  0.018  0.026
   11  0.008  0.001  0.074  0.083
   12  0.002  0.000  0.072  0.074
   13  0.008  0.001  0.074  0.083
   14  0.031  0.001  0.015  0.047
   15  0.002  0.001  0.012  0.015
   16  0.002  0.000  0.071  0.074
   17  0.002  0.001  0.012  0.015
   18  0.007  0.000  0.035  0.042
   19  0.000  0.000  0.021  0.022
   20  0.011  0.000  0.052  0.063
   21  0.003  0.001  0.037  0.040
   22  0.003  0.000  0.019  0.022
   23  0.003  0.001  0.037  0.040
   24  0.010  0.001  0.009  0.020
   25  0.001  0.000  0.012  0.013
   26  0.000  0.000  0.021  0.022
   27  0.003  0.000  0.019  0.022
   28  0.000  0.000  0.001  0.001
   29  0.002  0.000  0.006  0.008
   30  0.001  0.000  0.004  0.005
   31  0.002  0.000  0.006  0.008
   32  0.000  0.000  0.003  0.003
   33  0.001  0.000  0.004  0.005
   34  0.000  0.000  0.003  0.003
   35  0.000  0.000  0.006  0.006
   36  0.000  0.000  0.006  0.007
   37  0.000  0.000  0.000  0.000
tot    0.109  0.015  0.689  0.814
 
band    10 # energy   -5.09575395 # occ.  2.00000000
 
ion      s      p      d    tot
    1  0.000  0.000  0.004  0.004
    2  0.001  0.001  0.007  0.008
    3  0.001  0.000  0.002  0.003
    4  0.001  0.001  0.007  0.008
    5  0.000  0.000  0.008  0.008
    6  0.000  0.000  0.004  0.004
    7  0.001  0.000  0.002  0.003
    8  0.000  0.000  0.004  0.004
    9  0.000  0.000  0.001  0.001
   10  0.000  0.000  0.090  0.090
   11  0.023  0.001  0.035  0.059
   12  0.005  0.001  0.036  0.042
   13  0.023  0.001  0.035  0.059
   14  0.000  0.001  0.094  0.094
   15  0.005  0.000  0.027  0.033
   16  0.005  0.001  0.036  0.042
   17  0.005  0.000  0.027  0.033
   18  0.000  0.002  0.005  0.006
   19  0.001  0.000  0.015  0.016
   20  0.000  0.001  0.032  0.033
   21  0.008  0.001  0.047  0.055
   22  0.008  0.001  0.012  0.021
   23  0.008  0.001  0.047  0.055
   24  0.000  0.000  0.022  0.022
   25  0.000  0.000  0.024  0.025
   26  0.001  0.000  0.015  0.016
   27  0.008  0.001  0.012  0.021
   28  0.000  0.000  0.001  0.001
   29  0.000  0.000  0.003  0.003
   30  0.001  0.000  0.005  0.006
   31  0.000  0.000  0.003  0.003
   32  0.002  0.000  0.005  0.007
   33  0.001  0.000  0.005  0.006
   34  0.002  0.000  0.005  0.007
   35  0.000  0.000  0.006  0.006
   36  0.000  0.000  0.006  0.007
   37  0.000  0.000  0.000  0.000
tot    0.109  0.015  0.689  0.814
 
band    11 # energy   -5.07355251 # occ.  2.00000000
 
ion      s      p      d    tot
    1  0.000  0.000  0.002  0.002
    2  0.000  0.000  0.007  0.008
    3  0.000  0.000  0.007  0.008
    4  0.000  0.000  0.007  0.008
    5  0.006  0.001  0.001  0.007
    6  0.000  0.000  0.007  0.008
    7  0.000  0.000  0.007  0.008
    8  0.000  0.000  0.007  0.008
    9  0.000  0.000  0.006  0.007
   10  0.008  0.001  0.005  0.014
   11  0.013  0.001  0.041  0.054
   12  0.008  0.001  0.005  0.014
   13  0.013  0.001  0.041  0.054
   14  0.013  0.001  0.041  0.054
   15  0.002  0.000  0.043  0.045
   16  0.008  0.001  0.005  0.014
   17  0.002  0.000  0.043  0.045
   18  0.002  0.000  0.043  0.045
   19  0.012  0.001  0.030  0.043
   20  0.006  0.001  0.025  0.033
   21  0.006  0.001  0.025  0.032
   22  0.000  0.000  0.042  0.042
   23  0.006  0.001  0.025  0.032
   24  0.000  0.000  0.042  0.042
   25  0.012  0.001  0.030  0.043
   26  0.012  0.001  0.030  0.043
   27  0.000  0.000  0.042  0.042
   28  0.003  0.001  0.005  0.008
   29  0.000  0.000  0.005  0.005
   30  0.000  0.000  0.005  0.005
   31  0.000  0.000  0.005  0.005
   32  0.000  0.000  0.005  0.005
   33  0.000  0.000  0.005  0.005
   34  0.000  0.000  0.005  0.005
   35  0.001  0.000  0.002  0.003
   36  0.001  0.000  0.000  0.001
   37  0.000  0.000  0.000  0.000
tot    0.133  0.019  0.642  0.794
 
band    12 # energy   -5.05114900 # occ.  2.00000000
 
ion      s      p      d    tot
    1  0.002  0.000  0.017  0.019
    2  0.004  0.000  0.014  0.018
    3  0.004  0.000  0.014  0.018
    4  0.004  0.000  0.014  0.018
    5  0.001  0.000  0.005  0.006
    6  0.004  0.000  0.014  0.018
    7  0.004  0.000  0.014  0.018
    8  0.004  0.000  0.014  0.018
    9  0.012  0.000  0.014  0.026
   10  0.003  0.000  0.016  0.019
   11  0.001  0.000  0.012  0.013
   12  0.003  0.000  0.016  0.019
   13  0.001  0.000  0.012  0.013
   14  0.001  0.000  0.012  0.013
   15  0.000  0.000  0.022  0.022
   16  0.003  0.000  0.016  0.019
   17  0.000  0.000  0.022  0.022
   18  0.000  0.000  0.022  0.022
   19  0.002  0.001  0.007  0.010
   20  0.003  0.000  0.029  0.033
   21  0.003  0.000  0.029  0.032
   22  0.003  0.000  0.047  0.050
   23  0.003  0.000  0.029  0.032
   24  0.003  0.000  0.047  0.050
   25  0.002  0.001  0.007  0.010
   26  0.002  0.001  0.007  0.010
   27  0.003  0.000  0.047  0.050
   28  0.014  0.001  0.003  0.018
   29  0.006  0.000  0.017  0.023
   30  0.006  0.000  0.017  0.023
   31  0.006  0.000  0.017  0.023
   32  0.006  0.000  0.017  0.023
   33  0.006  0.000  0.017  0.023
   34  0.006  0.000  0.017  0.023
   35  0.005  0.000  0.033  0.039
   36  0.000  0.001  0.005  0.006
   37  0.000  0.000  0.000  0.000
tot    0.130  0.009  0.662  0.801
 
band    13 # energy   -5.03984122 # occ.  2.00000000
 
ion      s      p      d    tot
    1  0.000  0.001  0.008  0.009
    2  0.004  0.001  0.006  0.011
    3  0.002  0.000  0.005  0.007
    4  0.004  0.001  0.006  0.011
    5  0.000  0.000  0.008  0.008
    6  0.000  0.000  0.007  0.007
    7  0.003  0.000  0.005  0.008
    8  0.000  0.000  0.007  0.008
    9  0.000  0.000  0.012  0.013
   10  0.018  0.000  0.012  0.030
   11  0.000  0.000  0.014  0.014
   12  0.004  0.000  0.032  0.036
   13  0.000  0.000  0.013  0.013
   14  0.001  0.000  0.022  0.023
   15  0.003  0.000  0.040  0.043
   16  0.005  0.000  0.030  0.035
   17  0.002  0.000  0.043  0.046
   18  0.010  0.000  0.014  0.025
   19  0.003  0.000  0.062  0.066
   20  0.001  0.000  0.050  0.052
   21  0.000  0.001  0.024  0.025
   22  0.004  0.000  0.048  0.053
   23  0.000  0.001  0.027  0.028
   24  0.019  0.000  0.013  0.033
   25  0.010  0.000  0.007  0.018
   26  0.002  0.000  0.070  0.072
   27  0.006  0.000  0.044  0.050
   28  0.000  0.000  0.009  0.009
   29  0.001  0.000  0.009  0.010
   30  0.002  0.000  0.003  0.005
   31  0.000  0.000  0.008  0.009
   32  0.004  0.001  0.007  0.012
   33  0.002  0.000  0.003  0.005
   34  0.004  0.001  0.008  0.013
   35  0.000  0.000  0.005  0.005
   36  0.000  0.000  0.004  0.004
   37  0.000  0.000  0.000  0.000
tot    0.115  0.013  0.685  0.813
 
band    14 # energy   -5.03979498 # occ.  2.00000000
 
ion      s      p      d    tot
    1  0.000  0.001  0.008  0.009
    2  0.000  0.000  0.006  0.006
    3  0.002  0.001  0.007  0.010
    4  0.000  0.000  0.006  0.006
    5  0.000  0.000  0.008  0.008
    6  0.004  0.001  0.005  0.010
    7  0.002  0.001  0.007  0.009
    8  0.004  0.001  0.005  0.010
    9  0.000  0.000  0.012  0.012
   10  0.000  0.000  0.037  0.037
   11  0.001  0.000  0.019  0.019
   12  0.014  0.000  0.017  0.032
   13  0.001  0.000  0.020  0.021
   14  0.000  0.000  0.010  0.010
   15  0.007  0.000  0.025  0.032
   16  0.012  0.000  0.020  0.032
   17  0.008  0.000  0.022  0.030
   18  0.000  0.000  0.051  0.051
   19  0.007  0.000  0.031  0.038
   20  0.000  0.001  0.018  0.018
   21  0.001  0.000  0.044  0.045
   22  0.015  0.000  0.022  0.038
   23  0.001  0.001  0.041  0.042
   24  0.000  0.000  0.057  0.058
   25  0.000  0.000  0.086  0.086
   26  0.008  0.000  0.023  0.032
   27  0.014  0.000  0.026  0.040
   28  0.000  0.000  0.009  0.009
   29  0.004  0.001  0.004  0.008
   30  0.002  0.001  0.010  0.013
   31  0.004  0.001  0.004  0.009
   32  0.000  0.000  0.005  0.005
   33  0.003  0.001  0.010  0.013
   34  0.000  0.000  0.005  0.005
   35  0.000  0.000  0.005  0.005
   36  0.000  0.000  0.004  0.004
   37  0.000  0.000  0.000  0.000
tot    0.115  0.013  0.685  0.813
 
band    15 # energy   -5.03597074 # occ.  2.00000000
 
ion      s      p      d    tot
    1  0.001  0.000  0.014  0.015
    2  0.000  0.000  0.007  0.007
    3  0.000  0.000  0.007  0.007
    4  0.000  0.000  0.007  0.007
    5  0.000  0.000  0.000  0.001
    6  0.000  0.000  0.007  0.007
    7  0.000  0.000  0.007  0.007
    8  0.000  0.000  0.007  0.007
    9  0.002  0.001  0.004  0.006
   10  0.001  0.000  0.082  0.083
   11  0.004  0.001  0.012  0.017
   12  0.001  0.000  0.081  0.082
   13  0.004  0.001  0.012  0.017
   14  0.004  0.001  0.012  0.017
   15  0.008  0.000  0.040  0.049
   16  0.001  0.000  0.081  0.082
   17  0.008  0.000  0.040  0.049
   18  0.008  0.000  0.040  0.049
   19  0.002  0.000  0.037  0.040
   20  0.000  0.001  0.012  0.013
   21  0.000  0.001  0.012  0.013
   22  0.000  0.000  0.033  0.033
   23  0.000  0.001  0.012  0.013
   24  0.000  0.000  0.033  0.033
   25  0.002  0.000  0.037  0.040
   26  0.002  0.000  0.037  0.040
   27  0.000  0.000  0.033  0.033
   28  0.002  0.000  0.012  0.014
   29  0.001  0.000  0.009  0.010
   30  0.001  0.000  0.009  0.010
   31  0.001  0.000  0.009  0.010
   32  0.001  0.000  0.009  0.010
   33  0.001  0.000  0.009  0.010
   34  0.001  0.000  0.009  0.010
   35  0.000  0.000  0.000  0.000
   36  0.001  0.000  0.000  0.002
   37  0.000  0.000  0.000  0.000
tot    0.060  0.009  0.771  0.841
 
band    16 # energy   -5.02633310 # occ.  2.00000000
 
ion      s      p      d    tot
    1  0.000  0.000  0.009  0.009
    2  0.000  0.000  0.009  0.009
    3  0.001  0.000  0.006  0.007
    4  0.000  0.000  0.009  0.009
    5  0.000  0.000  0.001  0.001
    6  0.001  0.000  0.005  0.006
    7  0.001  0.000  0.006  0.007
    8  0.001  0.000  0.005  0.006
    9  0.000  0.000  0.013  0.013
   10  0.006  0.000  0.047  0.053
   11  0.000  0.000  0.051  0.052
   12  0.001  0.000  0.021  0.023
   13  0.000  0.000  0.053  0.053
   14  0.001  0.000  0.022  0.024
   15  0.003  0.000  0.084  0.087
   16  0.002  0.000  0.022  0.024
   17  0.003  0.000  0.087  0.090
   18  0.012  0.000  0.016  0.029
   19  0.000  0.000  0.050  0.050
   20  0.000  0.000  0.037  0.037
   21  0.000  0.000  0.015  0.016
   22  0.000  0.000  0.035  0.035
   23  0.000  0.000  0.016  0.016
   24  0.002  0.000  0.034  0.036
   25  0.002  0.000  0.010  0.012
   26  0.000  0.000  0.051  0.052
   27  0.001  0.000  0.035  0.035
   28  0.000  0.000  0.009  0.009
   29  0.002  0.000  0.006  0.007
   30  0.000  0.000  0.004  0.004
   31  0.002  0.000  0.006  0.007
   32  0.000  0.000  0.006  0.006
   33  0.000  0.000  0.004  0.004
   34  0.000  0.000  0.006  0.006
   35  0.000  0.000  0.011  0.011
   36  0.000  0.000  0.000  0.001
   37  0.000  0.000  0.000  0.000
tot    0.043  0.007  0.799  0.849
 
band    17 # energy   -5.02625259 # occ.  2.00000000
 
ion      s      p      d    tot
    1  0.000  0.000  0.009  0.009
    2  0.001  0.000  0.004  0.006
    3  0.000  0.000  0.008  0.008
    4  0.001  0.000  0.004  0.006
    5  0.000  0.000  0.001  0.001
    6  0.000  0.000  0.009  0.009
    7  0.000  0.000  0.007  0.008
    8  0.000  0.000  0.008  0.009
    9  0.000  0.000  0.013  0.013
   10  0.000  0.000  0.013  0.013
   11  0.001  0.000  0.033  0.034
   12  0.004  0.000  0.039  0.044
   13  0.001  0.000  0.031  0.033
   14  0.000  0.000  0.062  0.062
   15  0.009  0.000  0.041  0.050
   16  0.004  0.000  0.038  0.042
   17  0.009  0.000  0.038  0.047
   18  0.000  0.000  0.108  0.108
   19  0.001  0.000  0.024  0.026
   20  0.000  0.000  0.009  0.009
   21  0.000  0.000  0.030  0.031
   22  0.002  0.000  0.034  0.036
   23  0.000  0.000  0.030  0.030
   24  0.000  0.000  0.035  0.035
   25  0.000  0.000  0.064  0.064
   26  0.001  0.000  0.023  0.024
   27  0.001  0.000  0.034  0.036
   28  0.000  0.000  0.009  0.009
   29  0.000  0.000  0.004  0.004
   30  0.001  0.000  0.007  0.008
   31  0.000  0.000  0.004  0.005
   32  0.001  0.000  0.004  0.006
   33  0.001  0.000  0.007  0.008
   34  0.001  0.000  0.004  0.006
   35  0.000  0.000  0.011  0.011
   36  0.000  0.000  0.000  0.001
   37  0.000  0.000  0.000  0.000
tot    0.043  0.007  0.799  0.849
 
band    18 # energy   -4.93803656 # occ.  2.00000000
 
ion      s      p      d    tot
    1  0.000  0.000  0.002  0.002
    2  0.001  0.000  0.005  0.006
    3  0.001  0.001  0.005  0.007
    4  0.001  0.000  0.005  0.006
    5  0.000  0.001  0.015  0.016
    6  0.000  0.000  0.006  0.006
    7  0.001  0.001  0.005  0.007
    8  0.000  0.000  0.006  0.006
    9  0.000  0.000  0.007  0.007
   10  0.000  0.000  0.006  0.006
   11  0.003  0.000  0.051  0.054
   12  0.000  0.001  0.019  0.020
   13  0.003  0.000  0.052  0.055
   14  0.000  0.000  0.065  0.066
   15  0.002  0.000  0.016  0.019
   16  0.000  0.001  0.019  0.021
   17  0.002  0.000  0.016  0.018
   18  0.000  0.000  0.010  0.010
   19  0.000  0.001  0.017  0.018
   20  0.000  0.000  0.130  0.130
   21  0.001  0.000  0.104  0.105
   22  0.000  0.001  0.027  0.027
   23  0.001  0.000  0.102  0.103
   24  0.000  0.000  0.038  0.038
   25  0.000  0.000  0.000  0.000
   26  0.000  0.001  0.016  0.017
   27  0.000  0.001  0.026  0.027
   28  0.000  0.000  0.002  0.002
   29  0.001  0.001  0.010  0.011
   30  0.001  0.001  0.008  0.010
   31  0.001  0.001  0.009  0.011
   32  0.000  0.000  0.007  0.007
   33  0.001  0.000  0.008  0.009
   34  0.000  0.000  0.007  0.007
   35  0.000  0.000  0.000  0.000
   36  0.000  0.002  0.016  0.018
   37  0.000  0.002  0.000  0.002
tot    0.021  0.016  0.836  0.873
 
band    19 # energy   -4.93800670 # occ.  2.00000000
 
ion      s      p      d    tot
    1  0.000  0.000  0.002  0.002
    2  0.001  0.001  0.006  0.007
    3  0.000  0.000  0.005  0.006
    4  0.001  0.001  0.006  0.007
    5  0.000  0.001  0.015  0.016
    6  0.001  0.000  0.005  0.007
    7  0.000  0.000  0.005  0.005
    8  0.001  0.000  0.005  0.006
    9  0.000  0.000  0.007  0.007
   10  0.001  0.001  0.023  0.025
   11  0.001  0.000  0.061  0.062
   12  0.000  0.000  0.011  0.011
   13  0.001  0.000  0.060  0.061
   14  0.004  0.000  0.047  0.051
   15  0.001  0.000  0.012  0.012
   16  0.000  0.000  0.010  0.010
   17  0.001  0.000  0.012  0.013
   18  0.002  0.000  0.018  0.021
   19  0.000  0.000  0.005  0.005
   20  0.002  0.000  0.094  0.096
   21  0.000  0.000  0.120  0.120
   22  0.000  0.000  0.034  0.034
   23  0.000  0.000  0.122  0.122
   24  0.000  0.001  0.022  0.023
   25  0.000  0.001  0.022  0.023
   26  0.000  0.000  0.006  0.006
   27  0.000  0.000  0.034  0.035
   28  0.000  0.000  0.002  0.002
   29  0.000  0.000  0.007  0.007
   30  0.000  0.000  0.008  0.009
   31  0.000  0.000  0.007  0.008
   32  0.001  0.001  0.009  0.011
   33  0.000  0.000  0.009  0.009
   34  0.001  0.001  0.009  0.011
   35  0.000  0.000  0.000  0.000
   36  0.000  0.002  0.016  0.018
   37  0.000  0.002  0.000  0.002
tot    0.021  0.016  0.836  0.873
 
band    20 # energy   -4.91583721 # occ.  2.00000000
 
ion      s      p      d    tot
    1  0.000  0.000  0.000  0.000
    2  0.000  0.000  0.004  0.004
    3  0.000  0.000  0.004  0.004
    4  0.000  0.000  0.004  0.004
    5  0.001  0.001  0.018  0.020
    6  0.000  0.000  0.004  0.004
    7  0.000  0.000  0.004  0.004
    8  0.000  0.000  0.004  0.004
    9  0.000  0.000  0.009  0.010
   10  0.001  0.000  0.007  0.008
   11  0.000  0.001  0.089  0.089
   12  0.001  0.000  0.007  0.008
   13  0.000  0.001  0.089  0.089
   14  0.000  0.001  0.088  0.089
   15  0.001  0.001  0.042  0.043
   16  0.001  0.000  0.007  0.008
   17  0.001  0.001  0.042  0.043
   18  0.001  0.001  0.042  0.043
   19  0.001  0.000  0.014  0.015
   20  0.002  0.000  0.058  0.060
   21  0.002  0.000  0.057  0.060
   22  0.004  0.000  0.020  0.024
   23  0.002  0.000  0.057  0.060
   24  0.004  0.000  0.020  0.024
   25  0.001  0.000  0.014  0.015
   26  0.001  0.000  0.014  0.015
   27  0.004  0.000  0.020  0.024
   28  0.004  0.001  0.000  0.005
   29  0.000  0.000  0.013  0.014
   30  0.000  0.000  0.013  0.014
   31  0.000  0.000  0.013  0.014
   32  0.000  0.000  0.013  0.014
   33  0.000  0.000  0.013  0.014
   34  0.000  0.000  0.013  0.014
   35  0.004  0.001  0.001  0.005
   36  0.001  0.001  0.003  0.004
   37  0.001  0.001  0.000  0.001
tot    0.034  0.013  0.817  0.864
 
band    21 # energy   -4.87065060 # occ.  2.00000000
 
ion      s      p      d    tot
    1  0.000  0.000  0.002  0.002
    2  0.000  0.001  0.014  0.015
    3  0.000  0.001  0.014  0.015
    4  0.000  0.001  0.014  0.015
    5  0.005  0.001  0.000  0.006
    6  0.000  0.001  0.014  0.015
    7  0.000  0.001  0.014  0.015
    8  0.000  0.001  0.014  0.015
    9  0.004  0.001  0.001  0.006
   10  0.003  0.000  0.034  0.037
   11  0.000  0.000  0.030  0.031
   12  0.003  0.000  0.034  0.037
   13  0.000  0.000  0.030  0.031
   14  0.000  0.000  0.030  0.031
   15  0.005  0.000  0.014  0.019
   16  0.003  0.000  0.034  0.037
   17  0.005  0.000  0.014  0.019
   18  0.005  0.000  0.014  0.019
   19  0.001  0.000  0.057  0.058
   20  0.000  0.000  0.010  0.011
   21  0.000  0.000  0.010  0.011
   22  0.000  0.001  0.040  0.041
   23  0.000  0.000  0.010  0.011
   24  0.000  0.001  0.040  0.041
   25  0.001  0.000  0.057  0.058
   26  0.001  0.000  0.058  0.058
   27  0.000  0.001  0.040  0.041
   28  0.002  0.000  0.029  0.031
   29  0.001  0.000  0.015  0.016
   30  0.001  0.000  0.015  0.016
   31  0.001  0.000  0.015  0.016
   32  0.001  0.000  0.015  0.016
   33  0.001  0.000  0.015  0.016
   34  0.001  0.000  0.015  0.016
   35  0.008  0.001  0.000  0.009
   36  0.003  0.001  0.000  0.003