PROCAR new format
# of k-points:   10         # of bands:  252         # of ions:   39

 k-point     1 :    0.00000000 0.00000000 0.00000000     weight = 0.01562500

band     1 # energy  -24.41476896 # occ.  2.00000000
 
ion      s      p      d    tot
    1  0.000  0.000  0.000  0.000
    2  0.000  0.000  0.000  0.000
    3  0.000  0.000  0.000  0.000
    4  0.000  0.000  0.000  0.000
    5  0.000  0.000  0.000  0.000
    6  0.000  0.000  0.000  0.000
    7  0.000  0.000  0.000  0.000
    8  0.000  0.000  0.000  0.000
    9  0.000  0.000  0.000  0.000
   10  0.000  0.000  0.000  0.000
   11  0.000  0.000  0.000  0.000
   12  0.000  0.000  0.000  0.000
   13  0.000  0.000  0.000  0.000
   14  0.000  0.000  0.000  0.000
   15  0.000  0.000  0.000  0.000
   16  0.000  0.000  0.000  0.000
   17  0.000  0.000  0.000  0.000
   18  0.000  0.000  0.000  0.000
   19  0.000  0.000  0.000  0.000
   20  0.000  0.000  0.000  0.000
   21  0.000  0.000  0.000  0.000
   22  0.000  0.000  0.000  0.000
   23  0.000  0.000  0.000  0.000
   24  0.000  0.000  0.000  0.000
   25  0.000  0.000  0.000  0.000
   26  0.000  0.000  0.000  0.000
   27  0.000  0.000  0.000  0.000
   28  0.000  0.000  0.000  0.000
   29  0.000  0.000  0.000  0.000
   30  0.000  0.000  0.000  0.000
   31  0.000  0.000  0.000  0.000
   32  0.000  0.000  0.000  0.000
   33  0.000  0.000  0.000  0.000
   34  0.000  0.000  0.000  0.000
   35  0.000  0.000  0.000  0.000
   36  0.000  0.000  0.000  0.000
   37  0.082  0.061  0.000  0.143
   38  0.724  0.009  0.000  0.733
   39  0.058  0.013  0.000  0.071
tot    0.865  0.083  0.000  0.948
 
band     2 # energy  -15.03940636 # occ.  2.00000000
 
ion      s      p      d    tot
    1  0.000  0.000  0.000  0.000
    2  0.000  0.000  0.000  0.000
    3  0.000  0.000  0.000  0.000
    4  0.000  0.000  0.000  0.000
    5  0.000  0.000  0.000  0.000
    6  0.000  0.000  0.000  0.000
    7  0.000  0.000  0.000  0.000
    8  0.000  0.000  0.000  0.000
    9  0.000  0.000  0.000  0.000
   10  0.000  0.000  0.000  0.000
   11  0.000  0.000  0.000  0.000
   12  0.000  0.000  0.000  0.000
   13  0.000  0.000  0.000  0.000
   14  0.000  0.000  0.000  0.000
   15  0.000  0.000  0.000  0.000
   16  0.000  0.000  0.000  0.000
   17  0.000  0.000  0.000  0.000
   18  0.000  0.000  0.000  0.000
   19  0.000  0.000  0.000  0.000
   20  0.000  0.000  0.000  0.000
   21  0.000  0.000  0.000  0.000
   22  0.000  0.000  0.000  0.000
   23  0.000  0.000  0.000  0.000
   24  0.000  0.000  0.000  0.000
   25  0.000  0.000  0.000  0.000
   26  0.000  0.000  0.000  0.000
   27  0.000  0.000  0.000  0.000
   28  0.000  0.000  0.000  0.000
   29  0.000  0.000  0.000  0.000
   30  0.000  0.000  0.000  0.000
   31  0.000  0.000  0.000  0.000
   32  0.000  0.000  0.000  0.000
   33  0.000  0.000  0.000  0.000
   34  0.000  0.000  0.000  0.000
   35  0.000  0.000  0.000  0.000
   36  0.003  0.002  0.002  0.007
   37  0.157  0.051  0.000  0.207
   38  0.020  0.527  0.000  0.547
   39  0.203  0.033  0.000  0.236
tot    0.382  0.613  0.002  0.998
 
band     3 # energy   -8.58714079 # occ.  2.00000000
 
ion      s      p      d    tot
    1  0.006  0.000  0.000  0.006
    2  0.005  0.000  0.000  0.006
    3  0.005  0.000  0.000  0.006
    4  0.005  0.000  0.000  0.006
    5  0.005  0.000  0.000  0.006
    6  0.005  0.000  0.000  0.006
    7  0.005  0.000  0.000  0.006
    8  0.005  0.000  0.000  0.006
    9  0.005  0.000  0.000  0.006
   10  0.023  0.000  0.000  0.023
   11  0.024  0.000  0.000  0.024
   12  0.023  0.000  0.000  0.023
   13  0.024  0.000  0.000  0.024
   14  0.024  0.000  0.000  0.024
   15  0.023  0.000  0.000  0.023
   16  0.023  0.000  0.000  0.023
   17  0.023  0.000  0.000  0.023
   18  0.023  0.000  0.000  0.023
   19  0.022  0.000  0.000  0.022
   20  0.028  0.000  0.000  0.028
   21  0.028  0.000  0.000  0.028
   22  0.023  0.000  0.000  0.023
   23  0.028  0.000  0.000  0.028
   24  0.023  0.000  0.000  0.023
   25  0.022  0.000  0.000  0.022
   26  0.022  0.000  0.000  0.022
   27  0.023  0.000  0.000  0.023
   28  0.005  0.000  0.000  0.005
   29  0.007  0.000  0.000  0.007
   30  0.007  0.000  0.000  0.007
   31  0.007  0.000  0.000  0.007
   32  0.007  0.000  0.000  0.007
   33  0.007  0.000  0.000  0.007
   34  0.007  0.000  0.000  0.007
   35  0.005  0.000  0.000  0.005
   36  0.022  0.001  0.009  0.032
   37  0.011  0.012  0.000  0.022
   38  0.001  0.004  0.000  0.005
   39  0.001  0.000  0.000  0.001
tot    0.560  0.027  0.012  0.599
 
band     4 # energy   -7.89221907 # occ.  2.00000000
 
ion      s      p      d    tot
    1  0.004  0.000  0.000  0.005
    2  0.005  0.000  0.000  0.005
    3  0.005  0.000  0.000  0.005
    4  0.005  0.000  0.000  0.005
    5  0.005  0.000  0.000  0.005
    6  0.005  0.000  0.000  0.005
    7  0.005  0.000  0.000  0.005
    8  0.005  0.000  0.000  0.005
    9  0.005  0.000  0.000  0.005
   10  0.007  0.000  0.001  0.008
   11  0.008  0.000  0.001  0.008
   12  0.007  0.000  0.001  0.008
   13  0.008  0.000  0.001  0.008
   14  0.008  0.000  0.001  0.008
   15  0.009  0.000  0.000  0.010
   16  0.007  0.000  0.001  0.008
   17  0.009  0.000  0.000  0.010
   18  0.009  0.000  0.000  0.010
   19  0.000  0.000  0.000  0.001
   20  0.001  0.002  0.002  0.005
   21  0.001  0.002  0.002  0.005
   22  0.000  0.000  0.000  0.001
   23  0.001  0.002  0.002  0.005
   24  0.000  0.000  0.000  0.001
   25  0.000  0.000  0.000  0.001
   26  0.000  0.000  0.000  0.001
   27  0.000  0.000  0.000  0.001
   28  0.001  0.000  0.001  0.002
   29  0.005  0.001  0.003  0.009
   30  0.005  0.001  0.003  0.009
   31  0.005  0.001  0.003  0.009
   32  0.005  0.001  0.003  0.009
   33  0.005  0.001  0.003  0.009
   34  0.005  0.001  0.003  0.009
   35  0.001  0.000  0.000  0.002
   36  0.115  0.049  0.112  0.276
   37  0.136  0.128  0.000  0.264
   38  0.010  0.038  0.000  0.047
   39  0.010  0.001  0.000  0.011
tot    0.423  0.230  0.144  0.797
 
band     5 # energy   -7.20835364 # occ.  2.00000000
 
ion      s      p      d    tot
    1  0.016  0.000  0.001  0.018
    2  0.015  0.000  0.001  0.016
    3  0.015  0.000  0.001  0.016
    4  0.015  0.000  0.001  0.016
    5  0.014  0.000  0.001  0.016
    6  0.015  0.000  0.001  0.016
    7  0.015  0.000  0.001  0.016
    8  0.015  0.000  0.001  0.016
    9  0.014  0.000  0.002  0.015
   10  0.007  0.001  0.002  0.010
   11  0.006  0.002  0.002  0.009
   12  0.007  0.001  0.002  0.010
   13  0.006  0.002  0.002  0.009
   14  0.006  0.002  0.002  0.009
   15  0.004  0.002  0.002  0.008
   16  0.007  0.001  0.002  0.010
   17  0.004  0.002  0.002  0.008
   18  0.004  0.002  0.002  0.008
   19  0.018  0.001  0.005  0.024
   20  0.012  0.000  0.008  0.020
   21  0.012  0.000  0.008  0.020
   22  0.022  0.001  0.005  0.027
   23  0.012  0.000  0.008  0.020
   24  0.022  0.001  0.005  0.027
   25  0.018  0.001  0.005  0.024
   26  0.018  0.001  0.005  0.024
   27  0.022  0.001  0.005  0.027
   28  0.011  0.001  0.000  0.011
   29  0.006  0.001  0.002  0.008
   30  0.006  0.001  0.002  0.008
   31  0.006  0.001  0.002  0.008
   32  0.006  0.001  0.002  0.008
   33  0.006  0.001  0.002  0.008
   34  0.006  0.001  0.002  0.008
   35  0.011  0.001  0.000  0.012
   36  0.010  0.019  0.035  0.065
   37  0.036  0.031  0.000  0.067
   38  0.002  0.008  0.000  0.010
   39  0.002  0.000  0.000  0.002
tot    0.443  0.087  0.131  0.661
 
band     6 # energy   -7.16116423 # occ.  2.00000000
 
ion      s      p      d    tot
    1  0.000  0.000  0.000  0.000
    2  0.000  0.000  0.000  0.000
    3  0.000  0.000  0.000  0.000
    4  0.000  0.000  0.000  0.000
    5  0.000  0.000  0.000  0.000
    6  0.000  0.000  0.000  0.000
    7  0.000  0.000  0.000  0.000
    8  0.000  0.000  0.000  0.000
    9  0.000  0.000  0.000  0.000
   10  0.000  0.000  0.000  0.000
   11  0.000  0.000  0.000  0.000
   12  0.000  0.000  0.000  0.000
   13  0.000  0.000  0.000  0.000
   14  0.000  0.000  0.000  0.000
   15  0.000  0.000  0.000  0.000
   16  0.000  0.000  0.000  0.000
   17  0.000  0.000  0.000  0.000
   18  0.000  0.000  0.000  0.000
   19  0.000  0.000  0.000  0.000
   20  0.000  0.000  0.000  0.000
   21  0.000  0.000  0.000  0.000
   22  0.000  0.000  0.000  0.000
   23  0.000  0.000  0.000  0.000
   24  0.000  0.000  0.000  0.000
   25  0.000  0.000  0.000  0.000
   26  0.000  0.000  0.000  0.000
   27  0.000  0.000  0.000  0.000
   28  0.000  0.000  0.000  0.000
   29  0.001  0.000  0.001  0.003
   30  0.000  0.000  0.001  0.001
   31  0.001  0.000  0.001  0.003
   32  0.001  0.000  0.001  0.003
   33  0.000  0.000  0.001  0.001
   34  0.001  0.000  0.001  0.003
   35  0.000  0.000  0.000  0.000
   36  0.000  0.004  0.013  0.017
   37  0.000  0.117  0.000  0.117
   38  0.000  0.525  0.000  0.525
   39  0.000  0.007  0.000  0.007
tot    0.006  0.655  0.019  0.680
 
band     7 # energy   -7.16096137 # occ.  2.00000000
 
ion      s      p      d    tot
    1  0.000  0.000  0.000  0.000
    2  0.000  0.000  0.000  0.000
    3  0.000  0.000  0.000  0.000
    4  0.000  0.000  0.000  0.000
    5  0.000  0.000  0.000  0.000
    6  0.000  0.000  0.000  0.000
    7  0.000  0.000  0.000  0.000
    8  0.000  0.000  0.000  0.000
    9  0.000  0.000  0.000  0.000
   10  0.000  0.000  0.000  0.000
   11  0.000  0.000  0.000  0.000
   12  0.000  0.000  0.000  0.000
   13  0.000  0.000  0.000  0.000
   14  0.000  0.000  0.000  0.000
   15  0.000  0.000  0.000  0.000
   16  0.000  0.000  0.000  0.000
   17  0.000  0.000  0.000  0.000
   18  0.000  0.000  0.000  0.000
   19  0.000  0.000  0.000  0.000
   20  0.000  0.000  0.000  0.000
   21  0.000  0.000  0.000  0.000
   22  0.000  0.000  0.000  0.000
   23  0.000  0.000  0.000  0.000
   24  0.000  0.000  0.000  0.000
   25  0.000  0.000  0.000  0.000
   26  0.000  0.000  0.000  0.000
   27  0.000  0.000  0.000  0.000
   28  0.000  0.000  0.000  0.000
   29  0.000  0.000  0.001  0.001
   30  0.002  0.000  0.001  0.004
   31  0.000  0.000  0.001  0.001
   32  0.000  0.000  0.001  0.001
   33  0.002  0.000  0.001  0.004
   34  0.000  0.000  0.001  0.001
   35  0.000  0.000  0.000  0.000
   36  0.000  0.004  0.013  0.017
   37  0.000  0.117  0.000  0.117
   38  0.000  0.525  0.000  0.525
   39  0.000  0.007  0.000  0.007
tot    0.006  0.655  0.019  0.680
 
band     8 # energy   -6.41708366 # occ.  2.00000000
 
ion      s      p      d    tot
    1  0.008  0.000  0.021  0.029
    2  0.015  0.000  0.016  0.031
    3  0.015  0.000  0.016  0.031
    4  0.015  0.000  0.016  0.031
    5  0.008  0.000  0.014  0.023
    6  0.015  0.000  0.016  0.031
    7  0.015  0.000  0.016  0.031
    8  0.015  0.000  0.016  0.031
    9  0.035  0.000  0.010  0.045
   10  0.013  0.001  0.021  0.035
   11  0.018  0.002  0.016  0.035
   12  0.013  0.001  0.021  0.035
   13  0.018  0.002  0.016  0.035
   14  0.018  0.002  0.016  0.035
   15  0.000  0.001  0.025  0.026
   16  0.013  0.001  0.021  0.035
   17  0.000  0.001  0.025  0.026
   18  0.000  0.001  0.025  0.026
   19  0.001  0.001  0.007  0.009
   20  0.008  0.001  0.007  0.016
   21  0.007  0.001  0.007  0.016
   22  0.006  0.001  0.002  0.008
   23  0.007  0.001  0.007  0.016
   24  0.006  0.001  0.002  0.008
   25  0.001  0.001  0.007  0.009
   26  0.001  0.001  0.007  0.009
   27  0.006  0.001  0.002  0.008
   28  0.004  0.000  0.000  0.004
   29  0.002  0.000  0.002  0.004
   30  0.002  0.000  0.002  0.004
   31  0.002  0.000  0.002  0.004
   32  0.002  0.000  0.002  0.004
   33  0.002  0.000  0.002  0.004
   34  0.002  0.000  0.002  0.004
   35  0.006  0.000  0.000  0.007
   36  0.000  0.001  0.000  0.002
   37  0.000  0.000  0.000  0.000
   38  0.000  0.000  0.000  0.000
   39  0.000  0.000  0.000  0.000
tot    0.297  0.022  0.389  0.708
 
band     9 # energy   -6.38585061 # occ.  2.00000000
 
ion      s      p      d    tot
    1  0.000  0.000  0.007  0.007
    2  0.006  0.001  0.004  0.010
    3  0.005  0.001  0.003  0.009
    4  0.006  0.001  0.004  0.011
    5  0.000  0.001  0.009  0.010
    6  0.000  0.000  0.003  0.003
    7  0.006  0.001  0.003  0.010
    8  0.000  0.000  0.003  0.003
    9  0.000  0.000  0.001  0.002
   10  0.000  0.000  0.032  0.033
   11  0.044  0.002  0.015  0.060
   12  0.017  0.001  0.012  0.030
   13  0.046  0.001  0.014  0.061
   14  0.000  0.002  0.033  0.035
   15  0.007  0.001  0.012  0.019
   16  0.016  0.001  0.012  0.030
   17  0.007  0.001  0.012  0.020
   18  0.000  0.004  0.002  0.006
   19  0.002  0.001  0.010  0.013
   20  0.000  0.003  0.027  0.030
   21  0.041  0.002  0.014  0.057
   22  0.022  0.001  0.011  0.035
   23  0.039  0.002  0.015  0.056
   24  0.000  0.000  0.035  0.035
   25  0.000  0.003  0.003  0.007
   26  0.002  0.001  0.011  0.014
   27  0.021  0.001  0.012  0.035
   28  0.000  0.000  0.001  0.001
   29  0.000  0.000  0.002  0.003
   30  0.006  0.001  0.003  0.010
   31  0.000  0.000  0.002  0.003
   32  0.004  0.001  0.004  0.008
   33  0.006  0.001  0.003  0.010
   34  0.004  0.001  0.004  0.008
   35  0.000  0.000  0.005  0.006
   36  0.000  0.002  0.002  0.004
   37  0.000  0.000  0.000  0.000
   38  0.000  0.001  0.000  0.001
   39  0.000  0.000  0.000  0.000
tot    0.307  0.044  0.344  0.694
 
band    10 # energy   -6.38584264 # occ.  2.00000000
 
ion      s      p      d    tot
    1  0.000  0.000  0.007  0.007
    2  0.002  0.001  0.003  0.006
    3  0.003  0.001  0.003  0.007
    4  0.002  0.001  0.003  0.006
    5  0.000  0.001  0.009  0.010
    6  0.007  0.001  0.004  0.011
    7  0.002  0.001  0.003  0.006
    8  0.007  0.001  0.003  0.011
    9  0.000  0.000  0.001  0.002
   10  0.022  0.002  0.007  0.031
   11  0.016  0.002  0.027  0.046
   12  0.005  0.001  0.025  0.031
   13  0.014  0.002  0.028  0.044
   14  0.058  0.001  0.007  0.066
   15  0.004  0.003  0.005  0.012
   16  0.006  0.001  0.024  0.031
   17  0.004  0.003  0.004  0.011
   18  0.006  0.000  0.017  0.023
   19  0.001  0.003  0.007  0.010
   20  0.059  0.001  0.009  0.069
   21  0.010  0.003  0.024  0.036
   22  0.006  0.001  0.027  0.034
   23  0.011  0.003  0.023  0.037
   24  0.031  0.002  0.004  0.036
   25  0.003  0.000  0.011  0.014
   26  0.001  0.003  0.006  0.010
   27  0.007  0.001  0.026  0.034
   28  0.000  0.000  0.001  0.001
   29  0.006  0.001  0.004  0.011
   30  0.001  0.000  0.002  0.004
   31  0.006  0.001  0.004  0.011
   32  0.003  0.001  0.002  0.006
   33  0.001  0.000  0.003  0.004
   34  0.003  0.001  0.002  0.006
   35  0.000  0.000  0.005  0.006
   36  0.000  0.002  0.002  0.004
   37  0.000  0.000  0.000  0.000
   38  0.000  0.001  0.000  0.001
   39  0.000  0.000  0.000  0.000
tot    0.306  0.044  0.344  0.694
 
band    11 # energy   -6.38566398 # occ.  2.00000000
 
ion      s      p      d    tot
    1  0.014  0.000  0.002  0.017
    2  0.004  0.000  0.009  0.013
    3  0.004  0.000  0.009  0.014
    4  0.004  0.000  0.009  0.013
    5  0.013  0.000  0.006  0.018
    6  0.006  0.000  0.009  0.015
    7  0.004  0.000  0.009  0.014
    8  0.006  0.000  0.009  0.015
    9  0.001  0.002  0.011  0.013
   10  0.000  0.000  0.031  0.031
   11  0.000  0.002  0.018  0.020
   12  0.000  0.000  0.033  0.034
   13  0.000  0.002  0.018  0.020
   14  0.002  0.002  0.020  0.024
   15  0.034  0.001  0.011  0.047
   16  0.000  0.000  0.033  0.034
   17  0.035  0.001  0.011  0.047
   18  0.039  0.001  0.008  0.049
   19  0.000  0.000  0.021  0.021
   20  0.020  0.001  0.013  0.033
   21  0.028  0.001  0.011  0.039
   22  0.005  0.002  0.013  0.020
   23  0.028  0.001  0.010  0.039
   24  0.003  0.002  0.012  0.017
   25  0.000  0.000  0.024  0.024
   26  0.000  0.000  0.021  0.022
   27  0.005  0.002  0.013  0.020
   28  0.002  0.000  0.000  0.002
   29  0.001  0.000  0.004  0.005
   30  0.001  0.000  0.005  0.006
   31  0.001  0.000  0.004  0.005
   32  0.001  0.000  0.004  0.005
   33  0.001  0.000  0.005  0.006
   34  0.001  0.000  0.004  0.005
   35  0.005  0.000  0.001  0.006
   36  0.000  0.005  0.000  0.005
   37  0.002  0.001  0.000  0.003
   38  0.000  0.000  0.000  0.001
   39  0.000  0.000  0.000  0.000
tot    0.271  0.032  0.419  0.721
 
band    12 # energy   -6.37124873 # occ.  2.00000000
 
ion      s      p      d    tot
    1  0.011  0.001  0.001  0.013
    2  0.000  0.001  0.006  0.007
    3  0.000  0.001  0.006  0.007
    4  0.000  0.001  0.006  0.007
    5  0.013  0.002  0.002  0.017
    6  0.000  0.001  0.006  0.007
    7  0.000  0.001  0.006  0.007
    8  0.000  0.001  0.006  0.007
    9  0.000  0.000  0.001  0.001
   10  0.026  0.003  0.002  0.031
   11  0.020  0.000  0.023  0.044
   12  0.026  0.003  0.002  0.031
   13  0.020  0.000  0.023  0.044
   14  0.021  0.000  0.023  0.044
   15  0.000  0.001  0.022  0.024
   16  0.026  0.003  0.002  0.031
   17  0.000  0.001  0.022  0.024
   18  0.000  0.001  0.022  0.023
   19  0.028  0.003  0.004  0.034
   20  0.003  0.002  0.018  0.023
   21  0.003  0.002  0.018  0.023
   22  0.010  0.000  0.026  0.036
   23  0.003  0.002  0.018  0.023
   24  0.010  0.000  0.026  0.037
   25  0.027  0.003  0.004  0.034
   26  0.028  0.003  0.004  0.034
   27  0.010  0.000  0.026  0.036
   28  0.010  0.001  0.001  0.012
   29  0.000  0.000  0.004  0.004
   30  0.000  0.000  0.004  0.004
   31  0.000  0.000  0.004  0.004
   32  0.000  0.000  0.004  0.004
   33  0.000  0.000  0.004  0.004
   34  0.000  0.000  0.004  0.004
   35  0.006  0.001  0.002  0.009
   36  0.000  0.000  0.000  0.000
   37  0.000  0.000  0.000  0.000
   38  0.000  0.000  0.000  0.000
   39  0.000  0.000  0.000  0.000
tot    0.301  0.041  0.351  0.694
 
band    13 # energy   -6.34999537 # occ.  2.00000000
 
ion      s      p      d    tot
    1  0.000  0.001  0.006  0.007
    2  0.006  0.001  0.004  0.012
    3  0.006  0.001  0.004  0.011
    4  0.007  0.001  0.004  0.012
    5  0.000  0.000  0.003  0.003
    6  0.000  0.000  0.003  0.004
    7  0.007  0.001  0.004  0.011
    8  0.000  0.000  0.003  0.004
    9  0.000  0.001  0.011  0.012
   10  0.041  0.000  0.015  0.057
   11  0.000  0.002  0.013  0.016
   12  0.010  0.003  0.012  0.025
   13  0.000  0.002  0.013  0.016
   14  0.001  0.001  0.011  0.013
   15  0.015  0.001  0.036  0.051
   16  0.011  0.003  0.012  0.026
   17  0.013  0.001  0.037  0.051
   18  0.056  0.002  0.004  0.061
   19  0.012  0.001  0.027  0.041
   20  0.005  0.001  0.009  0.015
   21  0.001  0.001  0.016  0.018
   22  0.006  0.003  0.010  0.019
   23  0.001  0.001  0.015  0.018
   24  0.024  0.000  0.014  0.038
   25  0.048  0.002  0.004  0.054
   26  0.011  0.001  0.028  0.040
   27  0.006  0.003  0.010  0.020
   28  0.000  0.001  0.006  0.007
   29  0.000  0.000  0.002  0.002
   30  0.003  0.001  0.002  0.006
   31  0.000  0.000  0.002  0.002
   32  0.003  0.001  0.003  0.006
   33  0.003  0.001  0.002  0.006
   34  0.003  0.001  0.003  0.006
   35  0.000  0.001  0.002  0.003
   36  0.000  0.000  0.000  0.001
   37  0.000  0.000  0.000  0.000
   38  0.000  0.001  0.000  0.001
   39  0.000  0.000  0.000  0.000
tot    0.300  0.042  0.351  0.693
 
band    14 # energy   -6.34997207 # occ.  2.00000000
 
ion      s      p      d    tot
    1  0.000  0.001  0.006  0.007
    2  0.002  0.001  0.003  0.006
    3  0.002  0.001  0.004  0.007
    4  0.002  0.001  0.003  0.006
    5  0.000  0.000  0.003  0.003
    6  0.009  0.001  0.004  0.014
    7  0.002  0.001  0.004  0.007
    8  0.009  0.001  0.004  0.014
    9  0.000  0.001  0.011  0.012
   10  0.000  0.004  0.011  0.015
   11  0.001  0.001  0.012  0.014
   12  0.031  0.001  0.014  0.047
   13  0.001  0.001  0.012  0.014
   14  0.000  0.003  0.014  0.017
   15  0.041  0.001  0.015  0.057
   16  0.030  0.001  0.014  0.046
   17  0.042  0.001  0.014  0.058
   18  0.000  0.000  0.047  0.048
   19  0.035  0.002  0.012  0.049
   20  0.000  0.001  0.018  0.019
   21  0.004  0.001  0.011  0.016
   22  0.018  0.001  0.013  0.032
   23  0.004  0.001  0.011  0.016
   24  0.000  0.004  0.009  0.013
   25  0.000  0.001  0.035  0.036
   26  0.036  0.002  0.011  0.049
   27  0.018  0.001  0.013  0.032
   28  0.000  0.001  0.006  0.007
   29  0.004  0.001  0.002  0.007
   30  0.001  0.000  0.002  0.004
   31  0.004  0.001  0.002  0.007
   32  0.001  0.000  0.002  0.003
   33  0.001  0.000  0.003  0.004
   34  0.001  0.000  0.002  0.003
   35  0.000  0.001  0.002  0.003
   36  0.000  0.000  0.000  0.001
   37  0.000  0.000  0.000  0.000
   38  0.000  0.001  0.000  0.001
   39  0.000  0.000  0.000  0.000
tot    0.300  0.042  0.351  0.693
 
band    15 # energy   -6.16064025 # occ.  2.00000000
 
ion      s      p      d    tot
    1  0.001  0.000  0.000  0.001
    2  0.001  0.000  0.002  0.002
    3  0.001  0.000  0.002  0.002
    4  0.001  0.000  0.002  0.002
    5  0.004  0.000  0.000  0.004
    6  0.001  0.000  0.002  0.002
    7  0.001  0.000  0.002  0.002
    8  0.001  0.000  0.002  0.002
    9  0.001  0.000  0.001  0.003
   10  0.000  0.000  0.007  0.007
   11  0.002  0.001  0.001  0.004
   12  0.000  0.000  0.007  0.007
   13  0.002  0.001  0.001  0.004
   14  0.002  0.001  0.001  0.004
   15  0.006  0.001  0.005  0.012
   16  0.000  0.000  0.007  0.007
   17  0.006  0.001  0.005  0.012
   18  0.006  0.001  0.005  0.012
   19  0.001  0.001  0.013  0.016
   20  0.002  0.000  0.026  0.028
   21  0.002  0.000  0.026  0.028
   22  0.008  0.002  0.022  0.031
   23  0.002  0.000  0.026  0.028
   24  0.008  0.002  0.022  0.031
   25  0.001  0.001  0.013  0.016
   26  0.001  0.001  0.013  0.016
   27  0.008  0.002  0.022  0.031
   28  0.034  0.000  0.019  0.053
   29  0.022  0.000  0.021  0.044
   30  0.022  0.000  0.021  0.044
   31  0.022  0.000  0.021  0.044
   32  0.022  0.000  0.021  0.044
   33  0.022  0.000  0.021  0.044
   34  0.022  0.000  0.021  0.044
   35  0.030  0.000  0.021  0.051
   36  0.000  0.002  0.027  0.029
   37  0.008  0.006  0.000  0.014
   38  0.000  0.001  0.000  0.001
   39  0.000  0.000  0.000  0.000
tot    0.274  0.026  0.424  0.725
 
band    16 # energy   -5.91388107 # occ.  2.00000000
 
ion      s      p      d    tot
    1  0.015  0.002  0.002  0.019
    2  0.000  0.001  0.009  0.009
    3  0.000  0.001  0.009  0.009
    4  0.000  0.001  0.009  0.009
    5  0.000  0.000  0.002  0.002
    6  0.000  0.001  0.009  0.009
    7  0.000  0.001  0.009  0.009
    8  0.000  0.001  0.009  0.009
    9  0.018  0.002  0.000  0.019
   10  0.010  0.002  0.013  0.025
   11  0.002  0.000  0.043  0.045
   12  0.010  0.002  0.013  0.025
   13  0.002  0.000  0.043  0.045
   14  0.002  0.000  0.043  0.045
   15  0.003  0.001  0.024  0.029
   16  0.010  0.002  0.013  0.025
   17  0.003  0.001  0.024  0.029
   18  0.003  0.001  0.024  0.029
   19  0.005  0.001  0.013  0.018
   20  0.001  0.000  0.048  0.050
   21  0.001  0.000  0.048  0.050
   22  0.011  0.001  0.019  0.031
   23  0.001  0.000  0.048  0.050
   24  0.011  0.001  0.019  0.031
   25  0.005  0.001  0.013  0.018
   26  0.005  0.001  0.013  0.018
   27  0.011  0.001  0.019  0.031
   28  0.009  0.001  0.001  0.011
   29  0.000  0.000  0.005  0.006
   30  0.000  0.000  0.005  0.006
   31  0.000  0.000  0.005  0.006
   32  0.000  0.000  0.005  0.006
   33  0.000  0.000  0.005  0.006
   34  0.000  0.000  0.005  0.006
   35  0.010  0.001  0.002  0.013
   36  0.000  0.000  0.001  0.001
   37  0.000  0.000  0.000  0.000
   38  0.000  0.000  0.000  0.000
   39  0.000  0.000  0.000  0.000
tot    0.152  0.028  0.572  0.753
 
band    17 # energy   -5.89898388 # occ.  2.00000000
 
ion      s      p      d    tot
    1  0.000  0.001  0.004  0.005
    2  0.000  0.001  0.005  0.006
    3  0.009  0.001  0.005  0.015
    4  0.000  0.001  0.005  0.006
    5  0.000  0.001  0.011  0.012
    6  0.005  0.001  0.004  0.010
    7  0.009  0.001  0.005  0.015
    8  0.006  0.001  0.004  0.010
    9  0.000  0.000  0.009  0.009
   10  0.000  0.001  0.052  0.052
   11  0.015  0.001  0.021  0.037
   12  0.007  0.002  0.019  0.028
   13  0.015  0.001  0.021  0.037
   14  0.000  0.000  0.050  0.050
   15  0.001  0.001  0.020  0.022
   16  0.007  0.002  0.019  0.028
   17  0.001  0.001  0.020  0.022
   18  0.000  0.001  0.010  0.012
   19  0.007  0.000  0.019  0.027
   20  0.000  0.000  0.070  0.070
   21  0.017  0.001  0.022  0.041
   22  0.002  0.001  0.019  0.022
   23  0.018  0.001  0.021  0.040
   24  0.000  0.001  0.033  0.034
   25  0.000  0.001  0.014  0.015
   26  0.007  0.000  0.019  0.026
   27  0.002  0.001  0.019  0.022
   28  0.000  0.001  0.008  0.009
   29  0.002  0.000  0.004  0.006
   30  0.010  0.001  0.004  0.015
   31  0.001  0.000  0.004  0.006
   32  0.003  0.001  0.004  0.009
   33  0.010  0.001  0.004  0.015
   34  0.004  0.001  0.004  0.009
   35  0.000  0.000  0.003  0.003
   36  0.000  0.002  0.002  0.004
   37  0.000  0.000  0.000  0.000
   38  0.000  0.001  0.000  0.001
   39  0.000  0.000  0.000  0.000
tot    0.160  0.032  0.555  0.747
 
band    18 # energy   -5.89897703 # occ.  2.00000000
 
ion      s      p      d    tot
    1  0.000  0.001  0.004  0.005
    2  0.009  0.001  0.004  0.015
    3  0.001  0.000  0.004  0.006
    4  0.009  0.001  0.004  0.015
    5  0.000  0.001  0.011  0.012
    6  0.004  0.001  0.005  0.010
    7  0.001  0.000  0.004  0.006
    8  0.004  0.001  0.005  0.010
    9  0.000  0.000  0.009  0.009
   10  0.010  0.002  0.008  0.020
   11  0.005  0.000  0.040  0.046
   12  0.002  0.001  0.041  0.044
   13  0.005  0.000  0.040  0.046
   14  0.020  0.001  0.011  0.033
   15  0.000  0.001  0.013  0.015
   16  0.002  0.001  0.041  0.044
   17  0.000  0.001  0.014  0.015
   18  0.002  0.000  0.023  0.025
   19  0.002  0.001  0.015  0.019
   20  0.023  0.002  0.006  0.031
   21  0.006  0.000  0.053  0.060
   22  0.001  0.001  0.028  0.030
   23  0.006  0.000  0.054  0.060
   24  0.003  0.001  0.014  0.018
   25  0.010  0.000  0.020  0.030
   26  0.002  0.001  0.015  0.019
   27  0.001  0.001  0.028  0.030
   28  0.000  0.001  0.008  0.009
   29  0.008  0.001  0.004  0.013
   30  0.000  0.001  0.004  0.005
   31  0.008  0.001  0.004  0.014
   32  0.006  0.001  0.004  0.011
   33  0.000  0.001  0.004  0.005
   34  0.006  0.001  0.004  0.011
   35  0.000  0.000  0.003  0.003
   36  0.000  0.002  0.002  0.004
   37  0.000  0.000  0.000  0.000
   38  0.000  0.001  0.000  0.001
   39  0.000  0.000  0.000  0.000
tot    0.160  0.032  0.555  0.747
 
band    19 # energy   -5.85846799 # occ.  2.00000000
 
ion      s      p      d    tot
    1  0.000  0.001  0.015  0.016
    2  0.010  0.001  0.005  0.017
    3  0.002  0.000  0.005  0.008
    4  0.010  0.001  0.005  0.017
    5  0.000  0.000  0.005  0.005
    6  0.003  0.001  0.006  0.010
    7  0.002  0.000  0.005  0.008
    8  0.003  0.001  0.006  0.010
    9  0.000  0.001  0.008  0.009
   10  0.000  0.001  0.028  0.029
   11  0.001  0.001  0.020  0.022
   12  0.006  0.000  0.023  0.029
   13  0.001  0.001  0.020  0.022
   14  0.000  0.001  0.021  0.022
   15  0.011  0.002  0.021  0.034
   16  0.006  0.000  0.023  0.029
   17  0.012  0.002  0.021  0.034
   18  0.000  0.000  0.065  0.065
   19  0.012  0.001  0.020  0.033
   20  0.000  0.002  0.017  0.019
   21  0.000  0.001  0.021  0.022
   22  0.018  0.001  0.021  0.040
   23  0.000  0.001  0.021  0.022
   24  0.000  0.000  0.035  0.036
   25  0.000  0.000  0.065  0.065
   26  0.013  0.001  0.019  0.033
   27  0.018  0.001  0.021  0.040
   28  0.000  0.001  0.004  0.005
   29  0.006  0.001  0.004  0.011
   30  0.000  0.000  0.004  0.005
   31  0.006  0.001  0.004  0.011
   32  0.003  0.001  0.002  0.006
   33  0.000  0.000  0.004  0.005
   34  0.003  0.001  0.002  0.006
   35  0.000  0.001  0.008  0.008
   36  0.000  0.000  0.001  0.001
   37  0.000  0.000  0.000  0.000
   38  0.000  0.000  0.000  0.000
   39  0.000  0.000  0.000  0.000
tot    0.150  0.029  0.573  0.751
 
band    20 # energy   -5.85845280 # occ.  2.00000000
 
ion      s      p      d    tot
    1  0.000  0.001  0.015  0.016
    2  0.000  0.000  0.006  0.006
    3  0.008  0.001  0.005  0.015
    4  0.000  0.000  0.006  0.006
    5  0.000  0.000  0.005  0.005
    6  0.007  0.001  0.005  0.013
    7  0.008  0.001  0.005  0.015
    8  0.007  0.001  0.005  0.013
    9  0.000  0.001  0.008  0.009
   10  0.009  0.000  0.021  0.030
   11  0.000  0.001  0.020  0.022
   12  0.002  0.001  0.026  0.029
   13  0.000  0.001  0.020  0.022
   14  0.001  0.001  0.019  0.022
   15  0.004  0.001  0.050  0.055
   16  0.002  0.001  0.026  0.029
   17  0.004  0.001  0.051  0.055
   18  0.015  0.002  0.006  0.024
   19  0.004  0.001  0.049  0.054
   20  0.001  0.000  0.022  0.023
   21  0.000  0.001  0.019  0.020
   22  0.006  0.001  0.030  0.037
   23  0.000  0.001  0.019  0.020
   24  0.024  0.001  0.016  0.041
   25  0.017  0.001  0.004  0.022
   26  0.004  0.001  0.050  0.055
   27  0.006  0.001  0.030  0.037
   28  0.000  0.001  0.004  0.005
   29  0.000  0.000  0.003  0.004
   30  0.006  0.001  0.003  0.009
   31  0.000  0.000  0.003  0.004
   32  0.003  0.001  0.005  0.008
   33  0.006  0.001  0.003  0.009
   34  0.003  0.001  0.005  0.008
   35  0.000  0.001  0.008  0.008
   36  0.000  0.000  0.001  0.001
   37  0.000  0.000  0.000  0.000
   38  0.000  0.000  0.000  0.000
   39  0.000  0.000  0.000  0.000