PROCAR new format
# of k-points:   10         # of bands:  252         # of ions:   37

 k-point     1 :    0.00000000 0.00000000 0.00000000     weight = 0.01562500

band     1 # energy   -9.95639530 # occ.  2.00000000
 
ion      s      p      d    tot
    1  0.000  0.000  0.000  0.000
    2  0.000  0.000  0.000  0.000
    3  0.000  0.000  0.000  0.000
    4  0.000  0.000  0.000  0.000
    5  0.000  0.000  0.000  0.000
    6  0.000  0.000  0.000  0.000
    7  0.000  0.000  0.000  0.000
    8  0.000  0.000  0.000  0.000
    9  0.000  0.000  0.000  0.000
   10  0.002  0.000  0.000  0.002
   11  0.002  0.000  0.000  0.002
   12  0.002  0.000  0.000  0.002
   13  0.002  0.000  0.000  0.002
   14  0.002  0.000  0.000  0.002
   15  0.002  0.000  0.000  0.002
   16  0.002  0.000  0.000  0.002
   17  0.002  0.000  0.000  0.002
   18  0.002  0.000  0.000  0.002
   19  0.004  0.000  0.000  0.004
   20  0.012  0.001  0.001  0.015
   21  0.012  0.001  0.001  0.015
   22  0.004  0.000  0.000  0.004
   23  0.012  0.001  0.001  0.015
   24  0.004  0.000  0.000  0.004
   25  0.004  0.000  0.000  0.004
   26  0.004  0.000  0.000  0.004
   27  0.004  0.000  0.000  0.004
   28  0.002  0.000  0.000  0.002
   29  0.005  0.000  0.000  0.006
   30  0.005  0.000  0.000  0.006
   31  0.005  0.000  0.000  0.006
   32  0.005  0.000  0.000  0.006
   33  0.005  0.000  0.000  0.006
   34  0.005  0.000  0.000  0.006
   35  0.002  0.000  0.000  0.002
   36  0.138  0.028  0.122  0.287
   37  0.319  0.021  0.000  0.340
tot    0.573  0.057  0.128  0.759
 
band     2 # energy   -9.20648229 # occ.  2.00000000
 
ion      s      p      d    tot
    1  0.007  0.001  0.000  0.008
    2  0.007  0.001  0.000  0.008
    3  0.007  0.001  0.000  0.008
    4  0.007  0.001  0.000  0.008
    5  0.007  0.001  0.000  0.008
    6  0.007  0.001  0.000  0.008
    7  0.007  0.001  0.000  0.008
    8  0.007  0.001  0.000  0.008
    9  0.007  0.001  0.000  0.008
   10  0.024  0.000  0.000  0.024
   11  0.024  0.000  0.000  0.024
   12  0.024  0.000  0.000  0.024
   13  0.024  0.000  0.000  0.024
   14  0.024  0.000  0.000  0.024
   15  0.024  0.000  0.000  0.024
   16  0.024  0.000  0.000  0.024
   17  0.024  0.000  0.000  0.024
   18  0.024  0.000  0.000  0.024
   19  0.020  0.000  0.000  0.020
   20  0.015  0.001  0.000  0.016
   21  0.015  0.001  0.000  0.016
   22  0.019  0.000  0.000  0.019
   23  0.015  0.001  0.000  0.016
   24  0.019  0.000  0.000  0.019
   25  0.020  0.000  0.000  0.020
   26  0.020  0.000  0.000  0.020
   27  0.019  0.000  0.000  0.019
   28  0.004  0.001  0.000  0.005
   29  0.003  0.001  0.000  0.003
   30  0.003  0.001  0.000  0.003
   31  0.003  0.001  0.000  0.003
   32  0.003  0.001  0.000  0.003
   33  0.003  0.001  0.000  0.003
   34  0.003  0.001  0.000  0.003
   35  0.004  0.001  0.000  0.005
   36  0.004  0.015  0.031  0.051
   37  0.074  0.003  0.000  0.078
tot    0.545  0.036  0.034  0.615
 
band     3 # energy   -7.98608651 # occ.  2.00000000
 
ion      s      p      d    tot
    1  0.017  0.001  0.000  0.018
    2  0.017  0.001  0.001  0.018
    3  0.017  0.001  0.001  0.018
    4  0.017  0.001  0.001  0.018
    5  0.017  0.001  0.000  0.018
    6  0.017  0.001  0.001  0.018
    7  0.017  0.001  0.001  0.018
    8  0.017  0.001  0.001  0.018
    9  0.017  0.001  0.001  0.018
   10  0.009  0.002  0.000  0.011
   11  0.009  0.002  0.000  0.012
   12  0.009  0.002  0.000  0.011
   13  0.009  0.002  0.000  0.012
   14  0.009  0.002  0.000  0.011
   15  0.008  0.002  0.001  0.011
   16  0.009  0.002  0.000  0.011
   17  0.008  0.002  0.001  0.011
   18  0.008  0.002  0.001  0.011
   19  0.012  0.002  0.001  0.014
   20  0.008  0.002  0.001  0.011
   21  0.008  0.002  0.001  0.011
   22  0.012  0.002  0.001  0.014
   23  0.008  0.002  0.001  0.011
   24  0.012  0.002  0.001  0.014
   25  0.012  0.002  0.001  0.014
   26  0.012  0.002  0.001  0.014
   27  0.012  0.002  0.001  0.014
   28  0.019  0.001  0.000  0.021
   29  0.017  0.001  0.001  0.019
   30  0.017  0.001  0.001  0.019
   31  0.017  0.001  0.001  0.019
   32  0.017  0.001  0.001  0.019
   33  0.017  0.001  0.001  0.019
   34  0.017  0.001  0.001  0.019
   35  0.019  0.001  0.000  0.020
   36  0.007  0.008  0.026  0.041
   37  0.024  0.001  0.000  0.025
tot    0.495  0.061  0.046  0.602
 
band     4 # energy   -6.49705340 # occ.  2.00000000
 
ion      s      p      d    tot
    1  0.014  0.000  0.005  0.019
    2  0.014  0.000  0.005  0.019
    3  0.014  0.000  0.005  0.019
    4  0.014  0.000  0.005  0.019
    5  0.007  0.000  0.005  0.013
    6  0.014  0.000  0.005  0.019
    7  0.014  0.000  0.005  0.019
    8  0.014  0.000  0.005  0.019
    9  0.022  0.000  0.003  0.026
   10  0.003  0.003  0.002  0.008
   11  0.008  0.005  0.001  0.014
   12  0.003  0.003  0.002  0.008
   13  0.008  0.005  0.001  0.014
   14  0.008  0.005  0.001  0.014
   15  0.000  0.003  0.003  0.005
   16  0.003  0.003  0.002  0.008
   17  0.000  0.003  0.003  0.005
   18  0.000  0.003  0.003  0.005
   19  0.002  0.003  0.005  0.010
   20  0.019  0.004  0.006  0.029
   21  0.019  0.004  0.006  0.029
   22  0.001  0.003  0.004  0.008
   23  0.019  0.004  0.006  0.029
   24  0.001  0.003  0.004  0.008
   25  0.002  0.003  0.005  0.010
   26  0.002  0.003  0.005  0.010
   27  0.001  0.003  0.004  0.008
   28  0.018  0.000  0.005  0.024
   29  0.017  0.000  0.008  0.025
   30  0.017  0.000  0.008  0.025
   31  0.017  0.000  0.008  0.025
   32  0.017  0.000  0.008  0.025
   33  0.017  0.000  0.008  0.025
   34  0.017  0.000  0.008  0.025
   35  0.023  0.000  0.005  0.028
   36  0.006  0.002  0.039  0.046
   37  0.000  0.001  0.000  0.001
tot    0.377  0.067  0.198  0.642
 
band     5 # energy   -6.39136603 # occ.  2.00000000
 
ion      s      p      d    tot
    1  0.000  0.002  0.005  0.006
    2  0.008  0.002  0.002  0.012
    3  0.001  0.001  0.002  0.003
    4  0.008  0.002  0.002  0.012
    5  0.000  0.002  0.003  0.006
    6  0.004  0.001  0.002  0.007
    7  0.001  0.001  0.002  0.003
    8  0.004  0.001  0.002  0.007
    9  0.000  0.000  0.002  0.002
   10  0.051  0.005  0.003  0.059
   11  0.008  0.009  0.005  0.022
   12  0.012  0.002  0.011  0.025
   13  0.008  0.009  0.005  0.022
   14  0.031  0.001  0.006  0.038
   15  0.001  0.005  0.006  0.011
   16  0.013  0.002  0.011  0.026
   17  0.001  0.005  0.006  0.011
   18  0.002  0.002  0.003  0.007
   19  0.005  0.010  0.003  0.018
   20  0.073  0.003  0.008  0.084
   21  0.018  0.003  0.016  0.037
   22  0.003  0.004  0.009  0.016
   23  0.019  0.003  0.016  0.037
   24  0.012  0.003  0.003  0.018
   25  0.020  0.000  0.007  0.027
   26  0.005  0.010  0.003  0.018
   27  0.003  0.004  0.009  0.016
   28  0.000  0.002  0.003  0.005
   29  0.011  0.003  0.004  0.018
   30  0.003  0.001  0.003  0.007
   31  0.011  0.003  0.004  0.018
   32  0.002  0.001  0.004  0.007
   33  0.003  0.001  0.003  0.007
   34  0.003  0.001  0.004  0.008
   35  0.000  0.000  0.003  0.003
   36  0.000  0.006  0.022  0.028
   37  0.000  0.000  0.000  0.000
tot    0.340  0.112  0.197  0.650
 
band     6 # energy   -6.39120524 # occ.  2.00000000
 
ion      s      p      d    tot
    1  0.000  0.002  0.005  0.006
    2  0.000  0.001  0.002  0.003
    3  0.007  0.002  0.002  0.011
    4  0.000  0.001  0.002  0.003
    5  0.000  0.002  0.003  0.006
    6  0.005  0.001  0.002  0.008
    7  0.007  0.002  0.002  0.011
    8  0.005  0.001  0.002  0.008
    9  0.000  0.000  0.002  0.002
   10  0.000  0.001  0.014  0.015
   11  0.023  0.004  0.006  0.033
   12  0.038  0.004  0.006  0.048
   13  0.024  0.003  0.006  0.033
   14  0.000  0.012  0.004  0.016
   15  0.002  0.003  0.004  0.009
   16  0.038  0.004  0.006  0.048
   17  0.002  0.003  0.004  0.009
   18  0.000  0.006  0.007  0.013
   19  0.015  0.004  0.005  0.024
   20  0.000  0.003  0.018  0.022
   21  0.055  0.003  0.010  0.069
   22  0.009  0.004  0.005  0.017
   23  0.055  0.003  0.010  0.068
   24  0.000  0.004  0.011  0.015
   25  0.000  0.014  0.001  0.015
   26  0.015  0.003  0.005  0.024
   27  0.009  0.004  0.005  0.017
   28  0.000  0.002  0.003  0.005
   29  0.000  0.001  0.003  0.003
   30  0.008  0.003  0.004  0.015
   31  0.000  0.001  0.003  0.003
   32  0.008  0.002  0.003  0.014
   33  0.008  0.003  0.004  0.015
   34  0.008  0.002  0.003  0.014
   35  0.000  0.000  0.003  0.003
   36  0.000  0.006  0.022  0.027
   37  0.000  0.000  0.000  0.000
tot    0.340  0.112  0.197  0.650
 
band     7 # energy   -6.31863866 # occ.  2.00000000
 
ion      s      p      d    tot
    1  0.000  0.001  0.002  0.003
    2  0.009  0.002  0.002  0.014
    3  0.001  0.001  0.002  0.004
    4  0.009  0.002  0.002  0.014
    5  0.000  0.001  0.004  0.004
    6  0.004  0.002  0.002  0.008
    7  0.001  0.001  0.002  0.004
    8  0.004  0.002  0.002  0.008
    9  0.000  0.003  0.005  0.008
   10  0.000  0.012  0.002  0.014
   11  0.020  0.003  0.005  0.028
   12  0.004  0.003  0.005  0.012
   13  0.020  0.003  0.005  0.028
   14  0.000  0.001  0.014  0.015
   15  0.042  0.004  0.006  0.051
   16  0.004  0.003  0.005  0.012
   17  0.042  0.004  0.006  0.051
   18  0.000  0.006  0.010  0.016
   19  0.032  0.004  0.006  0.041
   20  0.000  0.012  0.002  0.015
   21  0.000  0.004  0.005  0.009
   22  0.039  0.004  0.006  0.049
   23  0.000  0.004  0.005  0.009
   24  0.000  0.010  0.007  0.016
   25  0.000  0.000  0.017  0.017
   26  0.032  0.004  0.006  0.041
   27  0.039  0.004  0.006  0.049
   28  0.000  0.002  0.005  0.007
   29  0.013  0.003  0.003  0.019
   30  0.002  0.002  0.004  0.007
   31  0.013  0.003  0.003  0.019
   32  0.004  0.001  0.003  0.008
   33  0.002  0.002  0.004  0.007
   34  0.004  0.001  0.003  0.008
   35  0.000  0.004  0.005  0.009
   36  0.000  0.001  0.009  0.010
   37  0.000  0.000  0.000  0.000
tot    0.342  0.115  0.179  0.637
 
band     8 # energy   -6.31849735 # occ.  2.00000000
 
ion      s      p      d    tot
    1  0.000  0.001  0.002  0.003
    2  0.000  0.001  0.002  0.003
    3  0.008  0.002  0.002  0.013
    4  0.000  0.001  0.002  0.003
    5  0.000  0.001  0.004  0.004
    6  0.005  0.002  0.002  0.009
    7  0.008  0.002  0.002  0.013
    8  0.005  0.002  0.002  0.009
    9  0.000  0.003  0.005  0.008
   10  0.006  0.000  0.006  0.012
   11  0.007  0.002  0.011  0.019
   12  0.001  0.009  0.003  0.013
   13  0.007  0.002  0.011  0.019
   14  0.026  0.004  0.002  0.032
   15  0.014  0.005  0.009  0.028
   16  0.001  0.009  0.003  0.013
   17  0.014  0.005  0.009  0.028
   18  0.055  0.003  0.005  0.063
   19  0.011  0.001  0.013  0.025
   20  0.000  0.001  0.006  0.007
   21  0.000  0.009  0.003  0.013
   22  0.013  0.008  0.006  0.027
   23  0.000  0.009  0.003  0.013
   24  0.052  0.002  0.005  0.059
   25  0.043  0.005  0.002  0.049
   26  0.011  0.001  0.013  0.025
   27  0.013  0.008  0.006  0.027
   28  0.000  0.002  0.005  0.007
   29  0.000  0.001  0.003  0.004
   30  0.011  0.002  0.003  0.016
   31  0.000  0.001  0.003  0.004
   32  0.009  0.003  0.003  0.015
   33  0.011  0.002  0.003  0.016
   34  0.009  0.003  0.003  0.015
   35  0.000  0.004  0.005  0.009
   36  0.000  0.001  0.009  0.010
   37  0.000  0.000  0.000  0.000
tot    0.342  0.115  0.179  0.637
 
band     9 # energy   -6.30782092 # occ.  2.00000000
 
ion      s      p      d    tot
    1  0.018  0.003  0.001  0.022
    2  0.000  0.002  0.004  0.006
    3  0.000  0.002  0.004  0.006
    4  0.000  0.002  0.004  0.006
    5  0.011  0.001  0.000  0.013
    6  0.000  0.002  0.004  0.006
    7  0.000  0.002  0.004  0.006
    8  0.000  0.002  0.004  0.006
    9  0.003  0.000  0.000  0.004
   10  0.030  0.009  0.002  0.041
   11  0.015  0.001  0.011  0.027
   12  0.031  0.009  0.002  0.041
   13  0.015  0.001  0.011  0.027
   14  0.016  0.001  0.011  0.028
   15  0.001  0.004  0.007  0.013
   16  0.031  0.009  0.002  0.041
   17  0.001  0.004  0.007  0.013
   18  0.001  0.004  0.007  0.013
   19  0.031  0.008  0.003  0.042
   20  0.004  0.006  0.008  0.018
   21  0.004  0.006  0.008  0.018
   22  0.010  0.000  0.012  0.022
   23  0.004  0.006  0.008  0.018
   24  0.010  0.000  0.012  0.022
   25  0.032  0.008  0.003  0.042
   26  0.031  0.008  0.003  0.042
   27  0.010  0.000  0.012  0.022
   28  0.017  0.003  0.001  0.022
   29  0.000  0.002  0.004  0.006
   30  0.000  0.002  0.004  0.006
   31  0.000  0.002  0.004  0.006
   32  0.000  0.002  0.004  0.006
   33  0.000  0.002  0.004  0.006
   34  0.000  0.002  0.004  0.006
   35  0.007  0.001  0.000  0.008
   36  0.006  0.002  0.002  0.010
   37  0.002  0.000  0.000  0.002
tot    0.343  0.115  0.185  0.643
 
band    10 # energy   -6.29135038 # occ.  2.00000000
 
ion      s      p      d    tot
    1  0.004  0.000  0.000  0.004
    2  0.001  0.002  0.005  0.008
    3  0.001  0.002  0.005  0.008
    4  0.001  0.002  0.005  0.008
    5  0.021  0.002  0.000  0.023
    6  0.001  0.002  0.005  0.008
    7  0.001  0.002  0.005  0.008
    8  0.001  0.002  0.005  0.008
    9  0.009  0.003  0.003  0.015
   10  0.001  0.001  0.012  0.013
   11  0.009  0.008  0.004  0.020
   12  0.001  0.001  0.012  0.013
   13  0.009  0.008  0.004  0.020
   14  0.009  0.008  0.004  0.020
   15  0.035  0.005  0.005  0.046
   16  0.001  0.001  0.012  0.013
   17  0.035  0.005  0.005  0.046
   18  0.035  0.005  0.005  0.046
   19  0.001  0.002  0.009  0.012
   20  0.017  0.002  0.010  0.028
   21  0.017  0.002  0.010  0.028
   22  0.024  0.009  0.001  0.034
   23  0.017  0.002  0.010  0.028
   24  0.024  0.009  0.001  0.034
   25  0.001  0.002  0.009  0.012
   26  0.001  0.002  0.009  0.012
   27  0.024  0.009  0.001  0.034
   28  0.003  0.000  0.001  0.004
   29  0.002  0.001  0.005  0.008
   30  0.002  0.001  0.005  0.008
   31  0.002  0.001  0.005  0.008
   32  0.002  0.001  0.005  0.008
   33  0.002  0.001  0.005  0.008
   34  0.002  0.001  0.005  0.008
   35  0.006  0.002  0.002  0.010
   36  0.018  0.008  0.005  0.032
   37  0.009  0.000  0.000  0.009
tot    0.349  0.115  0.191  0.655
 
band    11 # energy   -5.64097918 # occ.  2.00000000
 
ion      s      p      d    tot
    1  0.005  0.001  0.011  0.017
    2  0.007  0.001  0.010  0.017
    3  0.007  0.001  0.010  0.018
    4  0.007  0.001  0.010  0.017
    5  0.002  0.001  0.010  0.014
    6  0.006  0.001  0.010  0.017
    7  0.007  0.001  0.010  0.018
    8  0.006  0.001  0.010  0.017
    9  0.015  0.000  0.009  0.023
   10  0.009  0.000  0.025  0.035
   11  0.010  0.000  0.022  0.033
   12  0.009  0.000  0.025  0.034
   13  0.010  0.000  0.022  0.033
   14  0.011  0.000  0.022  0.033
   15  0.004  0.000  0.022  0.026
   16  0.009  0.000  0.025  0.034
   17  0.004  0.000  0.022  0.026
   18  0.004  0.000  0.022  0.026
   19  0.005  0.000  0.017  0.022
   20  0.007  0.001  0.031  0.039
   21  0.007  0.001  0.031  0.040
   22  0.003  0.000  0.015  0.019
   23  0.007  0.001  0.031  0.040
   24  0.003  0.000  0.016  0.019
   25  0.005  0.000  0.017  0.022
   26  0.005  0.000  0.017  0.022
   27  0.003  0.000  0.015  0.019
   28  0.001  0.001  0.005  0.006
   29  0.003  0.000  0.006  0.010
   30  0.003  0.000  0.006  0.010
   31  0.003  0.000  0.006  0.010
   32  0.003  0.000  0.006  0.010
   33  0.003  0.000  0.006  0.010
   34  0.003  0.000  0.006  0.010
   35  0.003  0.000  0.004  0.008
   36  0.001  0.002  0.022  0.026
   37  0.001  0.001  0.000  0.002
tot    0.202  0.016  0.560  0.778
 
band    12 # energy   -5.63617632 # occ.  2.00000000
 
ion      s      p      d    tot
    1  0.000  0.001  0.009  0.011
    2  0.018  0.003  0.004  0.026
    3  0.004  0.002  0.004  0.010
    4  0.018  0.003  0.005  0.026
    5  0.000  0.001  0.008  0.009
    6  0.005  0.002  0.004  0.012
    7  0.004  0.002  0.004  0.010
    8  0.005  0.002  0.004  0.011
    9  0.000  0.005  0.008  0.013
   10  0.000  0.005  0.012  0.017
   11  0.010  0.002  0.008  0.020
   12  0.002  0.001  0.008  0.011
   13  0.010  0.002  0.008  0.020
   14  0.000  0.001  0.016  0.017
   15  0.018  0.003  0.008  0.029
   16  0.002  0.001  0.008  0.011
   17  0.018  0.003  0.008  0.029
   18  0.000  0.002  0.019  0.021
   19  0.005  0.003  0.009  0.017
   20  0.000  0.003  0.034  0.037
   21  0.000  0.001  0.016  0.018
   22  0.010  0.004  0.009  0.023
   23  0.000  0.001  0.016  0.018
   24  0.000  0.001  0.025  0.026
   25  0.000  0.000  0.008  0.009
   26  0.005  0.003  0.009  0.017
   27  0.010  0.004  0.009  0.023
   28  0.000  0.002  0.008  0.011
   29  0.025  0.003  0.009  0.037
   30  0.003  0.003  0.011  0.017
   31  0.025  0.003  0.009  0.037
   32  0.011  0.001  0.009  0.021
   33  0.003  0.003  0.011  0.016
   34  0.011  0.001  0.009  0.021
   35  0.000  0.006  0.006  0.012
   36  0.000  0.002  0.043  0.044
   37  0.000  0.000  0.000  0.000
tot    0.220  0.089  0.399  0.708
 
band    13 # energy   -5.63609988 # occ.  2.00000000
 
ion      s      p      d    tot
    1  0.000  0.001  0.009  0.011
    2  0.000  0.001  0.004  0.006
    3  0.014  0.003  0.005  0.022
    4  0.000  0.001  0.004  0.006
    5  0.000  0.001  0.008  0.009
    6  0.013  0.003  0.004  0.020
    7  0.014  0.003  0.005  0.022
    8  0.013  0.003  0.004  0.020
    9  0.000  0.005  0.008  0.013
   10  0.002  0.000  0.007  0.009
   11  0.003  0.001  0.014  0.018
   12  0.001  0.004  0.011  0.015
   13  0.003  0.001  0.014  0.018
   14  0.013  0.003  0.006  0.021
   15  0.006  0.002  0.015  0.023
   16  0.001  0.004  0.011  0.015
   17  0.006  0.002  0.015  0.023
   18  0.024  0.003  0.004  0.032
   19  0.002  0.001  0.009  0.011
   20  0.001  0.000  0.011  0.011
   21  0.000  0.003  0.028  0.031
   22  0.003  0.002  0.020  0.025
   23  0.000  0.003  0.028  0.031
   24  0.013  0.005  0.004  0.022
   25  0.007  0.004  0.009  0.020
   26  0.002  0.001  0.009  0.012
   27  0.003  0.002  0.020  0.025
   28  0.000  0.002  0.008  0.011
   29  0.001  0.002  0.010  0.013
   30  0.023  0.002  0.008  0.033
   31  0.001  0.002  0.010  0.013
   32  0.014  0.004  0.010  0.029
   33  0.023  0.002  0.008  0.033
   34  0.015  0.004  0.010  0.029
   35  0.000  0.006  0.006  0.012
   36  0.000  0.002  0.043  0.044
   37  0.000  0.000  0.000  0.000
tot    0.220  0.089  0.399  0.708
 
band    14 # energy   -5.58903978 # occ.  2.00000000
 
ion      s      p      d    tot
    1  0.000  0.005  0.009  0.014
    2  0.023  0.004  0.006  0.033
    3  0.005  0.002  0.005  0.013
    4  0.023  0.004  0.006  0.033
    5  0.000  0.005  0.011  0.016
    6  0.006  0.002  0.006  0.014
    7  0.005  0.002  0.005  0.013
    8  0.006  0.002  0.006  0.014
    9  0.000  0.000  0.012  0.012
   10  0.026  0.005  0.007  0.039
   11  0.004  0.003  0.020  0.027
   12  0.007  0.001  0.020  0.028
   13  0.004  0.003  0.020  0.027
   14  0.014  0.002  0.006  0.022
   15  0.000  0.003  0.014  0.017
   16  0.007  0.001  0.020  0.028
   17  0.000  0.003  0.014  0.017
   18  0.002  0.001  0.009  0.012
   19  0.001  0.002  0.020  0.023
   20  0.018  0.007  0.005  0.030
   21  0.004  0.002  0.021  0.027
   22  0.000  0.001  0.011  0.013
   23  0.004  0.002  0.021  0.027
   24  0.002  0.001  0.009  0.012
   25  0.006  0.002  0.004  0.012
   26  0.001  0.002  0.020  0.023
   27  0.000  0.001  0.011  0.013
   28  0.000  0.004  0.008  0.012
   29  0.018  0.004  0.007  0.028
   30  0.004  0.001  0.005  0.010
   31  0.018  0.004  0.007  0.028
   32  0.005  0.002  0.007  0.013
   33  0.004  0.001  0.005  0.011
   34  0.005  0.002  0.007  0.013
   35  0.000  0.000  0.010  0.010
   36  0.000  0.007  0.019  0.026
   37  0.000  0.000  0.000  0.000
tot    0.223  0.096  0.390  0.709
 
band    15 # energy   -5.58893824 # occ.  2.00000000
 
ion      s      p      d    tot
    1  0.000  0.005  0.009  0.014
    2  0.000  0.002  0.006  0.007
    3  0.018  0.004  0.006  0.027
    4  0.000  0.002  0.006  0.007
    5  0.000  0.005  0.011  0.016
    6  0.017  0.003  0.006  0.026
    7  0.018  0.004  0.006  0.027
    8  0.017  0.003  0.006  0.026
    9  0.000  0.000  0.012  0.012
   10  0.000  0.000  0.024  0.024
   11  0.011  0.002  0.011  0.024
   12  0.020  0.004  0.011  0.035
   13  0.011  0.002  0.010  0.024
   14  0.000  0.004  0.024  0.028
   15  0.001  0.002  0.011  0.014
   16  0.020  0.004  0.011  0.035
   17  0.001  0.002  0.010  0.014
   18  0.000  0.003  0.015  0.019
   19  0.004  0.002  0.009  0.016
   20  0.000  0.000  0.026  0.026
   21  0.013  0.005  0.010  0.029
   22  0.001  0.001  0.010  0.012
   23  0.013  0.005  0.011  0.029
   24  0.000  0.002  0.012  0.013
   25  0.000  0.002  0.025  0.027
   26  0.004  0.002  0.009  0.015
   27  0.001  0.001  0.010  0.012
   28  0.000  0.004  0.008  0.012
   29  0.000  0.001  0.006  0.007
   30  0.013  0.003  0.007  0.024
   31  0.000  0.001  0.006  0.007
   32  0.013  0.003  0.005  0.021
   33  0.013  0.003  0.007  0.024
   34  0.013  0.003  0.005  0.021
   35  0.000  0.000  0.010  0.010
   36  0.000  0.007  0.019  0.026
   37  0.000  0.000  0.000  0.000
tot    0.223  0.096  0.390  0.709
 
band    16 # energy   -5.55439063 # occ.  2.00000000
 
ion      s      p      d    tot
    1  0.042  0.004  0.000  0.047
    2  0.000  0.003  0.010  0.013
    3  0.000  0.003  0.010  0.013
    4  0.000  0.003  0.010  0.013
    5  0.003  0.001  0.001  0.004
    6  0.000  0.003  0.010  0.013
    7  0.000  0.003  0.010  0.013
    8  0.000  0.003  0.010  0.013
    9  0.017  0.002  0.000  0.019
   10  0.009  0.004  0.013  0.026
   11  0.004  0.001  0.012  0.017
   12  0.009  0.004  0.013  0.026
   13  0.004  0.001  0.012  0.017
   14  0.004  0.001  0.012  0.017
   15  0.003  0.002  0.017  0.022
   16  0.009  0.004  0.013  0.026
   17  0.003  0.002  0.017  0.022
   18  0.003  0.002  0.017  0.022
   19  0.008  0.004  0.014  0.027
   20  0.000  0.001  0.020  0.021
   21  0.000  0.001  0.020  0.021
   22  0.008  0.002  0.010  0.019
   23  0.000  0.001  0.020  0.021
   24  0.008  0.002  0.010  0.019
   25  0.008  0.004  0.014  0.027
   26  0.008  0.004  0.014  0.027
   27  0.008  0.002  0.010  0.019
   28  0.044  0.004  0.000  0.048
   29  0.000  0.003  0.011  0.014
   30  0.000  0.003  0.011  0.014
   31  0.000  0.003  0.011  0.014
   32  0.000  0.003  0.011  0.014
   33  0.000  0.003  0.011  0.014
   34  0.000  0.003  0.011  0.014
   35  0.014  0.002  0.001  0.017
   36  0.006  0.002  0.001  0.009
   37  0.001  0.000  0.000  0.001
tot    0.226  0.092  0.392  0.709
 
band    17 # energy   -5.52625798 # occ.  2.00000000
 
ion      s      p      d    tot
    1  0.001  0.000  0.000  0.001
    2  0.000  0.003  0.010  0.013
    3  0.000  0.003  0.010  0.013
    4  0.000  0.003  0.010  0.013
    5  0.040  0.003  0.000  0.044
    6  0.000  0.003  0.010  0.013
    7  0.000  0.003  0.010  0.013
    8  0.000  0.003  0.010  0.013
    9  0.020  0.003  0.001  0.024
   10  0.000  0.000  0.016  0.016
   11  0.005  0.004  0.017  0.026
   12  0.000  0.000  0.016  0.016
   13  0.005  0.004  0.017  0.026
   14  0.005  0.004  0.017  0.026
   15  0.010  0.003  0.009  0.022
   16  0.000  0.000  0.016  0.016
   17  0.010  0.003  0.009  0.022
   18  0.010  0.003  0.009  0.022
   19  0.003  0.000  0.014  0.017
   20  0.008  0.004  0.011  0.022
   21  0.008  0.004  0.011  0.022
   22  0.006  0.003  0.018  0.027
   23  0.008  0.004  0.011  0.022
   24  0.006  0.003  0.018  0.027
   25  0.003  0.000  0.014  0.017
   26  0.003  0.000  0.014  0.017
   27  0.006  0.003  0.018  0.027
   28  0.000  0.000  0.001  0.001
   29  0.000  0.003  0.014  0.017
   30  0.000  0.003  0.014  0.017
   31  0.000  0.003  0.014  0.017
   32  0.000  0.003  0.014  0.017
   33  0.000  0.003  0.014  0.017
   34  0.000  0.003  0.014  0.017
   35  0.022  0.003  0.001  0.026
   36  0.039  0.012  0.006  0.056
   37  0.009  0.000  0.000  0.010
tot    0.228  0.097  0.410  0.735
 
band    18 # energy   -5.01942986 # occ.  2.00000000
 
ion      s      p      d    tot
    1  0.000  0.001  0.026  0.027
    2  0.015  0.002  0.007  0.024
    3  0.007  0.001  0.007  0.015
    4  0.015  0.002  0.007  0.024
    5  0.000  0.001  0.012  0.013
    6  0.002  0.001  0.007  0.010
    7  0.007  0.001  0.007  0.015
    8  0.002  0.001  0.007  0.010
    9  0.000  0.003  0.004  0.008
   10  0.000  0.000  0.057  0.057
   11  0.000  0.003  0.015  0.018
   12  0.000  0.000  0.019  0.019
   13  0.000  0.003  0.015  0.018
   14  0.000  0.000  0.003  0.003
   15  0.000  0.005  0.014  0.019
   16  0.000  0.000  0.018  0.018
   17  0.000  0.005  0.015  0.019
   18  0.000  0.000  0.029  0.029
   19  0.005  0.002  0.010  0.017
   20  0.000  0.000  0.071  0.071
   21  0.000  0.000  0.031  0.031
   22  0.003  0.001  0.016  0.021
   23  0.000  0.000  0.030  0.031
   24  0.000  0.000  0.011  0.012
   25  0.000  0.000  0.019  0.019
   26  0.005  0.002  0.010  0.017
   27  0.003  0.001  0.016  0.021
   28  0.000  0.001  0.003  0.004
   29  0.006  0.000  0.020  0.026
   30  0.000  0.001  0.017  0.019
   31  0.006  0.000  0.020  0.026
   32  0.010  0.000  0.018  0.028
   33  0.001  0.001  0.017  0.019
   34  0.010  0.000  0.018  0.028
   35  0.000  0.001  0.008  0.008
   36  0.000  0.000  0.062  0.062
   37  0.000  0.001  0.000  0.001
tot    0.098  0.044  0.667  0.809
 
band    19 # energy   -5.01936104 # occ.  2.00000000
 
ion      s      p      d    tot
    1  0.000  0.001  0.026  0.027
    2  0.001  0.001  0.007  0.008
    3  0.009  0.001  0.007  0.017
    4  0.001  0.001  0.007  0.009
    5  0.000  0.001  0.012  0.013
    6  0.014  0.002  0.007  0.023
    7  0.009  0.001  0.007  0.018
    8  0.014  0.002  0.007  0.023
    9  0.000  0.003  0.004  0.008
   10  0.000  0.000  0.006  0.006
   11  0.000  0.001  0.007  0.008
   12  0.000  0.000  0.044  0.044
   13  0.000  0.001  0.007  0.008
   14  0.000  0.005  0.019  0.023
   15  0.000  0.002  0.024  0.026
   16  0.000  0.000  0.044  0.045
   17  0.000  0.002  0.024  0.026
   18  0.000  0.006  0.010  0.016
   19  0.002  0.001  0.016  0.018
   20  0.000  0.000  0.017  0.018
   21  0.000  0.000  0.057  0.058
   22  0.001  0.001  0.013  0.015
   23  0.000  0.000  0.058  0.058
   24  0.005  0.002  0.018  0.024
   25  0.007  0.003  0.007  0.017
   26  0.002  0.001  0.016  0.018
   27  0.001  0.001  0.013  0.015
   28  0.000  0.001  0.003  0.004
   29  0.005  0.001  0.017  0.023
   30  0.011  0.000  0.019  0.030
   31  0.005  0.001  0.017  0.023
   32  0.001  0.001  0.019  0.021
   33  0.011  0.000  0.019  0.030
   34  0.001  0.001  0.019  0.021
   35  0.000  0.001  0.008  0.008
   36  0.000  0.000  0.062  0.062
   37  0.000  0.001  0.000  0.001
tot    0.098  0.044  0.667  0.809
 
band    20 # energy   -4.90390280 # occ.  2.00000000
 
ion      s      p      d    tot
    1  0.012  0.000  0.000  0.013
    2  0.000  0.001  0.014  0.015
    3  0.000  0.001  0.014  0.015
    4  0.000  0.001  0.014  0.015
    5  0.023  0.001  0.002  0.026
    6  0.000  0.001  0.014  0.015
    7  0.000  0.001  0.014  0.015
    8  0.000  0.001  0.014  0.015
    9  0.002  0.000  0.000  0.002
   10  0.000  0.001  0.014  0.015
   11  0.000  0.002  0.034  0.037
   12  0.000  0.001  0.014  0.015
   13  0.000  0.002  0.034  0.037
   14  0.000  0.002  0.034  0.037
   15  0.000  0.001  0.006  0.007
   16  0.000  0.001  0.014  0.015
   17  0.000  0.001  0.006  0.007
   18  0.000  0.001  0.006  0.007
   19  0.001  0.000  0.007  0.009
   20  0.001  0.003  0.037  0.041
   21  0.001  0.003  0.037  0.041
   22  0.000  0.002  0.030  0.032
   23  0.001  0.003  0.037  0.041
   24  0.000  0.002  0.030  0.032
   25  0.001  0.000  0.007  0.009
   26  0.001  0.000  0.007  0.009
   27  0.000  0.002  0.030  0.032
   28  0.000  0.000  0.003  0.003
   29  0.000  0.002  0.028  0.030
   30  0.000  0.002  0.028  0.030
   31  0.000  0.002  0.028  0.030
   32  0.000  0.002  0.028  0.030
   33  0.000  0.002  0.028  0.030
   34  0.000  0.002  0.028  0.030
   35  0.034  0.001  0.002  0.037
   36  0.020  0.001  0.020  0.041
   37  0.000  0.000  0.000  0.000
tot    0.099  0.052  0.665  0.815
 
band    21 # energy   -4.87561146 # occ.  2.00000000
 
ion      s      p      d    tot
    1  0.000  0.002  0.002  0.004
    2  0.013  0.001  0.009  0.023
    3  0.007  0.001  0.008  0.016
    4  0.013  0.001  0.009  0.023
    5  0.000  0.002  0.018  0.020
    6  0.001  0.001  0.008  0.010
    7  0.007  0.001  0.008  0.016
    8  0.001  0.001  0.008  0.010
    9  0.000  0.000  0.029  0.029
   10  0.001  0.007  0.021  0.028
   11  0.000  0.001  0.037  0.038
   12  0.000  0.002  0.009  0.011
   13  0.000  0.001  0.037  0.038
   14  0.001  0.002  0.004  0.007
   15  0.000  0.000  0.027  0.027
   16  0.000  0.002  0.009  0.011
   17  0.000  0.000  0.027  0.027
   18  0.000  0.001  0.009  0.010
   19  0.000  0.000  0.046  0.047
   20  0.002  0.006  0.028  0.036
   21  0.000  0.001  0.016  0.018
   22  0.000  0.001  0.021  0.022
   23  0.001  0.001  0.016  0.018
   24  0.000  0.003  0.014  0.017
   25  0.000  0.001  0.002  0.004
   26  0.000  0.000  0.046  0.047
   27  0.000  0.001  0.021  0.022
   28  0.000  0.002  0.036  0.038
   29  0.015  0.001  0.014  0.030
   30  0.000  0.001  0.012  0.013
   31  0.015  0.001  0.014  0.030
   32  0.013  0.001  0.012  0.027
   33  0.000  0.001  0.012  0.013
   34  0.013  0.001  0.012  0.027
   35  0.000  0.000  0.031  0.031
   36  0.000  0.005  0.004  0.009