PROCAR new format
# of k-points:   10         # of bands:  252         # of ions:   39

 k-point     1 :    0.00000000 0.00000000 0.00000000     weight = 0.01562500

band     1 # energy  -23.78651038 # occ.  2.00000000
 
ion      s      p      d    tot
    1  0.000  0.000  0.000  0.000
    2  0.000  0.000  0.000  0.000
    3  0.000  0.000  0.000  0.000
    4  0.000  0.000  0.000  0.000
    5  0.000  0.000  0.000  0.000
    6  0.000  0.000  0.000  0.000
    7  0.000  0.000  0.000  0.000
    8  0.000  0.000  0.000  0.000
    9  0.000  0.000  0.000  0.000
   10  0.000  0.000  0.000  0.000
   11  0.000  0.000  0.000  0.000
   12  0.000  0.000  0.000  0.000
   13  0.000  0.000  0.000  0.000
   14  0.000  0.000  0.000  0.000
   15  0.000  0.000  0.000  0.000
   16  0.000  0.000  0.000  0.000
   17  0.000  0.000  0.000  0.000
   18  0.000  0.000  0.000  0.000
   19  0.000  0.000  0.000  0.000
   20  0.000  0.000  0.000  0.000
   21  0.000  0.000  0.000  0.000
   22  0.000  0.000  0.000  0.000
   23  0.000  0.000  0.000  0.000
   24  0.000  0.000  0.000  0.000
   25  0.000  0.000  0.000  0.000
   26  0.000  0.000  0.000  0.000
   27  0.000  0.000  0.000  0.000
   28  0.000  0.000  0.000  0.000
   29  0.000  0.000  0.000  0.000
   30  0.000  0.000  0.000  0.000
   31  0.000  0.000  0.000  0.000
   32  0.000  0.000  0.000  0.000
   33  0.000  0.000  0.000  0.000
   34  0.000  0.000  0.000  0.000
   35  0.000  0.000  0.000  0.000
   36  0.000  0.000  0.000  0.000
   37  0.077  0.057  0.000  0.135
   38  0.726  0.007  0.000  0.733
   39  0.062  0.013  0.000  0.076
tot    0.866  0.078  0.000  0.944
 
band     2 # energy  -14.47707194 # occ.  2.00000000
 
ion      s      p      d    tot
    1  0.000  0.000  0.000  0.000
    2  0.000  0.000  0.000  0.000
    3  0.000  0.000  0.000  0.000
    4  0.000  0.000  0.000  0.000
    5  0.000  0.000  0.000  0.000
    6  0.000  0.000  0.000  0.000
    7  0.000  0.000  0.000  0.000
    8  0.000  0.000  0.000  0.000
    9  0.000  0.000  0.000  0.000
   10  0.000  0.000  0.000  0.000
   11  0.000  0.000  0.000  0.000
   12  0.000  0.000  0.000  0.000
   13  0.000  0.000  0.000  0.000
   14  0.000  0.000  0.000  0.000
   15  0.000  0.000  0.000  0.000
   16  0.000  0.000  0.000  0.000
   17  0.000  0.000  0.000  0.000
   18  0.000  0.000  0.000  0.000
   19  0.000  0.000  0.000  0.000
   20  0.000  0.000  0.000  0.000
   21  0.000  0.000  0.000  0.000
   22  0.000  0.000  0.000  0.000
   23  0.000  0.000  0.000  0.000
   24  0.000  0.000  0.000  0.000
   25  0.000  0.000  0.000  0.000
   26  0.000  0.000  0.000  0.000
   27  0.000  0.000  0.000  0.000
   28  0.000  0.000  0.000  0.000
   29  0.000  0.000  0.000  0.000
   30  0.000  0.000  0.000  0.000
   31  0.000  0.000  0.000  0.000
   32  0.000  0.000  0.000  0.000
   33  0.000  0.000  0.000  0.000
   34  0.000  0.000  0.000  0.000
   35  0.000  0.000  0.000  0.000
   36  0.002  0.003  0.002  0.007
   37  0.155  0.053  0.000  0.208
   38  0.017  0.527  0.000  0.544
   39  0.203  0.033  0.000  0.236
tot    0.378  0.616  0.002  0.996
 
band     3 # energy   -8.58530317 # occ.  2.00000000
 
ion      s      p      d    tot
    1  0.006  0.001  0.000  0.007
    2  0.006  0.001  0.000  0.007
    3  0.006  0.001  0.000  0.007
    4  0.006  0.001  0.000  0.007
    5  0.006  0.001  0.000  0.007
    6  0.006  0.001  0.000  0.007
    7  0.006  0.001  0.000  0.007
    8  0.006  0.001  0.000  0.007
    9  0.006  0.001  0.000  0.007
   10  0.026  0.000  0.000  0.026
   11  0.026  0.000  0.000  0.026
   12  0.026  0.000  0.000  0.026
   13  0.026  0.000  0.000  0.026
   14  0.026  0.000  0.000  0.026
   15  0.025  0.000  0.000  0.026
   16  0.026  0.000  0.000  0.026
   17  0.025  0.000  0.000  0.026
   18  0.025  0.000  0.000  0.026
   19  0.023  0.000  0.000  0.024
   20  0.027  0.000  0.000  0.028
   21  0.027  0.000  0.000  0.028
   22  0.024  0.000  0.000  0.024
   23  0.027  0.000  0.000  0.028
   24  0.024  0.000  0.000  0.024
   25  0.023  0.000  0.000  0.024
   26  0.023  0.000  0.000  0.024
   27  0.024  0.000  0.000  0.024
   28  0.005  0.000  0.000  0.005
   29  0.005  0.000  0.000  0.006
   30  0.005  0.000  0.000  0.006
   31  0.005  0.000  0.000  0.006
   32  0.005  0.000  0.000  0.006
   33  0.005  0.000  0.000  0.006
   34  0.005  0.000  0.000  0.006
   35  0.005  0.000  0.000  0.005
   36  0.011  0.000  0.001  0.012
   37  0.002  0.002  0.000  0.003
   38  0.000  0.001  0.000  0.001
   39  0.000  0.000  0.000  0.000
tot    0.567  0.013  0.005  0.584
 
band     4 # energy   -7.48923198 # occ.  2.00000000
 
ion      s      p      d    tot
    1  0.014  0.000  0.001  0.015
    2  0.014  0.000  0.001  0.015
    3  0.014  0.000  0.001  0.015
    4  0.014  0.000  0.001  0.015
    5  0.014  0.000  0.001  0.015
    6  0.014  0.000  0.001  0.015
    7  0.014  0.000  0.001  0.015
    8  0.014  0.000  0.001  0.015
    9  0.015  0.000  0.001  0.016
   10  0.011  0.001  0.002  0.014
   11  0.010  0.001  0.002  0.013
   12  0.011  0.001  0.002  0.014
   13  0.010  0.001  0.002  0.013
   14  0.010  0.001  0.002  0.013
   15  0.012  0.001  0.002  0.015
   16  0.011  0.001  0.002  0.014
   17  0.012  0.001  0.002  0.015
   18  0.012  0.001  0.002  0.015
   19  0.008  0.001  0.002  0.011
   20  0.013  0.002  0.003  0.018
   21  0.013  0.002  0.003  0.018
   22  0.008  0.001  0.002  0.011
   23  0.013  0.002  0.003  0.018
   24  0.008  0.001  0.002  0.011
   25  0.008  0.001  0.002  0.011
   26  0.008  0.001  0.002  0.011
   27  0.008  0.001  0.002  0.011
   28  0.012  0.000  0.001  0.013
   29  0.015  0.000  0.001  0.016
   30  0.015  0.000  0.001  0.016
   31  0.015  0.000  0.001  0.016
   32  0.015  0.000  0.001  0.016
   33  0.015  0.000  0.001  0.016
   34  0.015  0.000  0.001  0.016
   35  0.011  0.000  0.001  0.012
   36  0.050  0.005  0.014  0.069
   37  0.023  0.022  0.000  0.045
   38  0.002  0.008  0.000  0.010
   39  0.002  0.000  0.000  0.002
tot    0.502  0.062  0.070  0.634
 
band     5 # energy   -6.81722440 # occ.  2.00000000
 
ion      s      p      d    tot
    1  0.009  0.000  0.001  0.010
    2  0.005  0.000  0.002  0.007
    3  0.005  0.000  0.002  0.007
    4  0.005  0.000  0.002  0.007
    5  0.005  0.000  0.002  0.007
    6  0.005  0.000  0.002  0.007
    7  0.005  0.000  0.002  0.007
    8  0.005  0.000  0.002  0.007
    9  0.003  0.000  0.002  0.005
   10  0.001  0.001  0.001  0.003
   11  0.000  0.001  0.001  0.002
   12  0.001  0.001  0.001  0.003
   13  0.000  0.001  0.001  0.002
   14  0.000  0.001  0.001  0.002
   15  0.001  0.001  0.001  0.003
   16  0.001  0.001  0.001  0.003
   17  0.001  0.001  0.001  0.003
   18  0.001  0.001  0.001  0.003
   19  0.010  0.000  0.008  0.018
   20  0.000  0.001  0.017  0.018
   21  0.000  0.001  0.017  0.018
   22  0.019  0.000  0.004  0.024
   23  0.000  0.001  0.017  0.018
   24  0.019  0.000  0.004  0.024
   25  0.010  0.000  0.008  0.018
   26  0.010  0.000  0.008  0.018
   27  0.019  0.000  0.004  0.024
   28  0.000  0.000  0.003  0.003
   29  0.001  0.001  0.006  0.009
   30  0.001  0.001  0.006  0.009
   31  0.001  0.001  0.006  0.009
   32  0.001  0.001  0.006  0.009
   33  0.001  0.001  0.006  0.009
   34  0.001  0.001  0.006  0.009
   35  0.001  0.001  0.002  0.004
   36  0.101  0.044  0.082  0.227
   37  0.109  0.093  0.000  0.202
   38  0.009  0.029  0.000  0.038
   39  0.008  0.001  0.000  0.009
tot    0.379  0.185  0.237  0.801
 
band     6 # energy   -6.55989165 # occ.  2.00000000
 
ion      s      p      d    tot
    1  0.000  0.000  0.000  0.000
    2  0.000  0.000  0.000  0.000
    3  0.000  0.000  0.000  0.000
    4  0.000  0.000  0.000  0.000
    5  0.000  0.000  0.000  0.000
    6  0.000  0.000  0.000  0.000
    7  0.000  0.000  0.000  0.000
    8  0.000  0.000  0.000  0.000
    9  0.000  0.000  0.000  0.000
   10  0.000  0.000  0.000  0.000
   11  0.000  0.000  0.001  0.001
   12  0.000  0.000  0.000  0.000
   13  0.000  0.000  0.001  0.001
   14  0.001  0.000  0.000  0.001
   15  0.000  0.000  0.000  0.001
   16  0.000  0.000  0.000  0.000
   17  0.000  0.000  0.000  0.001
   18  0.001  0.000  0.000  0.001
   19  0.000  0.000  0.001  0.001
   20  0.000  0.000  0.001  0.001
   21  0.000  0.000  0.000  0.000
   22  0.000  0.000  0.001  0.001
   23  0.000  0.000  0.000  0.000
   24  0.002  0.000  0.000  0.002
   25  0.000  0.000  0.000  0.000
   26  0.000  0.000  0.001  0.001
   27  0.000  0.000  0.001  0.001
   28  0.000  0.000  0.001  0.001
   29  0.003  0.000  0.001  0.004
   30  0.000  0.000  0.001  0.001
   31  0.003  0.000  0.001  0.004
   32  0.003  0.000  0.001  0.004
   33  0.000  0.000  0.001  0.001
   34  0.003  0.000  0.001  0.004
   35  0.000  0.000  0.001  0.001
   36  0.000  0.005  0.011  0.015
   37  0.000  0.107  0.000  0.107
   38  0.000  0.509  0.000  0.509
   39  0.000  0.007  0.000  0.007
tot    0.018  0.631  0.028  0.677
 
band     7 # energy   -6.55972869 # occ.  2.00000000
 
ion      s      p      d    tot
    1  0.000  0.000  0.000  0.000
    2  0.000  0.000  0.000  0.000
    3  0.000  0.000  0.000  0.000
    4  0.000  0.000  0.000  0.000
    5  0.000  0.000  0.000  0.000
    6  0.000  0.000  0.000  0.000
    7  0.000  0.000  0.000  0.000
    8  0.000  0.000  0.000  0.000
    9  0.000  0.000  0.000  0.000
   10  0.000  0.000  0.000  0.000
   11  0.000  0.000  0.000  0.001
   12  0.000  0.000  0.000  0.000
   13  0.000  0.000  0.000  0.001
   14  0.000  0.000  0.001  0.001
   15  0.001  0.000  0.000  0.001
   16  0.000  0.000  0.000  0.000
   17  0.001  0.000  0.000  0.001
   18  0.000  0.000  0.001  0.001
   19  0.000  0.000  0.000  0.001
   20  0.000  0.000  0.000  0.000
   21  0.000  0.000  0.001  0.001
   22  0.001  0.000  0.000  0.002
   23  0.000  0.000  0.001  0.001
   24  0.000  0.000  0.001  0.001
   25  0.000  0.000  0.001  0.001
   26  0.000  0.000  0.000  0.001
   27  0.001  0.000  0.000  0.002
   28  0.000  0.000  0.001  0.001
   29  0.001  0.000  0.001  0.002
   30  0.004  0.000  0.001  0.005
   31  0.001  0.000  0.001  0.002
   32  0.001  0.000  0.001  0.002
   33  0.004  0.000  0.001  0.005
   34  0.001  0.000  0.001  0.002
   35  0.000  0.000  0.001  0.001
   36  0.000  0.005  0.011  0.015
   37  0.000  0.107  0.000  0.107
   38  0.000  0.509  0.000  0.509
   39  0.000  0.007  0.000  0.007
tot    0.018  0.631  0.028  0.677
 
band     8 # energy   -6.45218226 # occ.  2.00000000
 
ion      s      p      d    tot
    1  0.006  0.000  0.020  0.027
    2  0.015  0.000  0.015  0.030
    3  0.015  0.000  0.015  0.030
    4  0.015  0.000  0.015  0.030
    5  0.009  0.000  0.013  0.022
    6  0.015  0.000  0.015  0.030
    7  0.015  0.000  0.015  0.030
    8  0.015  0.000  0.015  0.030
    9  0.035  0.000  0.010  0.045
   10  0.014  0.001  0.020  0.035
   11  0.015  0.002  0.016  0.032
   12  0.014  0.001  0.020  0.034
   13  0.015  0.002  0.016  0.032
   14  0.015  0.002  0.016  0.032
   15  0.001  0.001  0.022  0.024
   16  0.014  0.001  0.020  0.034
   17  0.001  0.001  0.022  0.024
   18  0.001  0.001  0.022  0.024
   19  0.000  0.001  0.008  0.009
   20  0.008  0.001  0.008  0.018
   21  0.008  0.001  0.008  0.017
   22  0.006  0.001  0.001  0.008
   23  0.008  0.001  0.008  0.017
   24  0.006  0.001  0.001  0.008
   25  0.000  0.001  0.008  0.009
   26  0.000  0.001  0.008  0.009
   27  0.006  0.001  0.001  0.008
   28  0.005  0.000  0.000  0.005
   29  0.003  0.000  0.003  0.006
   30  0.003  0.000  0.003  0.006
   31  0.003  0.000  0.003  0.006
   32  0.003  0.000  0.003  0.006
   33  0.003  0.000  0.003  0.006
   34  0.003  0.000  0.003  0.006
   35  0.009  0.000  0.001  0.010
   36  0.000  0.001  0.001  0.003
   37  0.000  0.000  0.000  0.000
   38  0.000  0.000  0.000  0.000
   39  0.000  0.000  0.000  0.000
tot    0.303  0.023  0.379  0.705
 
band     9 # energy   -6.42699622 # occ.  2.00000000
 
ion      s      p      d    tot
    1  0.000  0.000  0.008  0.009
    2  0.003  0.001  0.003  0.006
    3  0.001  0.000  0.003  0.004
    4  0.003  0.001  0.003  0.007
    5  0.000  0.001  0.007  0.008
    6  0.007  0.001  0.003  0.012
    7  0.001  0.000  0.003  0.005
    8  0.007  0.001  0.004  0.011
    9  0.000  0.000  0.001  0.001
   10  0.034  0.002  0.004  0.040
   11  0.012  0.003  0.022  0.036
   12  0.009  0.001  0.027  0.037
   13  0.014  0.003  0.021  0.038
   14  0.052  0.001  0.011  0.064
   15  0.000  0.003  0.006  0.009
   16  0.008  0.000  0.029  0.037
   17  0.001  0.003  0.006  0.010
   18  0.002  0.000  0.013  0.015
   19  0.002  0.003  0.005  0.010
   20  0.060  0.001  0.009  0.070
   21  0.016  0.002  0.028  0.046
   22  0.005  0.001  0.022  0.028
   23  0.014  0.002  0.029  0.045
   24  0.018  0.002  0.005  0.025
   25  0.009  0.000  0.013  0.022
   26  0.002  0.003  0.006  0.011
   27  0.004  0.001  0.023  0.028
   28  0.000  0.000  0.001  0.001
   29  0.006  0.001  0.004  0.011
   30  0.001  0.001  0.003  0.005
   31  0.006  0.001  0.004  0.011
   32  0.002  0.000  0.002  0.005
   33  0.001  0.000  0.003  0.005
   34  0.002  0.000  0.002  0.004
   35  0.000  0.000  0.004  0.004
   36  0.000  0.002  0.005  0.007
   37  0.000  0.001  0.000  0.001
   38  0.000  0.005  0.000  0.005
   39  0.000  0.000  0.000  0.000
tot    0.302  0.049  0.343  0.694
 
band    10 # energy   -6.42699008 # occ.  2.00000000
 
ion      s      p      d    tot
    1  0.000  0.000  0.008  0.009
    2  0.004  0.001  0.004  0.009
    3  0.006  0.001  0.003  0.011
    4  0.004  0.001  0.004  0.008
    5  0.000  0.001  0.007  0.008
    6  0.000  0.000  0.003  0.003
    7  0.006  0.001  0.003  0.010
    8  0.000  0.000  0.003  0.003
    9  0.000  0.000  0.001  0.001
   10  0.000  0.000  0.036  0.036
   11  0.040  0.001  0.014  0.056
   12  0.025  0.002  0.013  0.039
   13  0.038  0.002  0.015  0.054
   14  0.000  0.003  0.025  0.028
   15  0.002  0.001  0.011  0.013
   16  0.026  0.002  0.012  0.039
   17  0.001  0.001  0.010  0.013
   18  0.000  0.004  0.004  0.008
   19  0.007  0.001  0.011  0.019
   20  0.000  0.002  0.035  0.038
   21  0.044  0.002  0.016  0.061
   22  0.013  0.001  0.011  0.026
   23  0.046  0.002  0.015  0.063
   24  0.000  0.000  0.028  0.029
   25  0.000  0.004  0.003  0.007
   26  0.006  0.001  0.011  0.018
   27  0.014  0.001  0.010  0.026
   28  0.000  0.000  0.001  0.001
   29  0.000  0.000  0.002  0.003
   30  0.004  0.001  0.003  0.008
   31  0.000  0.000  0.002  0.003
   32  0.004  0.001  0.004  0.009
   33  0.005  0.001  0.003  0.009
   34  0.004  0.001  0.004  0.009
   35  0.000  0.000  0.004  0.004
   36  0.000  0.002  0.005  0.007
   37  0.000  0.001  0.000  0.001
   38  0.000  0.005  0.000  0.005
   39  0.000  0.000  0.000  0.000
tot    0.302  0.049  0.343  0.694
 
band    11 # energy   -6.41544604 # occ.  2.00000000
 
ion      s      p      d    tot
    1  0.012  0.000  0.003  0.014
    2  0.004  0.000  0.008  0.013
    3  0.004  0.000  0.008  0.013
    4  0.004  0.000  0.008  0.013
    5  0.011  0.000  0.005  0.016
    6  0.004  0.000  0.008  0.013
    7  0.004  0.000  0.008  0.013
    8  0.004  0.000  0.008  0.013
    9  0.000  0.001  0.010  0.011
   10  0.000  0.000  0.029  0.029
   11  0.000  0.001  0.019  0.020
   12  0.000  0.000  0.029  0.029
   13  0.000  0.001  0.019  0.020
   14  0.000  0.001  0.019  0.020
   15  0.029  0.001  0.011  0.040
   16  0.000  0.000  0.029  0.029
   17  0.029  0.001  0.011  0.040
   18  0.029  0.001  0.011  0.041
   19  0.001  0.000  0.024  0.025
   20  0.024  0.001  0.015  0.040
   21  0.025  0.001  0.015  0.040
   22  0.001  0.001  0.016  0.019
   23  0.025  0.001  0.015  0.040
   24  0.001  0.001  0.016  0.019
   25  0.001  0.000  0.024  0.025
   26  0.001  0.000  0.024  0.025
   27  0.001  0.001  0.016  0.019
   28  0.005  0.000  0.001  0.007
   29  0.004  0.000  0.006  0.010
   30  0.004  0.000  0.006  0.010
   31  0.004  0.000  0.006  0.010
   32  0.004  0.000  0.006  0.010
   33  0.004  0.000  0.006  0.010
   34  0.004  0.000  0.006  0.010
   35  0.010  0.000  0.003  0.013
   36  0.000  0.007  0.000  0.008
   37  0.002  0.002  0.000  0.004
   38  0.000  0.001  0.000  0.001
   39  0.000  0.000  0.000  0.000
tot    0.255  0.028  0.451  0.733
 
band    12 # energy   -6.40323361 # occ.  2.00000000
 
ion      s      p      d    tot
    1  0.010  0.001  0.000  0.012
    2  0.000  0.001  0.006  0.007
    3  0.000  0.001  0.006  0.007
    4  0.000  0.001  0.006  0.007
    5  0.013  0.002  0.002  0.017
    6  0.000  0.001  0.006  0.007
    7  0.000  0.001  0.006  0.007
    8  0.000  0.001  0.006  0.007
    9  0.000  0.000  0.001  0.001
   10  0.022  0.003  0.003  0.029
   11  0.023  0.001  0.020  0.044
   12  0.022  0.003  0.003  0.028
   13  0.023  0.001  0.020  0.044
   14  0.023  0.001  0.020  0.044
   15  0.000  0.001  0.023  0.024
   16  0.022  0.003  0.003  0.028
   17  0.000  0.001  0.023  0.024
   18  0.000  0.001  0.023  0.024
   19  0.030  0.002  0.003  0.036
   20  0.003  0.002  0.019  0.024
   21  0.003  0.002  0.019  0.024
   22  0.008  0.000  0.027  0.035
   23  0.003  0.002  0.019  0.024
   24  0.008  0.000  0.027  0.035
   25  0.030  0.002  0.003  0.035
   26  0.030  0.002  0.003  0.036
   27  0.008  0.000  0.027  0.035
   28  0.009  0.001  0.002  0.012
   29  0.000  0.000  0.004  0.005
   30  0.000  0.000  0.004  0.005
   31  0.000  0.000  0.004  0.005
   32  0.000  0.000  0.004  0.005
   33  0.000  0.000  0.004  0.005
   34  0.000  0.000  0.004  0.005
   35  0.007  0.001  0.001  0.009
   36  0.001  0.000  0.000  0.001
   37  0.000  0.000  0.000  0.000
   38  0.000  0.000  0.000  0.000
   39  0.000  0.000  0.000  0.000
tot    0.300  0.041  0.354  0.695
 
band    13 # energy   -6.37580455 # occ.  2.00000000
 
ion      s      p      d    tot
    1  0.000  0.001  0.004  0.005
    2  0.005  0.001  0.004  0.010
    3  0.008  0.001  0.004  0.012
    4  0.005  0.001  0.004  0.010
    5  0.000  0.000  0.004  0.004
    6  0.000  0.000  0.003  0.004
    7  0.008  0.001  0.004  0.013
    8  0.000  0.000  0.003  0.004
    9  0.000  0.001  0.011  0.012
   10  0.028  0.000  0.016  0.045
   11  0.002  0.002  0.018  0.022
   12  0.006  0.004  0.008  0.018
   13  0.001  0.002  0.019  0.022
   14  0.006  0.001  0.008  0.016
   15  0.017  0.001  0.033  0.051
   16  0.008  0.003  0.008  0.019
   17  0.014  0.001  0.035  0.050
   18  0.062  0.002  0.005  0.068
   19  0.011  0.001  0.026  0.039
   20  0.001  0.001  0.012  0.013
   21  0.000  0.002  0.012  0.014
   22  0.007  0.003  0.014  0.024
   23  0.000  0.002  0.012  0.014
   24  0.032  0.001  0.012  0.044
   25  0.041  0.002  0.003  0.047
   26  0.009  0.001  0.028  0.038
   27  0.009  0.003  0.013  0.025
   28  0.000  0.000  0.006  0.007
   29  0.000  0.000  0.002  0.002
   30  0.002  0.001  0.001  0.004
   31  0.000  0.000  0.002  0.002
   32  0.003  0.001  0.002  0.006
   33  0.002  0.000  0.001  0.004
   34  0.003  0.001  0.002  0.006
   35  0.000  0.001  0.003  0.004
   36  0.000  0.000  0.000  0.000
   37  0.000  0.002  0.000  0.002
   38  0.000  0.012  0.000  0.012
   39  0.000  0.000  0.000  0.000
tot    0.292  0.055  0.346  0.693
 
band    14 # energy   -6.37579437 # occ.  2.00000000
 
ion      s      p      d    tot
    1  0.000  0.001  0.004  0.005
    2  0.004  0.001  0.003  0.008
    3  0.001  0.001  0.004  0.005
    4  0.003  0.001  0.003  0.007
    5  0.000  0.000  0.004  0.004
    6  0.008  0.001  0.004  0.014
    7  0.001  0.000  0.004  0.005
    8  0.008  0.001  0.004  0.014
    9  0.000  0.001  0.011  0.012
   10  0.000  0.005  0.005  0.010
   11  0.004  0.001  0.012  0.018
   12  0.022  0.001  0.014  0.037
   13  0.005  0.001  0.011  0.017
   14  0.000  0.002  0.022  0.024
   15  0.045  0.001  0.016  0.062
   16  0.021  0.001  0.013  0.035
   17  0.048  0.001  0.014  0.063
   18  0.000  0.001  0.044  0.045
   19  0.030  0.002  0.012  0.044
   20  0.000  0.002  0.012  0.014
   21  0.001  0.001  0.012  0.013
   22  0.025  0.001  0.012  0.038
   23  0.001  0.001  0.012  0.013
   24  0.000  0.004  0.014  0.018
   25  0.000  0.000  0.035  0.036
   26  0.032  0.002  0.010  0.044
   27  0.023  0.001  0.012  0.037
   28  0.000  0.000  0.006  0.007
   29  0.004  0.001  0.002  0.006
   30  0.001  0.000  0.002  0.004
   31  0.004  0.001  0.002  0.006
   32  0.001  0.000  0.001  0.002
   33  0.001  0.000  0.003  0.004
   34  0.001  0.000  0.001  0.002
   35  0.000  0.001  0.003  0.004
   36  0.000  0.000  0.000  0.000
   37  0.000  0.002  0.000  0.002
   38  0.000  0.012  0.000  0.012
   39  0.000  0.000  0.000  0.000
tot    0.292  0.055  0.346  0.693
 
band    15 # energy   -6.17274041 # occ.  2.00000000
 
ion      s      p      d    tot
    1  0.002  0.000  0.000  0.002
    2  0.000  0.000  0.003  0.004
    3  0.000  0.000  0.003  0.004
    4  0.000  0.000  0.003  0.004
    5  0.005  0.000  0.000  0.006
    6  0.000  0.000  0.003  0.004
    7  0.000  0.000  0.003  0.004
    8  0.000  0.000  0.003  0.004
    9  0.003  0.001  0.002  0.006
   10  0.001  0.000  0.013  0.015
   11  0.002  0.001  0.002  0.006
   12  0.001  0.000  0.013  0.015
   13  0.002  0.001  0.002  0.006
   14  0.002  0.001  0.002  0.006
   15  0.013  0.001  0.005  0.019
   16  0.001  0.000  0.013  0.015
   17  0.013  0.001  0.005  0.019
   18  0.013  0.001  0.005  0.019
   19  0.000  0.002  0.006  0.008
   20  0.001  0.000  0.024  0.025
   21  0.001  0.000  0.024  0.025
   22  0.007  0.002  0.014  0.023
   23  0.001  0.000  0.024  0.025
   24  0.007  0.002  0.014  0.023
   25  0.000  0.002  0.006  0.008
   26  0.000  0.002  0.006  0.008
   27  0.007  0.002  0.014  0.023
   28  0.031  0.000  0.013  0.043
   29  0.015  0.000  0.018  0.033
   30  0.015  0.000  0.018  0.033
   31  0.015  0.000  0.018  0.033
   32  0.015  0.000  0.018  0.033
   33  0.015  0.000  0.018  0.033
   34  0.015  0.000  0.018  0.033
   35  0.023  0.000  0.016  0.039
   36  0.009  0.010  0.055  0.074
   37  0.033  0.026  0.000  0.059
   38  0.002  0.006  0.000  0.009
   39  0.002  0.000  0.000  0.002
tot    0.275  0.066  0.407  0.749
 
band    16 # energy   -5.95480804 # occ.  2.00000000
 
ion      s      p      d    tot
    1  0.015  0.002  0.002  0.019
    2  0.000  0.001  0.008  0.009
    3  0.000  0.001  0.008  0.009
    4  0.000  0.001  0.008  0.009
    5  0.000  0.000  0.002  0.002
    6  0.000  0.001  0.008  0.009
    7  0.000  0.001  0.008  0.009
    8  0.000  0.001  0.008  0.009
    9  0.017  0.001  0.000  0.018
   10  0.011  0.002  0.013  0.025
   11  0.003  0.000  0.043  0.046
   12  0.011  0.002  0.013  0.025
   13  0.003  0.000  0.043  0.046
   14  0.003  0.000  0.043  0.046
   15  0.003  0.001  0.023  0.027
   16  0.011  0.002  0.013  0.025
   17  0.003  0.001  0.023  0.027
   18  0.003  0.001  0.023  0.027
   19  0.004  0.001  0.013  0.018
   20  0.001  0.000  0.052  0.053
   21  0.001  0.000  0.052  0.053
   22  0.011  0.001  0.018  0.030
   23  0.001  0.000  0.052  0.053
   24  0.011  0.001  0.018  0.030
   25  0.004  0.001  0.013  0.018
   26  0.004  0.001  0.013  0.018
   27  0.011  0.001  0.018  0.030
   28  0.011  0.001  0.000  0.013
   29  0.000  0.000  0.006  0.006
   30  0.000  0.000  0.006  0.006
   31  0.000  0.000  0.006  0.006
   32  0.000  0.000  0.006  0.006
   33  0.000  0.000  0.006  0.006
   34  0.000  0.000  0.006  0.006
   35  0.008  0.001  0.002  0.012
   36  0.000  0.000  0.001  0.001
   37  0.000  0.000  0.000  0.000
   38  0.000  0.000  0.000  0.000
   39  0.000  0.000  0.000  0.000
tot    0.150  0.028  0.576  0.754
 
band    17 # energy   -5.95039485 # occ.  2.00000000
 
ion      s      p      d    tot
    1  0.000  0.001  0.004  0.005
    2  0.000  0.001  0.005  0.006
    3  0.009  0.001  0.005  0.015
    4  0.000  0.001  0.005  0.006
    5  0.000  0.001  0.011  0.012
    6  0.005  0.001  0.004  0.010
    7  0.009  0.001  0.005  0.015
    8  0.005  0.001  0.004  0.010
    9  0.000  0.000  0.008  0.008
   10  0.000  0.001  0.052  0.052
   11  0.016  0.001  0.020  0.037
   12  0.008  0.002  0.019  0.028
   13  0.016  0.001  0.020  0.037
   14  0.000  0.000  0.047  0.048
   15  0.001  0.000  0.019  0.021
   16  0.008  0.002  0.019  0.028
   17  0.001  0.000  0.019  0.021
   18  0.000  0.001  0.011  0.012
   19  0.006  0.000  0.019  0.025
   20  0.000  0.000  0.077  0.077
   21  0.017  0.001  0.023  0.041
   22  0.002  0.001  0.019  0.022
   23  0.017  0.001  0.023  0.041
   24  0.000  0.001  0.031  0.032
   25  0.000  0.001  0.013  0.014
   26  0.006  0.000  0.019  0.025
   27  0.002  0.001  0.019  0.022
   28  0.000  0.000  0.008  0.009
   29  0.002  0.001  0.005  0.007
   30  0.010  0.001  0.004  0.015
   31  0.002  0.001  0.005  0.007
   32  0.003  0.001  0.004  0.007
   33  0.010  0.001  0.004  0.015
   34  0.003  0.001  0.004  0.007
   35  0.000  0.000  0.003  0.004
   36  0.000  0.003  0.003  0.007
   37  0.000  0.000  0.000  0.000
   38  0.000  0.001  0.000  0.001
   39  0.000  0.000  0.000  0.000
tot    0.157  0.033  0.559  0.749
 
band    18 # energy   -5.95038329 # occ.  2.00000000
 
ion      s      p      d    tot
    1  0.000  0.001  0.004  0.005
    2  0.009  0.001  0.004  0.014
    3  0.001  0.000  0.004  0.006
    4  0.009  0.001  0.004  0.014
    5  0.000  0.001  0.011  0.012
    6  0.004  0.001  0.005  0.010
    7  0.001  0.000  0.004  0.006
    8  0.004  0.001  0.005  0.010
    9  0.000  0.000  0.008  0.008
   10  0.010  0.002  0.008  0.020
   11  0.005  0.000  0.038  0.044
   12  0.003  0.001  0.041  0.044
   13  0.005  0.000  0.038  0.044
   14  0.021  0.001  0.011  0.034
   15  0.000  0.001  0.014  0.015
   16  0.003  0.001  0.041  0.044
   17  0.000  0.001  0.014  0.015
   18  0.002  0.000  0.022  0.024
   19  0.002  0.001  0.015  0.018
   20  0.022  0.002  0.006  0.029
   21  0.006  0.000  0.059  0.065
   22  0.001  0.001  0.027  0.029
   23  0.006  0.000  0.059  0.065
   24  0.003  0.001  0.015  0.019
   25  0.008  0.000  0.021  0.029
   26  0.002  0.001  0.015  0.018
   27  0.001  0.001  0.027  0.029
   28  0.000  0.000  0.008  0.009
   29  0.007  0.001  0.004  0.012
   30  0.000  0.000  0.004  0.005
   31  0.007  0.001  0.004  0.012
   32  0.007  0.001  0.004  0.012
   33  0.000  0.000  0.004  0.005
   34  0.007  0.001  0.004  0.012
   35  0.000  0.000  0.003  0.004
   36  0.000  0.003  0.003  0.007
   37  0.000  0.000  0.000  0.000
   38  0.000  0.001  0.000  0.001
   39  0.000  0.000  0.000  0.000
tot    0.157  0.033  0.559  0.749
 
band    19 # energy   -5.88831221 # occ.  2.00000000
 
ion      s      p      d    tot
    1  0.000  0.001  0.015  0.016
    2  0.010  0.001  0.005  0.016
    3  0.002  0.000  0.005  0.008
    4  0.010  0.001  0.005  0.016
    5  0.000  0.000  0.005  0.005
    6  0.003  0.001  0.006  0.010
    7  0.002  0.000  0.005  0.008
    8  0.003  0.001  0.006  0.010
    9  0.000  0.001  0.008  0.009
   10  0.000  0.001  0.028  0.029
   11  0.001  0.001  0.020  0.022
   12  0.006  0.000  0.023  0.029
   13  0.001  0.001  0.020  0.022
   14  0.000  0.001  0.020  0.021
   15  0.011  0.002  0.021  0.034
   16  0.006  0.000  0.023  0.029
   17  0.011  0.002  0.021  0.033
   18  0.000  0.000  0.064  0.064
   19  0.013  0.001  0.020  0.034
   20  0.000  0.002  0.019  0.020
   21  0.000  0.001  0.023  0.024
   22  0.018  0.001  0.020  0.039
   23  0.000  0.001  0.023  0.024
   24  0.000  0.000  0.033  0.034
   25  0.000  0.000  0.067  0.067
   26  0.013  0.001  0.020  0.033
   27  0.018  0.001  0.021  0.039
   28  0.000  0.001  0.005  0.005
   29  0.005  0.001  0.004  0.010
   30  0.000  0.000  0.004  0.005
   31  0.005  0.001  0.004  0.010
   32  0.003  0.001  0.002  0.006
   33  0.000  0.000  0.004  0.005
   34  0.003  0.001  0.002  0.006
   35  0.000  0.001  0.008  0.008
   36  0.000  0.000  0.001  0.001
   37  0.000  0.000  0.000  0.000
   38  0.000  0.000  0.000  0.000
   39  0.000  0.000  0.000  0.000
tot    0.147  0.028  0.577  0.752
 
band    20 # energy   -5.88829819 # occ.  2.00000000
 
ion      s      p      d    tot
    1  0.000  0.001  0.015  0.016
    2  0.000  0.000  0.006  0.006
    3  0.008  0.001  0.005  0.015
    4  0.000  0.000  0.006  0.006
    5  0.000  0.000  0.005  0.005
    6  0.007  0.001  0.005  0.013
    7  0.008  0.001  0.005  0.015
    8  0.007  0.001  0.005  0.013
    9  0.000  0.001  0.008  0.009
   10  0.008  0.000  0.021  0.029
   11  0.000  0.001  0.020  0.021
   12  0.002  0.001  0.026  0.029
   13  0.000  0.001  0.020  0.021
   14  0.001  0.001  0.019  0.022
   15  0.004  0.001  0.050  0.054
   16  0.002  0.001  0.026  0.029
   17  0.004  0.001  0.050  0.054
   18  0.015  0.002  0.006  0.023
   19  0.004  0.001  0.051  0.056
   20  0.000  0.000  0.024  0.025
   21  0.000  0.001  0.020  0.021
   22  0.006  0.000  0.029  0.036
   23  0.000  0.001  0.020  0.021
   24  0.024  0.001  0.016  0.041
   25  0.017  0.001  0.004  0.022
   26  0.004  0.001  0.052  0.056
   27  0.006  0.000  0.029  0.036
   28  0.000  0.001  0.005  0.005
   29  0.001  0.000  0.003  0.004
   30  0.005  0.001  0.002  0.009
   31  0.001  0.000  0.003  0.004
   32  0.003  0.001  0.005  0.008
   33  0.005  0.001  0.002  0.009
   34  0.003  0.001  0.005  0.008
   35  0.000  0.001  0.008  0.008
   36  0.000  0.000  0.001  0.001
   37  0.000  0.000  0.000  0.000
   38  0.000  0.000  0.000  0.000
   39  0.000  0.000  0.000  0.000