 vasp.6.2.0 18Jan21 (build Jun 12 2021 23:27:24) complex                        
  
 executed on             LinuxIFC date 2022.05.30  16:38:31
 running on   28 total cores
 distrk:  each k-point on   28 cores,    1 groups
 distr:  one band on NCORE=   1 cores,   28 groups


--------------------------------------------------------------------------------------------------------


 INCAR:
   ISMEAR = -5
   SIGMA = 0.1
   ISPIN = 1
   EDIFF = 1.d-5
   EDIFFG = -0.01
   NSW = 0
   NELM = 150
   ENCUT = 500
   ISIF = 2
   IBRION = 2
   LREAL = Auto
   ALGO = Fast
   ICHARG = 11
   LORBIT = 10
   LCHARG = .F.
   LWAVE = .F.

 POTCAR:    PAW_PBE Au 04Oct2007                  
 POTCAR:    PAW_PBE Os 17Jan2003                  
 POTCAR:    PAW_PBE C 08Apr2002                   
 -----------------------------------------------------------------------------
|                                                                             |
|           W    W    AA    RRRRR   N    N  II  N    N   GGGG   !!!           |
|           W    W   A  A   R    R  NN   N  II  NN   N  G    G  !!!           |
|           W    W  A    A  R    R  N N  N  II  N N  N  G       !!!           |
|           W WW W  AAAAAA  RRRRR   N  N N  II  N  N N  G  GGG   !            |
|           WW  WW  A    A  R   R   N   NN  II  N   NN  G    G                |
|           W    W  A    A  R    R  N    N  II  N    N   GGGG   !!!           |
|                                                                             |
|     For optimal performance we recommend to set                             |
|       NCORE = 2 up to number-of-cores-per-socket                            |
|     NCORE specifies how many cores store one orbital (NPAR=cpu/NCORE).      |
|     This setting can greatly improve the performance of VASP for DFT.       |
|     The default, NCORE=1 might be grossly inefficient on modern             |
|     multi-core architectures or massively parallel machines. Do your        |
|     own testing! More info at https://www.vasp.at/wiki/index.php/NCORE      |
|     Unfortunately you need to use the default for GW and RPA                |
|     calculations (for HF NCORE is supported but not extensively tested      |
|     yet).                                                                   |
|                                                                             |
 -----------------------------------------------------------------------------

 POTCAR:    PAW_PBE Au 04Oct2007                  
   VRHFIN =Au: s1d10                                                                                
   LEXCH  = PE                                                                                      
   EATOM  =   926.0867 eV,   68.0654 Ry                                                             
                                                                                                    
   TITEL  = PAW_PBE Au 04Oct2007                                                                    
   LULTRA =        F    use ultrasoft PP ?                                                          
   IUNSCR =        1    unscreen: 0-lin 1-nonlin 2-no                                               
   RPACOR =    2.330    partial core radius                                                         
   POMASS =  196.966; ZVAL   =   11.000    mass and valenz                                          
   RCORE  =    2.500    outmost cutoff radius                                                       
   RWIGS  =    2.840; RWIGS  =    1.503    wigner-seitz radius (au A)                               
   ENMAX  =  229.943; ENMIN  =  172.457 eV                                                          
   ICORE  =        3    local potential                                                             
   LCOR   =        T    correct aug charges                                                         
   LPAW   =        T    paw PP                                                                      
   EAUG   =  356.670                                                                                
   DEXC   =    0.000                                                                                
   RMAX   =    2.562    core radius for proj-oper                                                   
   RAUG   =    1.300    factor for augmentation sphere                                              
   RDEP   =    2.598    radius for radial grids                                                     
   RDEPT  =    2.193    core radius for aug-charge                                                  
                                                                                                    
   Atomic configuration                                                                             
   16 entries                                                                                       
     n  l   j            E        occ.                                                              
     1  0  0.50    -80748.5001   2.0000                                                             
     2  0  0.50    -14244.7466   2.0000                                                             
     2  1  1.50    -12310.9591   6.0000                                                             
     3  0  0.50     -3362.1768   2.0000                                                             
     3  1  1.50     -2801.5463   6.0000                                                             
     3  2  2.50     -2203.8206  10.0000                                                             
     4  0  0.50      -729.8168   2.0000                                                             
     4  1  1.50      -546.0527   6.0000                                                             
     4  2  2.50      -325.7302  10.0000                                                             
     4  3  3.50       -81.1472  14.0000                                                             
     5  0  0.50      -108.3201   2.0000                                                             
     5  1  1.50       -59.7479   6.0000                                                             
     5  2  2.50        -6.8783  10.0000                                                             
     6  0  0.50        -5.7602   1.0000                                                             
     6  1  1.50        -6.8029   0.0000                                                             
     5  3  2.50        -1.3606   0.0000                                                             
   Description                                                                                      
     l       E           TYP  RCUT    TYP  RCUT                                                     
     2     -6.8782861     23  2.500                                                                 
     2     -8.2388687     23  2.500                                                                 
     0     -5.7601759     23  2.500                                                                 
     0     -0.8493231     23  2.500                                                                 
     1     -2.7211652     23  2.500                                                                 
     1     27.2116520     23  2.500                                                                 
     3     -1.3605826     23  2.500                                                                 
  local pseudopotential read in
  partial core-charges read in
  partial kinetic energy density read in
  atomic valenz-charges read in
  non local Contribution for L=           2  read in
    real space projection operators read in
  non local Contribution for L=           2  read in
    real space projection operators read in
  non local Contribution for L=           0  read in
    real space projection operators read in
  non local Contribution for L=           0  read in
    real space projection operators read in
  non local Contribution for L=           1  read in
    real space projection operators read in
  non local Contribution for L=           1  read in
    real space projection operators read in
    PAW grid and wavefunctions read in
 
   number of l-projection  operators is LMAX  =           6
   number of lm-projection operators is LMMAX =          18
 
 POTCAR:    PAW_PBE Os 17Jan2003                  
   VRHFIN =Os: 6s5d                                                                                 
   LEXCH  = PE                                                                                      
   EATOM  =   417.5999 eV,   30.6927 Ry                                                             
                                                                                                    
   TITEL  = PAW_PBE Os 17Jan2003                                                                    
   LULTRA =        F    use ultrasoft PP ?                                                          
   IUNSCR =        1    unscreen: 0-lin 1-nonlin 2-no                                               
   RPACOR =    2.250    partial core radius                                                         
   POMASS =  190.200; ZVAL   =    8.000    mass and valenz                                          
   RCORE  =    2.700    outmost cutoff radius                                                       
   RWIGS  =    2.670; RWIGS  =    1.413    wigner-seitz radius (au A)                               
   ENMAX  =  228.022; ENMIN  =  171.017 eV                                                          
   RCLOC  =    2.004    cutoff for local pot                                                        
   LCOR   =        T    correct aug charges                                                         
   LPAW   =        T    paw PP                                                                      
   EAUG   =  365.080                                                                                
   DEXC   =    0.000                                                                                
   RMAX   =    2.766    core radius for proj-oper                                                   
   RAUG   =    1.300    factor for augmentation sphere                                              
   RDEP   =    2.738    radius for radial grids                                                     
   RDEPT  =    2.220    core radius for aug-charge                                                  
                                                                                                    
   Atomic configuration                                                                             
   16 entries                                                                                       
     n  l   j            E        occ.                                                              
     1  0  0.50    -73844.2437   2.0000                                                             
     2  0  0.50    -12856.6893   2.0000                                                             
     2  1  1.50    -11191.7995   6.0000                                                             
     3  0  0.50     -2990.1422   2.0000                                                             
     3  1  1.50     -2501.5221   6.0000                                                             
     3  2  2.50     -1956.5818  10.0000                                                             
     4  0  0.50      -629.1606   2.0000                                                             
     4  1  1.50      -468.9548   6.0000                                                             
     4  2  2.50      -270.2868  10.0000                                                             
     4  3  3.50       -49.5699  14.0000                                                             
     5  0  0.50       -89.1521   2.0000                                                             
     5  1  1.50       -48.6063   6.0000                                                             
     5  2  2.50        -4.7055   7.0000                                                             
     6  0  0.50        -5.4288   1.0000                                                             
     6  1  1.50        -2.7212   0.0000                                                             
     5  3  2.50        -6.8029   0.0000                                                             
   Description                                                                                      
     l       E           TYP  RCUT    TYP  RCUT                                                     
     2     -4.7055230     23  2.500                                                                 
     2     -6.0661056     23  2.500                                                                 
     0     -5.4288441     23  2.500                                                                 
     0      3.7338294     23  2.500                                                                 
     1     -2.7211652     23  2.700                                                                 
     1     27.2116520     23  2.700                                                                 
  local pseudopotential read in
  partial core-charges read in
  partial kinetic energy density read in
  atomic valenz-charges read in
  non local Contribution for L=           2  read in
    real space projection operators read in
  non local Contribution for L=           2  read in
    real space projection operators read in
  non local Contribution for L=           0  read in
    real space projection operators read in
  non local Contribution for L=           0  read in
    real space projection operators read in
  non local Contribution for L=           1  read in
    real space projection operators read in
  non local Contribution for L=           1  read in
    real space projection operators read in
    PAW grid and wavefunctions read in
 
   number of l-projection  operators is LMAX  =           6
   number of lm-projection operators is LMMAX =          18
 
 POTCAR:    PAW_PBE C 08Apr2002                   
   VRHFIN =C: s2p2                                                                                  
   LEXCH  = PE                                                                                      
   EATOM  =   147.1560 eV,   10.8157 Ry                                                             
                                                                                                    
   TITEL  = PAW_PBE C 08Apr2002                                                                     
   LULTRA =        F    use ultrasoft PP ?                                                          
   IUNSCR =        1    unscreen: 0-lin 1-nonlin 2-no                                               
   RPACOR =    1.200    partial core radius                                                         
   POMASS =   12.011; ZVAL   =    4.000    mass and valenz                                          
   RCORE  =    1.500    outmost cutoff radius                                                       
   RWIGS  =    1.630; RWIGS  =    0.863    wigner-seitz radius (au A)                               
   ENMAX  =  400.000; ENMIN  =  300.000 eV                                                          
   ICORE  =        2    local potential                                                             
   LCOR   =        T    correct aug charges                                                         
   LPAW   =        T    paw PP                                                                      
   EAUG   =  644.873                                                                                
   DEXC   =    0.000                                                                                
   RMAX   =    1.529    core radius for proj-oper                                                   
   RAUG   =    1.300    factor for augmentation sphere                                              
   RDEP   =    1.501    radius for radial grids                                                     
   RDEPT  =    1.300    core radius for aug-charge                                                  
                                                                                                    
   Atomic configuration                                                                             
    4 entries                                                                                       
     n  l   j            E        occ.                                                              
     1  0  0.50      -273.3789   2.0000                                                             
     2  0  0.50       -13.7508   2.0000                                                             
     2  1  0.50        -5.2854   2.0000                                                             
     3  2  1.50        -5.4423   0.0000                                                             
   Description                                                                                      
     l       E           TYP  RCUT    TYP  RCUT                                                     
     0    -13.7508458     23  1.200                                                                 
     0     -8.2022199     23  1.200                                                                 
     1     -5.2854383     23  1.500                                                                 
     1     34.0145650     23  1.500                                                                 
     2     -5.4423304      7  1.500                                                                 
  local pseudopotential read in
  partial core-charges read in
  partial kinetic energy density read in
  atomic valenz-charges read in
  non local Contribution for L=           0  read in
    real space projection operators read in
  non local Contribution for L=           0  read in
    real space projection operators read in
  non local Contribution for L=           1  read in
    real space projection operators read in
  non local Contribution for L=           1  read in
    real space projection operators read in
    PAW grid and wavefunctions read in
 
   number of l-projection  operators is LMAX  =           4
   number of lm-projection operators is LMMAX =           8
 
 Optimization of the real space projectors (new method)

 maximal supplied QI-value         = 15.12
 optimisation between [QCUT,QGAM] = [ 11.34, 22.83] = [ 36.00,145.93] Ry 
 Optimized for a Real-space Cutoff    1.39 Angstroem

   l    n(q)    QCUT    max X(q) W(low)/X(q) W(high)/X(q)  e(spline) 
   2      9    11.338    60.898    0.39E-03    0.42E-03    0.21E-06
   2      9    11.338    58.894    0.40E-03    0.42E-03    0.22E-06
   0      9    11.338   109.617    0.13E-03    0.20E-04    0.13E-06
   0      9    11.338    75.026    0.13E-03    0.20E-04    0.13E-06
   1      9    11.338    16.344    0.33E-04    0.24E-03    0.18E-06
   1      9    11.338    10.160    0.26E-04    0.19E-03    0.15E-06
 Optimization of the real space projectors (new method)

 maximal supplied QI-value         = 13.98
 optimisation between [QCUT,QGAM] = [ 11.33, 22.79] = [ 35.93,145.49] Ry 
 Optimized for a Real-space Cutoff    1.56 Angstroem

   l    n(q)    QCUT    max X(q) W(low)/X(q) W(high)/X(q)  e(spline) 
   2     10    11.327   152.873    0.32E-03    0.72E-03    0.11E-05
   2     10    11.327   151.010    0.32E-03    0.72E-03    0.11E-05
   0     11    11.327    72.114    0.43E-04    0.61E-04    0.13E-06
   0     11    11.327    44.596    0.40E-04    0.57E-04    0.12E-06
   1     10    11.327    13.742    0.16E-03    0.10E-03    0.19E-06
   1     10    11.327     8.461    0.12E-03    0.78E-04    0.15E-06
 Optimization of the real space projectors (new method)

 maximal supplied QI-value         = 25.13
 optimisation between [QCUT,QGAM] = [ 11.31, 22.87] = [ 35.82,146.48] Ry 
 Optimized for a Real-space Cutoff    1.00 Angstroem

   l    n(q)    QCUT    max X(q) W(low)/X(q) W(high)/X(q)  e(spline) 
   0      7    11.310   115.676    0.43E-03    0.13E-02    0.19E-06
   0      7    11.310    87.132    0.43E-03    0.13E-02    0.18E-06
   1      6    11.310     4.429    0.42E-03    0.74E-03    0.11E-06
   1      6    11.310     2.733    0.34E-03    0.55E-03    0.92E-07
  PAW_PBE Au 04Oct2007                  :
 energy of atom  1       EATOM= -926.0867
 kinetic energy error for atom=    0.0042 (will be added to EATOM!!)
  PAW_PBE Os 17Jan2003                  :
 energy of atom  2       EATOM= -417.5999
 kinetic energy error for atom=    0.0029 (will be added to EATOM!!)
  PAW_PBE C 08Apr2002                   :
 energy of atom  3       EATOM= -147.1560
 kinetic energy error for atom=    0.0076 (will be added to EATOM!!)
 
 
 POSCAR: Au-Os-C
  positions in direct lattice
  velocities in cartesian coordinates
 exchange correlation table for  LEXCH =        8
   RHO(1)=    0.500       N(1)  =     2000
   RHO(2)=  100.500       N(2)  =     4000

 VTST: version 3.2, (02/03/18)

 CHAIN: initializing optimizer
 
 OPT: Using VASP Conjugate-Gradient optimizer
 CHAIN: Read ICHAIN            0
 
 POSCAR: Au-Os-C
  positions in direct lattice
  velocities in cartesian coordinates
 


--------------------------------------------------------------------------------------------------------


 ion  position               nearest neighbor table
   1  0.000  0.000  0.217-  16 2.94  12 2.94   6 2.94   8 2.94   7 2.94   3 2.94  10 2.94   4 2.94
                             2 2.94
   2  0.333  0.000  0.217-   9 2.94  11 2.94  17 2.94  10 2.94   8 2.94   4 2.94   5 2.94   1 2.94
                             3 2.94
   3  0.667  0.000  0.217-   7 2.94  18 2.94  12 2.94   1 2.94  11 2.94   5 2.94   6 2.94   9 2.94
                             2 2.94
   4  0.000  0.333  0.217-  10 2.94   6 2.94   5 2.94  13 2.94   2 2.94  15 2.94   9 2.94   1 2.94
                             7 2.94
   5  0.333  0.333  0.217-  13 2.94   7 2.94  11 2.94   4 2.94   2 2.94  14 2.94   3 2.94   8 2.94
                             6 2.94
   6  0.667  0.333  0.217-  15 2.94  14 2.94   1 2.94  12 2.94   4 2.94   9 2.94   8 2.94   3 2.94
                             5 2.94
   7  0.000  0.667  0.217-  18 2.94   3 2.94  16 2.94   5 2.94   1 2.94  13 2.94   8 2.94   4 2.94
                             9 2.94
   8  0.333  0.667  0.217-   9 2.94  17 2.94   1 2.94   2 2.94  14 2.94  16 2.94   6 2.94   7 2.94
                             5 2.94
   9  0.667  0.667  0.217-   2 2.94   8 2.94  17 2.94   6 2.94  15 2.94   4 2.94   3 2.94  18 2.94
                             7 2.94
  10  0.111  0.111  0.316-  20 2.90  11 2.94  17 2.94   2 2.94   4 2.94   1 2.94  12 2.94  16 2.94
                            13 2.94  15 2.94  26 2.95  19 2.95
  11  0.444  0.111  0.316-  20 2.91  21 2.91  27 2.94  13 2.94   2 2.94  10 2.94  17 2.94   5 2.94
                             3 2.94  18 2.94  14 2.94  12 2.94
  12  0.778  0.111  0.316-  21 2.90  16 2.94  18 2.94   1 2.94  14 2.94  15 2.94   3 2.94   6 2.94
                            10 2.94  11 2.94  25 2.95  19 2.95
  13  0.111  0.444  0.316-  23 2.91  20 2.91  22 2.94   5 2.94  18 2.94  11 2.94   7 2.94   4 2.94
                            16 2.94  10 2.94  14 2.94  15 2.94
  14  0.444  0.444  0.316-  21 2.91  23 2.91  24 2.94  15 2.94   6 2.94  12 2.94   8 2.94  17 2.94
                             5 2.94  16 2.94  13 2.94  11 2.94
  15  0.778  0.444  0.316-  24 2.92  22 2.92  14 2.94   6 2.94  17 2.94  12 2.94   9 2.94   4 2.94
                            10 2.94  13 2.94  18 2.94  19 2.95
  16  0.111  0.778  0.316-  23 2.90  18 2.94  12 2.94   7 2.94   1 2.94   8 2.94  13 2.94  10 2.94
                            14 2.94  17 2.94  25 2.95  26 2.95
  17  0.444  0.778  0.316-  27 2.92  24 2.92   9 2.94  15 2.94   2 2.94  10 2.94  11 2.94   8 2.94
                            14 2.94  16 2.94  18 2.94  26 2.95
  18  0.778  0.778  0.316-  22 2.92  27 2.92  16 2.94   7 2.94  13 2.94  12 2.94   3 2.94  11 2.94
                             9 2.94  15 2.94  17 2.94  25 2.95
  19  0.888  0.223  0.415-  24 2.93  22 2.93  21 2.93  20 2.93  28 2.95  15 2.95  26 2.95  25 2.95
                            10 2.95  12 2.95  32 2.98  31 2.98
  20  0.222  0.222  0.413-  36 2.77  10 2.90  11 2.91  13 2.91  26 2.93  19 2.93  23 2.95  21 2.95
                            27 2.96  22 2.96  29 2.96  31 2.96
  21  0.556  0.222  0.413-  36 2.77  12 2.90  14 2.91  11 2.91  25 2.93  19 2.93  20 2.95  23 2.95
                            27 2.96  24 2.96  30 2.96  32 2.96
  22  0.886  0.557  0.414-  24 2.90  27 2.90  18 2.92  15 2.92  25 2.93  19 2.93  13 2.94  35 2.95
                            23 2.96  20 2.96  33 2.98  31 2.98
  23  0.222  0.556  0.413-  36 2.77  16 2.90  13 2.91  14 2.91  25 2.93  26 2.93  20 2.95  21 2.95
                            22 2.96  24 2.96  33 2.96  34 2.96
  24  0.557  0.557  0.414-  27 2.90  22 2.90  15 2.92  17 2.92  26 2.93  19 2.93  14 2.94  35 2.95
                            21 2.96  23 2.96  32 2.98  34 2.98
  25  0.888  0.888  0.415-  22 2.93  27 2.93  23 2.93  21 2.93  28 2.95  18 2.95  19 2.95  26 2.95
                            16 2.95  12 2.95  33 2.98  30 2.98
  26  0.223  0.888  0.415-  27 2.93  24 2.93  20 2.93  23 2.93  28 2.95  17 2.95  19 2.95  25 2.95
                            10 2.95  16 2.95  29 2.98  34 2.98
  27  0.557  0.886  0.414-  24 2.90  22 2.90  17 2.92  18 2.92  26 2.93  25 2.93  11 2.94  35 2.95
                            20 2.96  21 2.96  29 2.98  30 2.98
  28  0.000  0.000  0.514-  25 2.95  19 2.95  26 2.95  34 2.98  32 2.98  33 2.98  30 2.98  31 2.98
                            29 2.98
  29  0.333  0.009  0.514-  31 2.86  30 2.86  36 2.88  20 2.96  28 2.98  35 2.98  27 2.98  26 2.98
                            34 3.09
  30  0.658  0.009  0.514-  32 2.86  29 2.86  36 2.88  21 2.96  28 2.98  35 2.98  27 2.98  25 2.98
                            33 3.09
  31  0.009  0.333  0.514-  29 2.86  33 2.86  36 2.88  20 2.96  28 2.98  35 2.98  22 2.98  19 2.98
                            32 3.09
  32  0.658  0.333  0.514-  30 2.86  34 2.86  36 2.88  21 2.96  28 2.98  35 2.98  24 2.98  19 2.98
                            31 3.09
  33  0.009  0.658  0.514-  34 2.86  31 2.86  36 2.88  23 2.96  28 2.98  35 2.98  22 2.98  25 2.98
                            30 3.09
  34  0.333  0.658  0.514-  33 2.86  32 2.86  36 2.88  23 2.96  28 2.98  35 2.98  24 2.98  26 2.98
                            29 3.09
  35  0.667  0.667  0.514-  24 2.95  27 2.95  22 2.95  29 2.98  34 2.98  32 2.98  31 2.98  30 2.98
                            33 2.98
  36  0.333  0.333  0.502-  37 1.74  20 2.77  23 2.77  21 2.77  33 2.88  31 2.88  29 2.88  30 2.88
                            34 2.88  32 2.88
  37  0.333  0.333  0.574-  36 1.74
 
  LATTYP: Found a hexagonal cell.
 ALAT       =     8.8135128021
 C/A-ratio  =     2.7586513333
  
  Lattice vectors:
  
 A1 = (  -4.4067569092,  -7.6327256898,   0.0000000000)
 A2 = (   8.8135128021,   0.0000000000,   0.0000000000)
 A3 = (   0.0000000000,   0.0000000000,  24.3134088421)


Analysis of symmetry for initial positions (statically):
=====================================================================
 Subroutine PRICEL returns:
 Original cell was already a primitive cell.
 

 Routine SETGRP: Setting up the symmetry group for a 
 hexagonal supercell.


 Subroutine GETGRP returns: Found  6 space group operations
 (whereof  6 operations were pure point group operations)
 out of a pool of 24 trial point group operations.


The static configuration has the point symmetry C_3v.


Analysis of symmetry for dynamics (positions and initial velocities):
=====================================================================
 Subroutine PRICEL returns:
 Original cell was already a primitive cell.
 

 Routine SETGRP: Setting up the symmetry group for a 
 hexagonal supercell.


 Subroutine GETGRP returns: Found  6 space group operations
 (whereof  6 operations were pure point group operations)
 out of a pool of 24 trial point group operations.


The dynamic configuration has the point symmetry C_3v.


Analysis of constrained symmetry for selective dynamics:
=====================================================================
 Subroutine PRICEL returns:
 Original cell was already a primitive cell.
 

 Routine SETGRP: Setting up the symmetry group for a 
 hexagonal supercell.


 Subroutine GETGRP returns: Found  6 space group operations
 (whereof  6 operations were pure point group operations)
 out of a pool of 24 trial point group operations.


The constrained configuration has the point symmetry C_3v.


 Subroutine INISYM returns: Found  6 space group operations
 (whereof  6 operations are pure point group operations),
 and found     1 'primitive' translations


----------------------------------------------------------------------------------------

                                     Primitive cell                                     

  volume of cell :    1635.5904

  direct lattice vectors                    reciprocal lattice vectors
     8.813512802  0.000000000  0.000000000     0.113462137 -0.065507406  0.000000000
     4.406756909  7.632725690  0.000000000     0.000000000  0.131014796  0.000000000
     0.000000000  0.000000000 24.313408842     0.000000000  0.000000000  0.041129568

  length of vectors
     8.813512802  8.813512802 24.313408842     0.131014796  0.131014796  0.041129568

  position of ions in fractional coordinates (direct lattice)
     0.000000000  0.000000000  0.217179745
     0.333333343  0.000000000  0.217179745
     0.666666687  0.000000000  0.217179745
     0.000000000  0.333333343  0.217179745
     0.333333313  0.333333343  0.217179745
     0.666666687  0.333333343  0.217179745
     0.000000000  0.666666687  0.217179745
     0.333333343  0.666666687  0.217179745
     0.666666627  0.666666687  0.217179745
     0.111111119  0.111111112  0.315838643
     0.444444418  0.111111112  0.315838643
     0.777777791  0.111111112  0.315838643
     0.111111127  0.444444448  0.315838643
     0.444444478  0.444444448  0.315838643
     0.777777731  0.444444448  0.315838643
     0.111111090  0.777777791  0.315838643
     0.444444448  0.777777791  0.315838643
     0.777777851  0.777777791  0.315838643
     0.888433906  0.223132205  0.415200900
     0.221845884  0.221845869  0.412764021
     0.556308293  0.221845869  0.412764021
     0.886246892  0.556876584  0.413881209
     0.221845839  0.556308293  0.412764021
     0.556876584  0.556876584  0.413881209
     0.888433906  0.888433906  0.415200900
     0.223132235  0.888433906  0.415200900
     0.556876524  0.886246892  0.413881209
     0.000000000  0.000000000  0.514077386
     0.333311485  0.008509540  0.514231501
     0.658179005  0.008509540  0.514231501
     0.008509540  0.333311485  0.514231501
     0.658179005  0.333311485  0.514231501
     0.008509540  0.658179005  0.514231501
     0.333311485  0.658179005  0.514231501
     0.666666627  0.666666687  0.513955569
     0.333333313  0.333333343  0.502392195
     0.333333313  0.333333343  0.574136724

  ion indices of the primitive-cell ions
   primitive index   ion index
                 1           1
                 2           2
                 3           3
                 4           4
                 5           5
                 6           6
                 7           7
                 8           8
                 9           9
                10          10
                11          11
                12          12
                13          13
                14          14
                15          15
                16          16
                17          17
                18          18
                19          19
                20          20
                21          21
                22          22
                23          23
                24          24
                25          25
                26          26
                27          27
                28          28
                29          29
                30          30
                31          31
                32          32
                33          33
                34          34
                35          35
                36          36
                37          37

----------------------------------------------------------------------------------------

 
 
 KPOINTS: Automatic mesh                          

Automatic generation of k-mesh.
 Grid dimensions read from file:
 generate k-points for:    8    8    1

 Generating k-lattice:

  Cartesian coordinates                     Fractional coordinates (reciprocal lattice)
     0.014182767 -0.008188426  0.000000000     0.125000000  0.000000000  0.000000000
     0.000000000  0.016376850  0.000000000     0.000000000  0.125000000  0.000000000
     0.000000000  0.000000000  0.041129568     0.000000000  0.000000000  1.000000000

  Length of vectors
     0.016376850  0.016376850  0.041129568

  Shift w.r.t. Gamma in fractional coordinates (k-lattice)
     0.000000000  0.000000000  0.000000000

 TETIRR: Found     36 inequivalent tetrahedra from      384
 
 Subroutine IBZKPT returns following result:
 ===========================================
 
 Found     10 irreducible k-points:
 
 Following reciprocal coordinates:
            Coordinates               Weight
  0.000000  0.000000  0.000000      1.000000
  0.125000  0.000000  0.000000      6.000000
  0.250000  0.000000  0.000000      6.000000
  0.375000 -0.000000  0.000000      6.000000
  0.500000  0.000000  0.000000      3.000000
  0.250000  0.125000  0.000000      6.000000
  0.375000  0.125000  0.000000     12.000000
  0.500000  0.125000  0.000000     12.000000
  0.500000  0.250000  0.000000      6.000000
 -0.375000  0.250000  0.000000      6.000000
 
 Following cartesian coordinates:
            Coordinates               Weight
  0.000000  0.000000  0.000000      1.000000
  0.014183 -0.008188  0.000000      6.000000
  0.028366 -0.016377  0.000000      6.000000
  0.042548 -0.024565  0.000000      6.000000
  0.056731 -0.032754  0.000000      3.000000
  0.028366 -0.000000  0.000000      6.000000
  0.042548 -0.008188  0.000000     12.000000
  0.056731 -0.016377  0.000000     12.000000
  0.056731 -0.000000  0.000000      6.000000
 -0.042548  0.057319  0.000000      6.000000
 


--------------------------------------------------------------------------------------------------------




 Dimension of arrays:
   k-points           NKPTS =     10   k-points in BZ     NKDIM =     10   number of bands    NBANDS=    252
   number of dos      NEDOS =    301   number of ions     NIONS =     37
   non local maximal  LDIM  =      6   non local SUM 2l+1 LMDIM =     18
   total plane-waves  NPLWV = 322560
   max r-space proj   IRMAX =   3211   max aug-charges    IRDMAX=  12258
   dimension x,y,z NGX =    48 NGY =   48 NGZ =  140
   dimension x,y,z NGXF=    96 NGYF=   96 NGZF=  280
   support grid    NGXF=    96 NGYF=   96 NGZF=  280
   ions per type =              35   1   1
   NGX,Y,Z   is equivalent  to a cutoff of   9.05,  9.05,  9.57 a.u.
   NGXF,Y,Z  is equivalent  to a cutoff of  18.11, 18.11, 19.15 a.u.

 SYSTEM =  unknown system                          
 POSCAR =  Au-Os-C                                 

 Startparameter for this run:
   NWRITE =      2    write-flag & timer
   PREC   = normal    normal or accurate (medium, high low for compatibility)
   ISTART =      0    job   : 0-new  1-cont  2-samecut
   ICHARG =     11    charge: 1-file 2-atom 10-const
   ISPIN  =      1    spin polarized calculation?
   LNONCOLLINEAR =      F non collinear calculations
   LSORBIT =      F    spin-orbit coupling
   INIWAV =      1    electr: 0-lowe 1-rand  2-diag
   LASPH  =      F    aspherical Exc in radial PAW
   METAGGA=      F    non-selfconsistent MetaGGA calc.

 Electronic Relaxation 1
   ENCUT  =  500.0 eV  36.75 Ry    6.06 a.u.  16.07 16.07 44.33*2*pi/ulx,y,z
   ENINI  =  500.0     initial cutoff
   ENAUG  =  644.9 eV  augmentation charge cutoff
   NELM   =    150;   NELMIN=  2; NELMDL= -5     # of ELM steps 
   EDIFF  = 0.1E-04   stopping-criterion for ELM
   LREAL  =      T    real-space projection
   NLSPLINE    = F    spline interpolate recip. space projectors
   LCOMPAT=      F    compatible to vasp.4.4
   GGA_COMPAT  = T    GGA compatible to vasp.4.4-vasp.4.6
   LMAXPAW     = -100 max onsite density
   LMAXMIX     =    2 max onsite mixed and CHGCAR
   VOSKOWN=      0    Vosko Wilk Nusair interpolation
   ROPT   =   -0.00050  -0.00050  -0.00050
 Ionic relaxation
   EDIFFG = -.1E-01   stopping-criterion for IOM
   NSW    =      0    number of steps for IOM
   NBLOCK =      1;   KBLOCK =      1    inner block; outer block 
   IBRION =     -1    ionic relax: 0-MD 1-quasi-New 2-CG
   NFREE  =      1    steps in history (QN), initial steepest desc. (CG)
   ISIF   =      2    stress and relaxation
   IWAVPR =     10    prediction:  0-non 1-charg 2-wave 3-comb
   ISYM   =      2    0-nonsym 1-usesym 2-fastsym
   LCORR  =      T    Harris-Foulkes like correction to forces

   POTIM  = 0.5000    time-step for ionic-motion
   TEIN   =    0.0    initial temperature
   TEBEG  =    0.0;   TEEND  =   0.0 temperature during run
   SMASS  =  -3.00    Nose mass-parameter (am)
   estimated Nose-frequenzy (Omega)   =  0.10E-29 period in steps = 0.13E+47 mass=  -0.178E-26a.u.
   SCALEE = 1.0000    scale energy and forces
   NPACO  =    256;   APACO  = 16.0  distance and # of slots for P.C.
   PSTRESS=    0.0 pullay stress

  Mass of Ions in am
   POMASS = 196.97190.20 12.01
  Ionic Valenz
   ZVAL   =  11.00  8.00  4.00
  Atomic Wigner-Seitz radii
   RWIGS  =  -1.00 -1.00 -1.00
  virtual crystal weights 
   VCA    =   1.00  1.00  1.00
   NELECT =     397.0000    total number of electrons
   NUPDOWN=      -1.0000    fix difference up-down

 DOS related values:
   EMIN   =  10.00;   EMAX   =-10.00  energy-range for DOS
   EFERMI =   0.00
   ISMEAR =    -5;   SIGMA  =   0.10  broadening in eV -4-tet -1-fermi 0-gaus

 Electronic relaxation 2 (details)
   IALGO  =     68    algorithm
   LDIAG  =      T    sub-space diagonalisation (order eigenvalues)
   LSUBROT=      F    optimize rotation matrix (better conditioning)
   TURBO    =      0    0=normal 1=particle mesh
   IRESTART =      0    0=no restart 2=restart with 2 vectors
   NREBOOT  =      0    no. of reboots
   NMIN     =      0    reboot dimension
   EREF     =   0.00    reference energy to select bands
   IMIX   =      4    mixing-type and parameters
     AMIX     =   0.40;   BMIX     =  1.00
     AMIX_MAG =   1.60;   BMIX_MAG =  1.00
     AMIN     =   0.10
     WC   =   100.;   INIMIX=   1;  MIXPRE=   1;  MAXMIX= -45

 Intra band minimization:
   WEIMIN = 0.0000     energy-eigenvalue tresh-hold
   EBREAK =  0.99E-08  absolut break condition
   DEPER  =   0.30     relativ break condition  

   TIME   =   0.40     timestep for ELM

  volume/ion in A,a.u.               =      44.21       298.31
  Fermi-wavevector in a.u.,A,eV,Ry     =   1.021206  1.929800 14.189003  1.042862
  Thomas-Fermi vector in A             =   2.154818
 
 Write flags
   LWAVE        =      F    write WAVECAR
   LDOWNSAMPLE  =      F    k-point downsampling of WAVECAR
   LCHARG       =      F    write CHGCAR
   LVTOT        =      F    write LOCPOT, total local potential
   LVHAR        =      F    write LOCPOT, Hartree potential only
   LELF         =      F    write electronic localiz. function (ELF)
   LORBIT       =     10    0 simple, 1 ext, 2 COOP (PROOUT), +10 PAW based schemes


 Dipole corrections
   LMONO  =      F    monopole corrections only (constant potential shift)
   LDIPOL =      F    correct potential (dipole corrections)
   IDIPOL =      0    1-x, 2-y, 3-z, 4-all directions 
   EPSILON=  1.0000000 bulk dielectric constant

 Exchange correlation treatment:
   GGA     =    --    GGA type
   LEXCH   =     8    internal setting for exchange type
   VOSKOWN=      0    Vosko Wilk Nusair interpolation
   LHFCALC =     F    Hartree Fock is set to
   LHFONE  =     F    Hartree Fock one center treatment
   AEXX    =    0.0000 exact exchange contribution

 Linear response parameters
   LEPSILON=     F    determine dielectric tensor
   LRPA    =     F    only Hartree local field effects (RPA)
   LNABLA  =     F    use nabla operator in PAW spheres
   LVEL    =     F    velocity operator in full k-point grid
   LINTERFAST=   F  fast interpolation
   KINTER  =     0    interpolate to denser k-point grid
   CSHIFT  =0.1000    complex shift for real part using Kramers Kronig
   OMEGAMAX=  -1.0    maximum frequency
   DEG_THRESHOLD= 0.2000000E-02 threshold for treating states as degnerate
   RTIME   =   -0.100 relaxation time in fs
  (WPLASMAI=    0.000 imaginary part of plasma frequency in eV, 0.658/RTIME)
   DFIELD  = 0.0000000 0.0000000 0.0000000 field for delta impulse in time
 
 Orbital magnetization related:
   ORBITALMAG=     F  switch on orbital magnetization
   LCHIMAG   =     F  perturbation theory with respect to B field
   DQ        =  0.001000  dq finite difference perturbation B field
   LLRAUG    =     F  two centre corrections for induced B field



--------------------------------------------------------------------------------------------------------


 Static calculation
 charge density and potential remain constant during run
 non-spin polarized calculation
 RMM-DIIS sequential band-by-band and
  variant of blocked Davidson during initial phase
 perform sub-space diagonalisation
    before iterative eigenvector-optimisation
 no mixing
 using additional bands           53
 real space projection scheme for non local part
 use partial core corrections
 calculate Harris-corrections to forces 
   (improved forces if not selfconsistent)
 use gradient corrections 
 WARNING: stress and forces are not correct
  (second derivative of E(xc) not defined)
 use of overlap-Matrix (Vanderbilt PP)
 Fermi weights with tetrahedron method with Bloechl corrections


--------------------------------------------------------------------------------------------------------


  energy-cutoff  :      500.00
  volume of cell :     1635.59
      direct lattice vectors                 reciprocal lattice vectors
     8.813512802  0.000000000  0.000000000     0.113462137 -0.065507406  0.000000000
     4.406756909  7.632725690  0.000000000     0.000000000  0.131014796  0.000000000
     0.000000000  0.000000000 24.313408842     0.000000000  0.000000000  0.041129568

  length of vectors
     8.813512802  8.813512802 24.313408842     0.131014796  0.131014796  0.041129568


 
 k-points in units of 2pi/SCALE and weight: Automatic mesh                          
   0.00000000  0.00000000  0.00000000       0.016
   0.01418277 -0.00818843  0.00000000       0.094
   0.02836553 -0.01637685  0.00000000       0.094
   0.04254830 -0.02456528  0.00000000       0.094
   0.05673107 -0.03275370  0.00000000       0.047
   0.02836553 -0.00000000  0.00000000       0.094
   0.04254830 -0.00818843  0.00000000       0.188
   0.05673107 -0.01637685  0.00000000       0.188
   0.05673107 -0.00000000  0.00000000       0.094
  -0.04254830  0.05731898  0.00000000       0.094
 
 k-points in reciprocal lattice and weights: Automatic mesh                          
   0.00000000  0.00000000  0.00000000       0.016
   0.12500000  0.00000000  0.00000000       0.094
   0.25000000  0.00000000  0.00000000       0.094
   0.37500000 -0.00000000  0.00000000       0.094
   0.50000000  0.00000000  0.00000000       0.047
   0.25000000  0.12500000  0.00000000       0.094
   0.37500000  0.12500000  0.00000000       0.188
   0.50000000  0.12500000  0.00000000       0.188
   0.50000000  0.25000000  0.00000000       0.094
  -0.37500000  0.25000000  0.00000000       0.094
 
 position of ions in fractional coordinates (direct lattice) 
   0.00000000  0.00000000  0.21717974
   0.33333334  0.00000000  0.21717974
   0.66666669  0.00000000  0.21717974
   0.00000000  0.33333334  0.21717974
   0.33333331  0.33333334  0.21717974
   0.66666669  0.33333334  0.21717974
   0.00000000  0.66666669  0.21717974
   0.33333334  0.66666669  0.21717974
   0.66666663  0.66666669  0.21717974
   0.11111112  0.11111111  0.31583864
   0.44444442  0.11111111  0.31583864
   0.77777779  0.11111111  0.31583864
   0.11111113  0.44444445  0.31583864
   0.44444448  0.44444445  0.31583864
   0.77777773  0.44444445  0.31583864
   0.11111109  0.77777779  0.31583864
   0.44444445  0.77777779  0.31583864
   0.77777785  0.77777779  0.31583864
   0.88843391  0.22313220  0.41520090
   0.22184588  0.22184587  0.41276402
   0.55630829  0.22184587  0.41276402
   0.88624689  0.55687658  0.41388121
   0.22184584  0.55630829  0.41276402
   0.55687658  0.55687658  0.41388121
   0.88843391  0.88843391  0.41520090
   0.22313223  0.88843391  0.41520090
   0.55687652  0.88624689  0.41388121
   0.00000000  0.00000000  0.51407739
   0.33331149  0.00850954  0.51423150
   0.65817900  0.00850954  0.51423150
   0.00850954  0.33331149  0.51423150
   0.65817900  0.33331149  0.51423150
   0.00850954  0.65817900  0.51423150
   0.33331149  0.65817900  0.51423150
   0.66666663  0.66666669  0.51395557
   0.33333331  0.33333334  0.50239220
   0.33333331  0.33333334  0.57413672
 
 position of ions in cartesian coordinates  (Angst):
   0.00000000  0.00000000  5.28037993
   2.93783769  0.00000000  5.28037993
   5.87567538  0.00000000  5.28037993
   1.46891901  2.54424197  5.28037993
   4.40675643  2.54424197  5.28037993
   7.34459439  2.54424197  5.28037993
   2.93783803  5.08848395  5.28037993
   5.87567571  5.08848395  5.28037993
   8.81351288  5.08848395  5.28037993
   1.46891893  0.84808064  7.67911405
   4.40675623  0.84808064  7.67911405
   7.34459418  0.84808064  7.67911405
   2.93783798  3.39232256  7.67911405
   5.87567574  3.39232256  7.67911405
   8.81351263  3.39232256  7.67911405
   4.40675667  5.93656453  7.67911405
   7.34459449  5.93656453  7.67911405
  10.28243270  5.93656453  7.67911405
   8.81351299  1.70310691 10.09494923
   2.93286235  1.69328866 10.03570041
   5.88065107  1.69328866 10.03570041
  10.26496806  4.25048621 10.06286304
   4.40675655  4.24614860 10.03570041
   7.36205863  4.25048621 10.06286304
  11.74533585  6.78117230 10.09494923
   5.88169106  6.78117230 10.09494923
   8.81351299  6.76447942 10.06286304
   0.00000000  0.00000000 12.49897366
   2.97514452  0.06495099 12.50272073
   5.83836856  0.06495099 12.50272073
   1.54382163  2.54407513 12.50272073
   7.26969177  2.54407513 12.50272073
   2.97543382  5.02369980 12.50272073
   5.83807992  5.02369980 12.50272073
   8.81351288  5.08848395 12.49601187
   4.40675643  2.54424197 12.21486684
   4.40675643  2.54424197 13.95922089
 


--------------------------------------------------------------------------------------------------------


 k-point   1 :   0.0000 0.0000 0.0000  plane waves:   41363
 k-point   2 :   0.1250 0.0000 0.0000  plane waves:   41482
 k-point   3 :   0.2500 0.0000 0.0000  plane waves:   41496
 k-point   4 :   0.3750-0.0000 0.0000  plane waves:   41568
 k-point   5 :   0.5000 0.0000 0.0000  plane waves:   41500
 k-point   6 :   0.2500 0.1250 0.0000  plane waves:   41456
 k-point   7 :   0.3750 0.1250 0.0000  plane waves:   41540
 k-point   8 :   0.5000 0.1250 0.0000  plane waves:   41540
 k-point   9 :   0.5000 0.2500 0.0000  plane waves:   41588
 k-point  10 :  -0.3750 0.2500 0.0000  plane waves:   41554

 maximum and minimum number of plane-waves per node :     41588    41363

 maximum number of plane-waves:     41588
 maximum index in each direction: 
   IXMAX=   16   IYMAX=   16   IZMAX=   44
   IXMIN=  -16   IYMIN=  -16   IZMIN=  -44


 serial   3D FFT for wavefunctions
 parallel 3D FFT for charge:
    minimum data exchange during FFTs selected (reduces bandwidth)


 total amount of memory used by VASP MPI-rank0   130560. kBytes
=======================================================================

   base      :      30000. kBytes
   nonlr-proj:      14437. kBytes
   fftplans  :       4808. kBytes
   grid      :      19857. kBytes
   one-center:        575. kBytes
   wavefun   :      60883. kBytes
 
     INWAV:  cpu time    0.0000: real time    0.0000
 initial charge density was supplied:
 number of electron     397.0000044 magnetization 
 keeping initial charge density in first step


--------------------------------------------------------------------------------------------------------


 Maximum index for non-local projection operator         3060
 Maximum index for augmentation-charges          867 (set IRDMAX)


--------------------------------------------------------------------------------------------------------


 First call to EWALD:  gamma=   0.150
 Maximum number of real-space cells 4x 4x 2
 Maximum number of reciprocal cells 2x 2x 5

    FEWALD:  cpu time    0.0014: real time    0.0015


--------------------------------------- Iteration      1(   1)  ---------------------------------------


    POTLOK:  cpu time    0.0459: real time    0.0464
    SETDIJ:  cpu time    0.0050: real time    0.0050
     EDDAV:  cpu time    7.7078: real time    7.7097
 BZINTS: Fermi energy:   10.844308;  397.000000 electrons
         Band energy: 0.135025E+04;  BLOECHL correction:   -0.015535
       DOS:  cpu time    0.0106: real time    0.0106
    --------------------------------------------
      LOOP:  cpu time    7.7693: real time    7.7718

 eigenvalue-minimisations  :  5040
 total energy-change (2. order) : 0.2650174E+04  (-0.1766767E+05)
 number of electron     397.0000044 magnetization 
 augmentation part      397.0000044 magnetization 

 Free energy of the ion-electron system (eV)
  ---------------------------------------------------
  alpha Z        PSCENC =       937.40945982
  Ewald energy   TEWEN  =    127706.99707431
  -Hartree energ DENC   =   -161597.90031638
  -exchange      EXHF   =         0.00000000
  -V(xc)+E(xc)   XCENC  =       497.99127008
  PAW double counting   =     36090.75641551   -35312.96107987
  entropy T*S    EENTRO =         0.00000000
  eigenvalues    EBANDS =      1350.24925544
  atomic energy  EATOM  =     32977.63164945
  Solvation  Ediel_sol  =         0.00000000
  ---------------------------------------------------
  free energy    TOTEN  =      2650.17372836 eV

  energy without entropy =     2650.17372836  energy(sigma->0) =     2650.17372836


--------------------------------------------------------------------------------------------------------




--------------------------------------- Iteration      1(   2)  ---------------------------------------


     EDDAV:  cpu time    8.5064: real time    8.5069
 BZINTS: Fermi energy:    0.902675;  397.000000 electrons
         Band energy:-0.128299E+04;  BLOECHL correction:   -0.059182
       DOS:  cpu time    0.0096: real time    0.0096
    --------------------------------------------
      LOOP:  cpu time    8.5160: real time    8.5165

 eigenvalue-minimisations  :  5712
 total energy-change (2. order) :-0.2633234E+04  (-0.2430824E+04)
 number of electron     397.0000044 magnetization 
 augmentation part      397.0000044 magnetization 

 Free energy of the ion-electron system (eV)
  ---------------------------------------------------
  alpha Z        PSCENC =       937.40945982
  Ewald energy   TEWEN  =    127706.99707431
  -Hartree energ DENC   =   -161597.90031638
  -exchange      EXHF   =         0.00000000
  -V(xc)+E(xc)   XCENC  =       497.99127008
  PAW double counting   =     36090.75641551   -35312.96107987
  entropy T*S    EENTRO =         0.00000000
  eigenvalues    EBANDS =     -1282.98504538
  atomic energy  EATOM  =     32977.63164945
  Solvation  Ediel_sol  =         0.00000000
  ---------------------------------------------------
  free energy    TOTEN  =        16.93942754 eV

  energy without entropy =       16.93942754  energy(sigma->0) =       16.93942754


--------------------------------------------------------------------------------------------------------




--------------------------------------- Iteration      1(   3)  ---------------------------------------


     EDDAV:  cpu time    8.7335: real time    8.7339
 BZINTS: Fermi energy:    0.156108;  397.000000 electrons
         Band energy:-0.141973E+04;  BLOECHL correction:   -0.090281
       DOS:  cpu time    0.0102: real time    0.0102
    --------------------------------------------
      LOOP:  cpu time    8.7437: real time    8.7441

 eigenvalue-minimisations  :  5880
 total energy-change (2. order) :-0.1367418E+03  (-0.1318888E+03)
 number of electron     397.0000044 magnetization 
 augmentation part      397.0000044 magnetization 

 Free energy of the ion-electron system (eV)
  ---------------------------------------------------
  alpha Z        PSCENC =       937.40945982
  Ewald energy   TEWEN  =    127706.99707431
  -Hartree energ DENC   =   -161597.90031638
  -exchange      EXHF   =         0.00000000
  -V(xc)+E(xc)   XCENC  =       497.99127008
  PAW double counting   =     36090.75641551   -35312.96107987
  entropy T*S    EENTRO =         0.00000000
  eigenvalues    EBANDS =     -1419.72688287
  atomic energy  EATOM  =     32977.63164945
  Solvation  Ediel_sol  =         0.00000000
  ---------------------------------------------------
  free energy    TOTEN  =      -119.80240995 eV

  energy without entropy =     -119.80240995  energy(sigma->0) =     -119.80240995


--------------------------------------------------------------------------------------------------------




--------------------------------------- Iteration      1(   4)  ---------------------------------------


     EDDAV:  cpu time    8.6806: real time    8.6811
 BZINTS: Fermi energy:    0.140786;  397.000000 electrons
         Band energy:-0.142257E+04;  BLOECHL correction:   -0.089581
       DOS:  cpu time    0.0102: real time    0.0102
    --------------------------------------------
      LOOP:  cpu time    8.6908: real time    8.6913

 eigenvalue-minimisations  :  5852
 total energy-change (2. order) :-0.2843141E+01  (-0.2835693E+01)
 number of electron     397.0000044 magnetization 
 augmentation part      397.0000044 magnetization 

 Free energy of the ion-electron system (eV)
  ---------------------------------------------------
  alpha Z        PSCENC =       937.40945982
  Ewald energy   TEWEN  =    127706.99707431
  -Hartree energ DENC   =   -161597.90031638
  -exchange      EXHF   =         0.00000000
  -V(xc)+E(xc)   XCENC  =       497.99127008
  PAW double counting   =     36090.75641551   -35312.96107987
  entropy T*S    EENTRO =         0.00000000
  eigenvalues    EBANDS =     -1422.57002347
  atomic energy  EATOM  =     32977.63164945
  Solvation  Ediel_sol  =         0.00000000
  ---------------------------------------------------
  free energy    TOTEN  =      -122.64555055 eV

  energy without entropy =     -122.64555055  energy(sigma->0) =     -122.64555055


--------------------------------------------------------------------------------------------------------




--------------------------------------- Iteration      1(   5)  ---------------------------------------


     EDDAV:  cpu time    9.0941: real time    9.0945
 BZINTS: Fermi energy:    0.140409;  397.000000 electrons
         Band energy:-0.142265E+04;  BLOECHL correction:   -0.089572
       DOS:  cpu time    0.0099: real time    0.0099
    --------------------------------------------
      LOOP:  cpu time    9.1041: real time    9.1044

 eigenvalue-minimisations  :  6188
 total energy-change (2. order) :-0.7549115E-01  (-0.7547646E-01)
 number of electron     397.0000044 magnetization 
 augmentation part      397.0000044 magnetization 

 Free energy of the ion-electron system (eV)
  ---------------------------------------------------
  alpha Z        PSCENC =       937.40945982
  Ewald energy   TEWEN  =    127706.99707431
  -Hartree energ DENC   =   -161597.90031638
  -exchange      EXHF   =         0.00000000
  -V(xc)+E(xc)   XCENC  =       497.99127008
  PAW double counting   =     36090.75641551   -35312.96107987
  entropy T*S    EENTRO =         0.00000000
  eigenvalues    EBANDS =     -1422.64551462
  atomic energy  EATOM  =     32977.63164945
  Solvation  Ediel_sol  =         0.00000000
  ---------------------------------------------------
  free energy    TOTEN  =      -122.72104170 eV

  energy without entropy =     -122.72104170  energy(sigma->0) =     -122.72104170


--------------------------------------------------------------------------------------------------------




--------------------------------------- Iteration      1(   6)  ---------------------------------------


    EDDIAG:  cpu time    1.5315: real time    1.5318
  RMM-DIIS:  cpu time    4.3420: real time    4.3422
    ORTHCH:  cpu time    0.2792: real time    0.2792
 BZINTS: Fermi energy:    0.140405;  397.000000 electrons
         Band energy:-0.142265E+04;  BLOECHL correction:   -0.089572
       DOS:  cpu time    0.0099: real time    0.0099
    --------------------------------------------
      LOOP:  cpu time    6.1626: real time    6.1631

 eigenvalue-minimisations  :  5050
 total energy-change (2. order) :-0.2110701E-02  (-0.2110508E-02)
 number of electron     397.0000044 magnetization 
 augmentation part      397.0000044 magnetization 

 Free energy of the ion-electron system (eV)
  ---------------------------------------------------
  alpha Z        PSCENC =       937.40945982
  Ewald energy   TEWEN  =    127706.99707431
  -Hartree energ DENC   =   -161597.90031638
  -exchange      EXHF   =         0.00000000
  -V(xc)+E(xc)   XCENC  =       497.99127008
  PAW double counting   =     36090.75641551   -35312.96107987
  entropy T*S    EENTRO =         0.00000000
  eigenvalues    EBANDS =     -1422.64762532
  atomic energy  EATOM  =     32977.63164945
  Solvation  Ediel_sol  =         0.00000000
  ---------------------------------------------------
  free energy    TOTEN  =      -122.72315240 eV

  energy without entropy =     -122.72315240  energy(sigma->0) =     -122.72315240


--------------------------------------------------------------------------------------------------------




--------------------------------------- Iteration      1(   7)  ---------------------------------------


    EDDIAG:  cpu time    1.5339: real time    1.5340
  RMM-DIIS:  cpu time    5.9665: real time    5.9667
    ORTHCH:  cpu time    0.2794: real time    0.2794
 BZINTS: Fermi energy:    0.140403;  397.000000 electrons
         Band energy:-0.142265E+04;  BLOECHL correction:   -0.089572
       DOS:  cpu time    0.0097: real time    0.0097
    --------------------------------------------
      LOOP:  cpu time    7.7894: real time    7.7898

 eigenvalue-minimisations  :  6914
 total energy-change (2. order) :-0.7151772E-03  (-0.7120424E-03)
 number of electron     397.0000044 magnetization 
 augmentation part      397.0000044 magnetization 

 Free energy of the ion-electron system (eV)
  ---------------------------------------------------
  alpha Z        PSCENC =       937.40945982
  Ewald energy   TEWEN  =    127706.99707431
  -Hartree energ DENC   =   -161597.90031638
  -exchange      EXHF   =         0.00000000
  -V(xc)+E(xc)   XCENC  =       497.99127008
  PAW double counting   =     36090.75641551   -35312.96107987
  entropy T*S    EENTRO =         0.00000000
  eigenvalues    EBANDS =     -1422.64834050
  atomic energy  EATOM  =     32977.63164945
  Solvation  Ediel_sol  =         0.00000000
  ---------------------------------------------------
  free energy    TOTEN  =      -122.72386758 eV

  energy without entropy =     -122.72386758  energy(sigma->0) =     -122.72386758


--------------------------------------------------------------------------------------------------------




--------------------------------------- Iteration      1(   8)  ---------------------------------------


    EDDIAG:  cpu time    1.5354: real time    1.5356
  RMM-DIIS:  cpu time    5.0417: real time    5.0419
    ORTHCH:  cpu time    0.2795: real time    0.2795
 BZINTS: Fermi energy:    0.140403;  397.000000 electrons
         Band energy:-0.142265E+04;  BLOECHL correction:   -0.089572
       DOS:  cpu time    0.0101: real time    0.0101
    --------------------------------------------
      LOOP:  cpu time    6.8667: real time    6.8671

 eigenvalue-minimisations  :  5768
 total energy-change (2. order) :-0.4998661E-04  (-0.4877802E-04)
 number of electron     397.0000044 magnetization 
 augmentation part      397.0000044 magnetization 

 Free energy of the ion-electron system (eV)
  ---------------------------------------------------
  alpha Z        PSCENC =       937.40945982
  Ewald energy   TEWEN  =    127706.99707431
  -Hartree energ DENC   =   -161597.90031638
  -exchange      EXHF   =         0.00000000
  -V(xc)+E(xc)   XCENC  =       497.99127008
  PAW double counting   =     36090.75641551   -35312.96107987
  entropy T*S    EENTRO =         0.00000000
  eigenvalues    EBANDS =     -1422.64839049
  atomic energy  EATOM  =     32977.63164945
  Solvation  Ediel_sol  =         0.00000000
  ---------------------------------------------------
  free energy    TOTEN  =      -122.72391757 eV

  energy without entropy =     -122.72391757  energy(sigma->0) =     -122.72391757


--------------------------------------------------------------------------------------------------------




--------------------------------------- Iteration      1(   9)  ---------------------------------------


    EDDIAG:  cpu time    1.5338: real time    1.5339
  RMM-DIIS:  cpu time    3.6254: real time    3.6255
    ORTHCH:  cpu time    0.2788: real time    0.2788
 BZINTS: Fermi energy:    0.140403;  397.000000 electrons
         Band energy:-0.142265E+04;  BLOECHL correction:   -0.089572
       DOS:  cpu time    0.0104: real time    0.0104
    --------------------------------------------
      LOOP:  cpu time    5.4483: real time    5.4487

 eigenvalue-minimisations  :  3621
 total energy-change (2. order) :-0.6042450E-05  (-0.5925668E-05)
 number of electron     397.0000044 magnetization 
 augmentation part      397.0000044 magnetization 

 Free energy of the ion-electron system (eV)
  ---------------------------------------------------
  alpha Z        PSCENC =       937.40945982
  Ewald energy   TEWEN  =    127706.99707431
  -Hartree energ DENC   =   -161597.90031638
  -exchange      EXHF   =         0.00000000
  -V(xc)+E(xc)   XCENC  =       497.99127008
  PAW double counting   =     36090.75641551   -35312.96107987
  entropy T*S    EENTRO =         0.00000000
  eigenvalues    EBANDS =     -1422.64839653
  atomic energy  EATOM  =     32977.63164945
  Solvation  Ediel_sol  =         0.00000000
  ---------------------------------------------------
  free energy    TOTEN  =      -122.72392361 eV

  energy without entropy =     -122.72392361  energy(sigma->0) =     -122.72392361


--------------------------------------------------------------------------------------------------------




 average (electrostatic) potential at core
  the test charge radii are     1.2098  1.1957  0.6991
  (the norm of the test charge is              1.0000)
       1 -72.8907       2 -72.8755       3 -72.8754       4 -72.8755       5 -72.8804
       6 -72.8752       7 -72.8754       8 -72.8752       9 -72.8719      10 -73.2299
      11 -73.2132      12 -73.2297      13 -73.2132      14 -73.2128      15 -73.2131
      16 -73.2297      17 -73.2131      18 -73.2133      19 -73.1439      20 -73.3870
      21 -73.3868      22 -73.1938      23 -73.3868      24 -73.1934      25 -73.1441
      26 -73.1439      27 -73.1938      28 -72.7841      29 -72.8533      30 -72.8533
      31 -72.8533      32 -72.8531      33 -72.8533      34 -72.8531      35 -72.7468
      36 -51.8207      37 -54.9546
 
 
 
 E-fermi :   0.1404     XC(G=0):  -5.6213     alpha+bet : -5.2736

 Fermi energy:         0.1404030147

 k-point     1 :       0.0000    0.0000    0.0000
  band No.  band energies     occupation 
      1      -9.7168      2.00000
      2      -8.6271      2.00000
      3      -7.4598      2.00000
      4      -6.5644      2.00000
      5      -6.5585      2.00000
      6      -6.5585      2.00000
      7      -6.5261      2.00000
      8      -6.4910      2.00000
      9      -6.4752      2.00000
     10      -6.4751      2.00000
     11      -6.4638      2.00000
     12      -6.0612      2.00000
     13      -6.0612      2.00000
     14      -6.0550      2.00000
     15      -6.0144      2.00000
     16      -5.9939      2.00000
     17      -5.9939      2.00000
     18      -5.6765      2.00000
     19      -5.6751      2.00000
     20      -5.6751      2.00000
     21      -5.6330      2.00000
     22      -5.6140      2.00000
     23      -5.6140      2.00000
     24      -5.4851      2.00000
     25      -5.4800      2.00000
     26      -5.4799      2.00000
     27      -5.4690      2.00000
     28      -5.4689      2.00000
     29      -5.4465      2.00000
     30      -5.3193      2.00000
     31      -5.3193      2.00000
     32      -5.3077      2.00000
     33      -5.3077      2.00000
     34      -5.2920      2.00000
     35      -5.2737      2.00000
     36      -5.2737      2.00000
     37      -5.2730      2.00000
     38      -5.2669      2.00000
     39      -5.2597      2.00000
     40      -5.2245      2.00000
     41      -5.2245      2.00000
     42      -4.8402      2.00000
     43      -4.8402      2.00000
     44      -4.7916      2.00000
     45      -4.7916      2.00000
     46      -4.7798      2.00000
     47      -4.7265      2.00000
     48      -4.7264      2.00000
     49      -4.7203      2.00000
     50      -4.7111      2.00000
     51      -4.7110      2.00000
     52      -4.6345      2.00000
     53      -4.6307      2.00000
     54      -4.6142      2.00000
     55      -4.5633      2.00000
     56      -4.2603      2.00000
     57      -4.2603      2.00000
     58      -4.2243      2.00000
     59      -4.2070      2.00000
     60      -4.2008      2.00000
     61      -4.1972      2.00000
     62      -4.1971      2.00000
     63      -4.1456      2.00000
     64      -4.1456      2.00000
     65      -4.1065      2.00000
     66      -4.1065      2.00000
     67      -4.0562      2.00000
     68      -4.0562      2.00000
     69      -4.0545      2.00000
     70      -3.9903      2.00000
     71      -3.9903      2.00000
     72      -3.9771      2.00000
     73      -3.9756      2.00000
     74      -3.9756      2.00000
     75      -3.9440      2.00000
     76      -3.9367      2.00000
     77      -3.9367      2.00000
     78      -3.9330      2.00000
     79      -3.9297      2.00000
     80      -3.9296      2.00000
     81      -3.9167      2.00000
     82      -3.9167      2.00000
     83      -3.8702      2.00000
     84      -3.8628      2.00000
     85      -3.8627      2.00000
     86      -3.8572      2.00000
     87      -3.7998      2.00000
     88      -3.7998      2.00000
     89      -3.7665      2.00000
     90      -3.7619      2.00000
     91      -3.7619      2.00000
     92      -3.7093      2.00000
     93      -3.7093      2.00000
     94      -3.5927      2.00000
     95      -3.5927      2.00000
     96      -3.5170      2.00000
     97      -3.5170      2.00000
     98      -3.5101      2.00000
     99      -3.5101      2.00000
    100      -3.3650      2.00000
    101      -3.3445      2.00000
    102      -3.3444      2.00000
    103      -3.3326      2.00000
    104      -3.3326      2.00000
    105      -3.3159      2.00000
    106      -3.2110      2.00000
    107      -3.2110      2.00000
    108      -3.1518      2.00000
    109      -3.1508      2.00000
    110      -3.1508      2.00000
    111      -3.1110      2.00000
    112      -3.1070      2.00000
    113      -3.1070      2.00000
    114      -3.0751      2.00000
    115      -3.0307      2.00000
    116      -3.0203      2.00000
    117      -2.9427      2.00000
    118      -2.9427      2.00000
    119      -2.8708      2.00000
    120      -2.8338      2.00000
    121      -2.8338      2.00000
    122      -2.8207      2.00000
    123      -2.7735      2.00000
    124      -2.7734      2.00000
    125      -2.7487      2.00000
    126      -2.7487      2.00000
    127      -2.7238      2.00000
    128      -2.7237      2.00000
    129      -2.6612      2.00000
    130      -2.6612      2.00000
    131      -2.6021      2.00000
    132      -2.5796      2.00000
    133      -2.5796      2.00000
    134      -2.5610      2.00000
    135      -2.5610      2.00000
    136      -2.5541      2.00000
    137      -2.5487      2.00000
    138      -2.5399      2.00000
    139      -2.5398      2.00000
    140      -2.4544      2.00000
    141      -2.4544      2.00000
    142      -2.4397      2.00000
    143      -2.3413      2.00000
    144      -2.3413      2.00000
    145      -2.3238      2.00000
    146      -2.3167      2.00000
    147      -2.3167      2.00000
    148      -2.3044      2.00000
    149      -2.2899      2.00000
    150      -2.2898      2.00000
    151      -2.2573      2.00000
    152      -2.2490      2.00000
    153      -2.2490      2.00000
    154      -2.2361      2.00000
    155      -2.1582      2.00000
    156      -2.1495      2.00000
    157      -2.1494      2.00000
    158      -2.1234      2.00000
    159      -2.1167      2.00000
    160      -2.1114      2.00000
    161      -2.1114      2.00000
    162      -2.0998      2.00000
    163      -2.0835      2.00000
    164      -2.0835      2.00000
    165      -2.0604      2.00000
    166      -2.0603      2.00000
    167      -2.0413      2.00000
    168      -2.0413      2.00000
    169      -2.0107      2.00000
    170      -2.0106      2.00000
    171      -2.0089      2.00000
    172      -2.0020      2.00000
    173      -1.9926      2.00000
    174      -1.9805      2.00000
    175      -1.9796      2.00000
    176      -1.9795      2.00000
    177      -1.9322      2.00000
    178      -1.9283      2.00000
    179      -1.9258      2.00000
    180      -1.9258      2.00000
    181      -1.9024      2.00000
    182      -1.9024      2.00000
    183      -1.8734      2.00000
    184      -1.8655      2.00000
    185      -1.8655      2.00000
    186      -1.7843      2.00000
    187      -1.7368      2.00000
    188      -1.7368      2.00000
    189      -1.7065      2.00000
    190      -1.6899      2.00000
    191      -1.6898      2.00000
    192      -1.6587      2.00000
    193      -1.4957      2.00000
    194      -1.4956      2.00000
    195      -0.7671      2.00000
    196      -0.4787      2.00000
    197      -0.4786      2.00000
    198      -0.4084      2.00000
    199      -0.3546      2.00000
    200      -0.2873      2.00000
    201      -0.2873      2.00000
    202      -0.1706      2.00000
    203      -0.1706      2.76483
    204       0.6911      0.00000
    205       1.5609      0.00000
    206       1.7060      0.00000
    207       1.7454      0.00000
    208       1.7455      0.00000
    209       1.9124      0.00000
    210       1.9124      0.00000
    211       2.4099      0.00000
    212       2.4099      0.00000
    213       2.9548      0.00000
    214       2.9548      0.00000
    215       2.9792      0.00000
    216       3.0787      0.00000
    217       3.3867      0.00000
    218       3.3867      0.00000
    219       3.5585      0.00000
    220       3.6374      0.00000
    221       4.4693      0.00000
    222       4.8044      0.00000
    223       4.8196      0.00000
    224       4.8196      0.00000
    225       4.8483      0.00000
    226       4.8484      0.00000
    227       4.9539      0.00000
    228       5.0460      0.00000
    229       5.0460      0.00000
    230       5.2123      0.00000
    231       5.2124      0.00000
    232       5.3102      0.00000
    233       5.3756      0.00000
    234       5.5939      0.00000
    235       6.1984      0.00000
    236       6.2493      0.00000
    237       6.4848      0.00000
    238       6.4851      0.00000
    239       6.5351      0.00000
    240       6.5619      0.00000
    241       6.5627      0.00000
    242       6.6012      0.00000
    243       6.6620      0.00000
    244       6.6639      0.00000
    245       6.7337      0.00000
    246       6.7364      0.00000
    247       6.8289      0.00000
    248       6.9236      0.00000
    249       6.9285      0.00000
    250       6.9503      0.00000
    251       7.1798      0.00000
    252       7.2170      0.00000

 k-point     2 :       0.1250    0.0000    0.0000
  band No.  band energies     occupation 
      1      -9.7132      2.00000
      2      -8.5794      2.00000
      3      -7.4118      2.00000
      4      -6.7735      2.00000
      5      -6.6013      2.00000
      6      -6.5918      2.00000
      7      -6.4888      2.00000
      8      -6.4450      2.00000
      9      -6.4066      2.00000
     10      -6.3942      2.00000
     11      -6.3661      2.00000
     12      -6.0896      2.00000
     13      -6.0483      2.00000
     14      -6.0380      2.00000
     15      -6.0204      2.00000
     16      -5.9829      2.00000
     17      -5.9698      2.00000
     18      -5.7185      2.00000
     19      -5.6679      2.00000
     20      -5.6654      2.00000
     21      -5.6236      2.00000
     22      -5.5906      2.00000
     23      -5.5900      2.00000
     24      -5.5552      2.00000
     25      -5.5010      2.00000
     26      -5.4987      2.00000
     27      -5.4371      2.00000
     28      -5.4261      2.00000
     29      -5.3868      2.00000
     30      -5.3796      2.00000
     31      -5.3729      2.00000
     32      -5.3463      2.00000
     33      -5.3367      2.00000
     34      -5.3163      2.00000
     35      -5.2788      2.00000
     36      -5.2621      2.00000
     37      -5.2027      2.00000
     38      -5.1992      2.00000
     39      -5.1790      2.00000
     40      -5.1615      2.00000
     41      -5.1542      2.00000
     42      -4.8956      2.00000
     43      -4.8711      2.00000
     44      -4.8480      2.00000
     45      -4.8465      2.00000
     46      -4.8109      2.00000
     47      -4.7884      2.00000
     48      -4.7576      2.00000
     49      -4.6922      2.00000
     50      -4.6889      2.00000
     51      -4.6484      2.00000
     52      -4.6061      2.00000
     53      -4.6020      2.00000
     54      -4.5814      2.00000
     55      -4.5574      2.00000
     56      -4.2961      2.00000
     57      -4.2801      2.00000
     58      -4.2699      2.00000
     59      -4.2457      2.00000
     60      -4.2248      2.00000
     61      -4.2058      2.00000
     62      -4.2027      2.00000
     63      -4.1852      2.00000
     64      -4.1733      2.00000
     65      -4.1663      2.00000
     66      -4.1413      2.00000
     67      -4.1171      2.00000
     68      -4.1135      2.00000
     69      -4.0913      2.00000
     70      -4.0835      2.00000
     71      -4.0558      2.00000
     72      -4.0438      2.00000
     73      -4.0089      2.00000
     74      -4.0062      2.00000
     75      -3.9911      2.00000
     76      -3.9846      2.00000
     77      -3.9653      2.00000
     78      -3.9220      2.00000
     79      -3.9132      2.00000
     80      -3.9048      2.00000
     81      -3.8879      2.00000
     82      -3.8773      2.00000
     83      -3.8584      2.00000
     84      -3.8216      2.00000
     85      -3.8196      2.00000
     86      -3.7852      2.00000
     87      -3.7797      2.00000
     88      -3.7619      2.00000
     89      -3.7561      2.00000
     90      -3.7276      2.00000
     91      -3.7204      2.00000
     92      -3.6798      2.00000
     93      -3.6514      2.00000
     94      -3.6129      2.00000
     95      -3.6119      2.00000
     96      -3.5732      2.00000
     97      -3.5548      2.00000
     98      -3.4731      2.00000
     99      -3.4477      2.00000
    100      -3.4460      2.00000
    101      -3.3813      2.00000
    102      -3.3761      2.00000
    103      -3.3543      2.00000
    104      -3.3259      2.00000
    105      -3.2992      2.00000
    106      -3.2951      2.00000
    107      -3.2270      2.00000
    108      -3.1743      2.00000
    109      -3.1644      2.00000
    110      -3.1609      2.00000
    111      -3.1511      2.00000
    112      -3.1397      2.00000
    113      -3.1139      2.00000
    114      -3.1135      2.00000
    115      -3.1012      2.00000
    116      -3.0603      2.00000
    117      -3.0535      2.00000
    118      -3.0512      2.00000
    119      -3.0427      2.00000
    120      -2.9817      2.00000
    121      -2.9203      2.00000
    122      -2.9112      2.00000
    123      -2.8195      2.00000
    124      -2.8063      2.00000
    125      -2.8023      2.00000
    126      -2.7483      2.00000
    127      -2.7480      2.00000
    128      -2.7276      2.00000
    129      -2.7214      2.00000
    130      -2.7090      2.00000
    131      -2.7004      2.00000
    132      -2.6721      2.00000
    133      -2.6706      2.00000
    134      -2.6589      2.00000
    135      -2.5761      2.00000
    136      -2.5652      2.00000
    137      -2.5411      2.00000
    138      -2.5119      2.00000
    139      -2.4988      2.00000
    140      -2.4847      2.00000
    141      -2.4805      2.00000
    142      -2.4688      2.00000
    143      -2.4618      2.00000
    144      -2.4029      2.00000
    145      -2.3864      2.00000
    146      -2.3141      2.00000
    147      -2.2959      2.00000
    148      -2.2894      2.00000
    149      -2.2741      2.00000
    150      -2.2636      2.00000
    151      -2.2545      2.00000
    152      -2.2486      2.00000
    153      -2.2175      2.00000
    154      -2.2035      2.00000
[...]
  0.000   0.000   0.000   0.000   0.000   0.000   0.000   0.000   0.000   0.000   0.000   0.000   0.000   0.000   0.000   0.000
  0.000   0.000   0.000   0.000   0.000   0.000   0.000   0.000   0.000   0.000   0.000   0.000   0.000   0.000   0.000   0.000
  0.000   0.000   0.000   0.000   0.000   0.000   0.000   0.000   0.000   0.000   0.000   0.000   0.000   0.000   0.000   0.000
  0.000   0.000   0.000   0.000   0.000   0.000   0.000   0.000   0.000   0.000   0.000   0.000   0.000   0.000   0.000   0.000
  0.000   0.000   0.000   0.000   0.000   0.000   0.000   0.000   0.000   0.000   0.000   0.000   0.000   0.000   0.000   0.000
  0.000   0.000   0.000   0.000   0.000   0.000   0.000   0.000   0.000   0.000   1.000   0.000   0.000   0.000   0.000   0.000
  0.000   0.000   0.000   0.000   0.000   0.000   0.000   0.000   0.000   0.000   0.000   0.000   0.000   0.000   0.000   0.000
  0.000   0.000   0.000   0.000   0.000   0.000   0.000   0.000   0.000   0.000   0.000   0.000   0.000   0.000   0.000   0.000
  0.000   0.000   0.000   0.000   0.000   0.000   0.000   0.000   0.000   0.000   0.000   0.000   0.000   0.000   0.000   0.000
  0.000   0.000   0.000   0.000   0.000   0.000   0.000   0.000   0.000   0.000   0.000   0.000   0.000   0.000   0.000   0.000
  0.000   0.000   0.000   0.000   0.000   0.000   0.000   0.000   0.000   0.000   0.000   0.000   0.000   0.000   0.000   0.000
  0.000   0.000   0.000   0.000   0.000   0.000   0.000   0.000   0.000   0.000   0.000   0.000   0.000   0.000   0.000   0.000
  0.000   0.000   0.000   0.000   0.000   0.000   0.000   0.000   0.000   0.000   0.000   0.000   0.000   0.000   0.000   0.000


------------------------ aborting loop because EDIFF is reached ----------------------------------------





 total charge

# of ion       s       p       d       tot
------------------------------------------
    1        0.545   0.240   8.764   9.550
    2        0.544   0.241   8.764   9.548
    3        0.544   0.241   8.764   9.548
    4        0.544   0.241   8.764   9.548
    5        0.543   0.240   8.764   9.547
    6        0.544   0.241   8.764   9.548
    7        0.544   0.241   8.764   9.548
    8        0.544   0.241   8.764   9.548
    9        0.542   0.241   8.766   9.549
   10        0.519   0.307   8.770   9.596
   11        0.519   0.310   8.776   9.605
   12        0.519   0.307   8.770   9.596
   13        0.519   0.310   8.776   9.605
   14        0.519   0.310   8.776   9.605
   15        0.516   0.309   8.774   9.598
   16        0.519   0.307   8.770   9.596
   17        0.516   0.309   8.774   9.598
   18        0.516   0.309   8.774   9.598
   19        0.517   0.296   8.777   9.591
   20        0.545   0.334   8.756   9.635
   21        0.545   0.334   8.756   9.635
   22        0.510   0.309   8.775   9.594
   23        0.545   0.334   8.756   9.635
   24        0.510   0.309   8.775   9.594
   25        0.517   0.296   8.777   9.591
   26        0.517   0.296   8.777   9.591
   27        0.510   0.309   8.775   9.594
   28        0.542   0.225   8.765   9.533
   29        0.542   0.247   8.761   9.551
   30        0.542   0.247   8.761   9.551
   31        0.542   0.247   8.761   9.551
   32        0.542   0.247   8.761   9.551
   33        0.542   0.247   8.761   9.551
   34        0.542   0.247   8.761   9.551
   35        0.537   0.225   8.769   9.531
   36        0.622   0.567   6.211   7.401
   37        1.016   1.225   0.000   2.240
--------------------------------------------------
tot         20.239  11.488 313.075 344.802
 
    CHARGE:  cpu time    0.3917: real time    0.3918
    FORLOC:  cpu time    0.0111: real time    0.0111
    FORNL :  cpu time    1.6037: real time    1.6039
    STRESS:  cpu time    4.7893: real time    4.7896
    FORCOR:  cpu time    0.0589: real time    0.0590
    FORHAR:  cpu time    0.0181: real time    0.0183
    OFIELD:  cpu time    0.0003: real time    0.0003

  FORCE on cell =-STRESS in cart. coord.  units (eV):
  Direction    XX          YY          ZZ          XY          YZ          ZX
  --------------------------------------------------------------------------------------
  Alpha Z   937.40946   937.40946   937.40946
  Ewald  150352.75425150352.75467************    -0.00032    -0.00009    -0.00014
  Hartree158672.01324158672.01325************     0.00000    -0.00002    -0.00004
  E(xc)   -1778.13168 -1778.13166 -1785.87748    -0.00001    -0.00000    -0.00000
  Local  ************************321685.55554     0.00177     0.00004     0.00005
  n-local  -105.00940   -54.12868   -53.94499    24.92679    -1.49860     1.58819
  augment  2384.28580  2384.28730  2396.83985    -0.00130     0.00000     0.00005
  Kinetic  5517.76203  5530.16828  5558.90265     6.61860    -0.07069     0.54619
  Fock        0.00000     0.00000     0.00000     0.00000     0.00000     0.00000
  -------------------------------------------------------------------------------------
  Total     -18.97338   -18.97337     2.12064    -0.00000     0.00000    -0.00000
  in kB     -18.58577   -18.58577     2.07732    -0.00000     0.00000    -0.00000
  external pressure =      -11.70 kB  Pullay stress =        0.00 kB


 VOLUME and BASIS-vectors are now :
 -----------------------------------------------------------------------------
  energy-cutoff  :      500.00
  volume of cell :     1635.59
      direct lattice vectors                 reciprocal lattice vectors
     8.813512802  0.000000000  0.000000000     0.113462137 -0.065507406  0.000000000
     4.406756909  7.632725690  0.000000000     0.000000000  0.131014796  0.000000000
     0.000000000  0.000000000 24.313408842     0.000000000  0.000000000  0.041129568

  length of vectors
     8.813512802  8.813512802 24.313408842     0.131014796  0.131014796  0.041129568


 FORCES acting on ions
    electron-ion (+dipol)            ewald-force                    non-local-force                 convergence-correction
 -----------------------------------------------------------------------------------------------
   -.198E-04 -.163E-04 0.265E+04   0.520E-04 0.434E-04 -.265E+04   0.525E-17 -.479E-17 -.533E+00   -.203E-03 -.130E-03 -.122E+00
   0.755E+00 0.260E+00 0.265E+04   -.748E+00 -.342E+00 -.265E+04   -.132E-01 0.132E-01 -.332E+00   0.759E-02 0.630E-01 -.170E+00
   -.755E+00 0.260E+00 0.265E+04   0.748E+00 -.342E+00 -.265E+04   0.132E-01 0.132E-01 -.332E+00   -.730E-02 0.650E-01 -.169E+00
   0.603E+00 0.524E+00 0.265E+04   -.670E+00 -.476E+00 -.265E+04   0.484E-02 -.180E-01 -.332E+00   0.584E-01 -.250E-01 -.170E+00
   0.772E-05 -.238E-04 0.265E+04   0.951E-04 0.175E-05 -.265E+04   -.147E-17 -.557E-18 -.382E+00   0.430E-02 0.262E-02 -.151E+00
   -.603E+00 0.524E+00 0.265E+04   0.670E+00 -.476E+00 -.265E+04   -.484E-02 -.180E-01 -.332E+00   -.600E-01 -.240E-01 -.169E+00
   -.152E+00 -.784E+00 0.265E+04   0.774E-01 0.819E+00 -.265E+04   0.180E-01 0.484E-02 -.332E+00   0.527E-01 -.388E-01 -.169E+00
   0.152E+00 -.784E+00 0.265E+04   -.776E-01 0.819E+00 -.265E+04   -.180E-01 0.484E-02 -.332E+00   -.508E-01 -.399E-01 -.169E+00
   0.197E-04 -.416E-04 0.265E+04   0.166E-03 -.201E-04 -.265E+04   -.645E-18 -.214E-17 -.405E+00   -.464E-02 -.240E-02 -.185E+00
   0.737E+01 0.425E+01 0.886E+03   -.724E+01 -.418E+01 -.885E+03   -.195E+00 -.113E+00 -.486E+00   0.206E-01 0.118E-01 -.600E-01
   0.145E-04 0.440E+01 0.894E+03   0.148E-03 -.450E+01 -.893E+03   0.109E-08 0.163E-01 -.554E+00   0.380E-02 0.386E-01 -.126E+00
   -.737E+01 0.425E+01 0.886E+03   0.724E+01 -.418E+01 -.885E+03   0.195E+00 -.113E+00 -.486E+00   -.219E-01 0.133E-01 -.603E-01
   0.381E+01 -.220E+01 0.894E+03   -.390E+01 0.225E+01 -.893E+03   0.141E-01 -.816E-02 -.554E+00   0.356E-01 -.157E-01 -.126E+00
   -.381E+01 -.220E+01 0.894E+03   0.390E+01 0.225E+01 -.893E+03   -.141E-01 -.816E-02 -.554E+00   -.278E-01 -.162E-01 -.127E+00
   0.313E-04 0.495E+01 0.890E+03   0.236E-03 -.495E+01 -.889E+03   -.120E-12 -.180E-05 -.409E+00   -.241E-02 -.518E-01 -.909E-01
   -.214E-04 -.851E+01 0.886E+03   0.163E-03 0.836E+01 -.885E+03   0.150E-07 0.225E+00 -.486E+00   0.297E-03 -.256E-01 -.603E-01
   0.428E+01 -.247E+01 0.890E+03   -.429E+01 0.248E+01 -.889E+03   -.156E-05 0.901E-06 -.409E+00   -.458E-01 0.242E-01 -.908E-01
   -.428E+01 -.247E+01 0.890E+03   0.429E+01 0.248E+01 -.889E+03   0.156E-05 0.901E-06 -.409E+00   0.458E-01 0.262E-01 -.911E-01
   -.421E-04 0.429E+01 -.910E+03   0.539E-04 -.424E+01 0.909E+03   -.347E-08 -.522E-01 0.567E+00   -.520E-03 -.318E-01 0.305E-01
   0.968E+01 0.559E+01 -.861E+03   -.922E+01 -.532E+01 0.861E+03   -.658E+00 -.380E+00 -.473E+00   0.136E-01 0.772E-02 0.124E+00
   -.968E+01 0.559E+01 -.861E+03   0.922E+01 -.532E+01 0.861E+03   0.658E+00 -.380E+00 -.473E+00   -.127E-01 0.961E-02 0.124E+00
   -.409E+01 0.236E+01 -.890E+03   0.358E+01 -.206E+01 0.889E+03   0.455E+00 -.263E+00 0.755E+00   0.868E-01 -.545E-01 0.581E-01
   -.117E-04 -.112E+02 -.861E+03   0.141E-03 0.106E+02 0.861E+03   0.506E-07 0.760E+00 -.473E+00   0.174E-02 -.158E-01 0.124E+00
   0.409E+01 0.236E+01 -.890E+03   -.358E+01 -.206E+01 0.889E+03   -.455E+00 -.263E+00 0.755E+00   -.937E-01 -.541E-01 0.581E-01
   -.371E+01 -.214E+01 -.910E+03   0.368E+01 0.212E+01 0.909E+03   0.452E-01 0.261E-01 0.567E+00   0.294E-01 0.169E-01 0.302E-01
   0.371E+01 -.214E+01 -.910E+03   -.368E+01 0.212E+01 0.909E+03   -.452E-01 0.261E-01 0.567E+00   -.274E-01 0.155E-01 0.305E-01
   0.993E-05 -.472E+01 -.890E+03   0.199E-03 0.413E+01 0.889E+03   0.350E-07 0.525E+00 0.755E+00   -.439E-02 0.102E+00 0.581E-01
   -.124E-04 -.122E-04 -.263E+04   0.287E-04 0.330E-04 0.263E+04   0.437E-18 0.139E-17 0.546E+00   0.133E-03 0.598E-04 0.208E+00
   0.196E+02 0.345E+02 -.262E+04   -.193E+02 -.343E+02 0.262E+04   -.521E+00 -.681E+00 0.661E+00   0.357E-01 0.735E-01 0.103E+00
   -.196E+02 0.345E+02 -.262E+04   0.193E+02 -.343E+02 0.262E+04   0.521E+00 -.681E+00 0.661E+00   -.356E-01 0.754E-01 0.104E+00
   0.397E+02 -.291E+00 -.262E+04   -.393E+02 0.431E+00 0.262E+04   -.850E+00 -.110E+00 0.661E+00   0.816E-01 -.589E-02 0.103E+00
   -.397E+02 -.291E+00 -.262E+04   0.393E+02 0.431E+00 0.262E+04   0.850E+00 -.110E+00 0.661E+00   -.828E-01 -.476E-02 0.103E+00
   0.201E+02 -.342E+02 -.262E+04   -.200E+02 0.338E+02 0.262E+04   -.330E+00 0.792E+00 0.661E+00   0.476E-01 -.686E-01 0.104E+00
   -.201E+02 -.342E+02 -.262E+04   0.200E+02 0.338E+02 0.262E+04   0.330E+00 0.792E+00 0.661E+00   -.455E-01 -.693E-01 0.103E+00
   0.321E-04 -.296E-04 -.263E+04   0.143E-03 -.486E-04 0.263E+04   0.570E-17 -.140E-17 0.608E+00   -.475E-02 -.245E-02 0.187E+00
   -.678E-05 -.129E-04 -.169E+04   0.835E-04 0.756E-05 0.169E+04   0.105E-16 -.497E-18 0.164E+01   0.172E-02 0.104E-02 0.499E-01
   0.467E-04 -.299E-04 -.119E+04   0.165E-04 0.104E-05 0.120E+04   -.259E-18 0.171E-19 -.115E+02   0.747E-03 0.454E-03 -.166E+00
 -----------------------------------------------------------------------------------------------
   -.722E-03 -.799E-03 0.107E+02   0.425E-13 0.137E-12 -.819E-11   0.238E-15 -.113E-15 -.985E+01   -.165E-03 0.499E-03 -.771E+00
 
 
 POSITION                                       TOTAL-FORCE (eV/Angst)
 -----------------------------------------------------------------------------------
      0.00000      0.00000      5.28038         0.000000      0.000000     -0.057339
      2.93784      0.00000      5.28038         0.002447     -0.004578     -0.032203
      5.87568      0.00000      5.28038        -0.002447     -0.004578     -0.032203
      1.46892      2.54424      5.28038        -0.002741      0.004408     -0.032203
      4.40676      2.54424      5.28038         0.000000      0.000000     -0.071145
      7.34459      2.54424      5.28038         0.002741      0.004408     -0.032203
      2.93784      5.08848      5.28038        -0.005188      0.000170     -0.032203
      5.87568      5.08848      5.28038         0.005188      0.000170     -0.032203
      8.81351      5.08848      5.28038         0.000000      0.000000     -0.034426
      1.46892      0.84808      7.67911        -0.043106     -0.024887      0.100442
      4.40676      0.84808      7.67911        -0.000000     -0.047284      0.004035
      7.34459      0.84808      7.67911         0.043106     -0.024887      0.100442
      2.93784      3.39232      7.67911        -0.040949      0.023642      0.004035
      5.87568      3.39232      7.67911         0.040949      0.023642      0.004035
      8.81351      3.39232      7.67911        -0.000000     -0.055584      0.086123
      4.40676      5.93656      7.67911         0.000000      0.049774      0.100442
      7.34459      5.93656      7.67911        -0.048137      0.027792      0.086123
     10.28243      5.93656      7.67911         0.048137      0.027792      0.086123
      8.81351      1.70311     10.09495        -0.000000     -0.040005     -0.046486
      2.93286      1.69329     10.03570        -0.183106     -0.105716     -0.231267
      5.88065      1.69329     10.03570         0.183106     -0.105716     -0.231267
     10.26497      4.25049     10.06286         0.030556     -0.017641      0.040988
      4.40676      4.24615     10.03570         0.000000      0.211432     -0.231267
      7.36206      4.25049     10.06286        -0.030556     -0.017641      0.040988
     11.74534      6.78117     10.09495         0.034645      0.020002     -0.046486
      5.88169      6.78117     10.09495        -0.034645      0.020002     -0.046486
      8.81351      6.76448     10.06286         0.000000      0.035283      0.040988
      0.00000      0.00000     12.49897         0.000000      0.000000     -0.072715
      2.97514      0.06495     12.50272        -0.174569     -0.349946     -0.168911
      5.83837      0.06495     12.50272         0.174569     -0.349946     -0.168911
      1.54382      2.54408     12.50272        -0.390347      0.023792     -0.168911
      7.26969      2.54408     12.50272         0.390347      0.023792     -0.168911
      2.97543      5.02370     12.50272        -0.215778      0.326154     -0.168911
      5.83808      5.02370     12.50272         0.215778      0.326154     -0.168911
      8.81351      5.08848     12.49601         0.000000      0.000000     -0.021574
      4.40676      2.54424     12.21487         0.000000      0.000000      1.617158
      4.40676      2.54424     13.95922         0.000000      0.000000     -0.014780
 -----------------------------------------------------------------------------------
    total drift:                               -0.000887     -0.000300      0.121020


--------------------------------------------------------------------------------------------------------



  FREE ENERGIE OF THE ION-ELECTRON SYSTEM (eV)
  ---------------------------------------------------
  free  energy   TOTEN  =      -122.72392361 eV

  energy  without entropy=     -122.72392361  energy(sigma->0) =     -122.72392361
 


--------------------------------------------------------------------------------------------------------


    POTLOK:  cpu time    0.0461: real time    0.0461


--------------------------------------------------------------------------------------------------------


 stress matrix after NEB project (eV)
    -18.97338     -0.00000     -0.00000
     -0.00000    -18.97337      0.00000
     -0.00000      0.00000      2.12064
  FORCES: max atom, RMS     0.014780    0.002430
  FORCE total and by dimension    0.014780    0.014780
  Stress total and by dimension   26.916075   18.973376
     LOOP+:  cpu time   76.0577: real time   76.0716
 -----------------------------------------------------------------------------
|                                                                             |
|           W    W    AA    RRRRR   N    N  II  N    N   GGGG   !!!           |
|           W    W   A  A   R    R  NN   N  II  NN   N  G    G  !!!           |
|           W    W  A    A  R    R  N N  N  II  N N  N  G       !!!           |
|           W WW W  AAAAAA  RRRRR   N  N N  II  N  N N  G  GGG   !            |
|           WW  WW  A    A  R   R   N   NN  II  N   NN  G    G                |
|           W    W  A    A  R    R  N    N  II  N    N   GGGG   !!!           |
|                                                                             |
|     Tetrahedron method does not include variations of the Fermi             |
|     occupations, so forces and stress will be inaccurate. We suggest        |
|     using a different smearing scheme ISMEAR = 1 or 2 for metals in         |
|     relaxations.                                                            |
|                                                                             |
 -----------------------------------------------------------------------------

    4ORBIT:  cpu time    0.0000: real time    0.0000



 total charge

# of ion       s       p       d       tot
------------------------------------------
    1        0.545   0.240   8.764   9.550
    2        0.544   0.241   8.764   9.548
    3        0.544   0.241   8.764   9.548
    4        0.544   0.241   8.764   9.548
    5        0.543   0.240   8.764   9.547
    6        0.544   0.241   8.764   9.548
    7        0.544   0.241   8.764   9.548
    8        0.544   0.241   8.764   9.548
    9        0.542   0.241   8.766   9.549
   10        0.519   0.307   8.770   9.596
   11        0.519   0.310   8.776   9.605
   12        0.519   0.307   8.770   9.596
   13        0.519   0.310   8.776   9.605
   14        0.519   0.310   8.776   9.605
   15        0.516   0.309   8.774   9.598
   16        0.519   0.307   8.770   9.596
   17        0.516   0.309   8.774   9.598
   18        0.516   0.309   8.774   9.598
   19        0.517   0.296   8.777   9.591
   20        0.545   0.334   8.756   9.635
   21        0.545   0.334   8.756   9.635
   22        0.510   0.309   8.775   9.594
   23        0.545   0.334   8.756   9.635
   24        0.510   0.309   8.775   9.594
   25        0.517   0.296   8.777   9.591
   26        0.517   0.296   8.777   9.591
   27        0.510   0.309   8.775   9.594
   28        0.542   0.225   8.765   9.533
   29        0.542   0.247   8.761   9.551
   30        0.542   0.247   8.761   9.551
   31        0.542   0.247   8.761   9.551
   32        0.542   0.247   8.761   9.551
   33        0.542   0.247   8.761   9.551
   34        0.542   0.247   8.761   9.551
   35        0.537   0.225   8.769   9.531
   36        0.622   0.567   6.211   7.401
   37        1.016   1.225   0.000   2.240
--------------------------------------------------
tot         20.239  11.488 313.075 344.802
 
 BZINTS: Fermi energy:    0.140403;  397.000000 electrons
         Band energy:-0.142265E+04;  BLOECHL correction:   -0.089572

 total amount of memory used by VASP MPI-rank0   130560. kBytes
=======================================================================

   base      :      30000. kBytes
   nonlr-proj:      14437. kBytes
   fftplans  :       4808. kBytes
   grid      :      19857. kBytes
   one-center:        575. kBytes
   wavefun   :      60883. kBytes
 
  
  
 General timing and accounting informations for this job:
 ========================================================
  
                  Total CPU time used (sec):       83.931
                            User time (sec):       80.924
                          System time (sec):        3.006
                         Elapsed time (sec):       84.389
  
                   Maximum memory used (kb):      393788.
                   Average memory used (kb):          N/A
  
                          Minor page faults:        75270
                          Major page faults:            0
                 Voluntary context switches:         4760
