PROCAR new format
# of k-points:   10         # of bands:  252         # of ions:   37

 k-point     1 :    0.00000000 0.00000000 0.00000000     weight = 0.01562500

band     1 # energy   -9.71675054 # occ.  2.00000000
 
ion      s      p      d    tot
    1  0.000  0.000  0.000  0.000
    2  0.000  0.000  0.000  0.000
    3  0.000  0.000  0.000  0.000
    4  0.000  0.000  0.000  0.000
    5  0.000  0.000  0.000  0.000
    6  0.000  0.000  0.000  0.000
    7  0.000  0.000  0.000  0.000
    8  0.000  0.000  0.000  0.000
    9  0.000  0.000  0.000  0.000
   10  0.000  0.000  0.000  0.001
   11  0.000  0.000  0.000  0.000
   12  0.000  0.000  0.000  0.001
   13  0.000  0.000  0.000  0.000
   14  0.000  0.000  0.000  0.000
   15  0.000  0.000  0.000  0.000
   16  0.000  0.000  0.000  0.001
   17  0.000  0.000  0.000  0.000
   18  0.000  0.000  0.000  0.000
   19  0.001  0.000  0.000  0.001
   20  0.006  0.001  0.003  0.010
   21  0.006  0.001  0.003  0.010
   22  0.001  0.000  0.000  0.001
   23  0.006  0.001  0.003  0.010
   24  0.001  0.000  0.000  0.001
   25  0.001  0.000  0.000  0.001
   26  0.001  0.000  0.000  0.001
   27  0.001  0.000  0.000  0.001
   28  0.000  0.000  0.000  0.001
   29  0.003  0.000  0.001  0.004
   30  0.003  0.000  0.001  0.004
   31  0.003  0.000  0.001  0.004
   32  0.003  0.000  0.001  0.004
   33  0.003  0.000  0.001  0.004
   34  0.003  0.000  0.001  0.004
   35  0.000  0.000  0.000  0.000
   36  0.143  0.046  0.182  0.372
   37  0.367  0.031  0.000  0.399
tot    0.555  0.083  0.197  0.835
 
band     2 # energy   -8.62714166 # occ.  2.00000000
 
ion      s      p      d    tot
    1  0.007  0.001  0.000  0.008
    2  0.007  0.001  0.000  0.008
    3  0.007  0.001  0.000  0.008
    4  0.007  0.001  0.000  0.008
    5  0.007  0.001  0.000  0.008
    6  0.007  0.001  0.000  0.008
    7  0.007  0.001  0.000  0.008
    8  0.007  0.001  0.000  0.008
    9  0.007  0.001  0.000  0.007
   10  0.027  0.000  0.000  0.027
   11  0.028  0.000  0.000  0.028
   12  0.027  0.000  0.000  0.027
   13  0.028  0.000  0.000  0.028
   14  0.028  0.000  0.000  0.028
   15  0.027  0.000  0.000  0.027
   16  0.027  0.000  0.000  0.027
   17  0.027  0.000  0.000  0.027
   18  0.027  0.000  0.000  0.027
   19  0.021  0.000  0.000  0.022
   20  0.022  0.000  0.000  0.023
   21  0.022  0.000  0.000  0.023
   22  0.023  0.000  0.000  0.024
   23  0.022  0.000  0.000  0.023
   24  0.023  0.000  0.000  0.024
   25  0.021  0.000  0.000  0.022
   26  0.021  0.000  0.000  0.022
   27  0.023  0.000  0.000  0.024
   28  0.004  0.000  0.000  0.004
   29  0.003  0.000  0.000  0.004
   30  0.003  0.000  0.000  0.004
   31  0.003  0.000  0.000  0.004
   32  0.003  0.000  0.000  0.004
   33  0.003  0.000  0.000  0.004
   34  0.003  0.000  0.000  0.004
   35  0.004  0.000  0.000  0.004
   36  0.000  0.008  0.012  0.020
   37  0.023  0.001  0.000  0.024
tot    0.557  0.021  0.017  0.595
 
band     3 # energy   -7.45979589 # occ.  2.00000000
 
ion      s      p      d    tot
    1  0.017  0.000  0.001  0.018
    2  0.016  0.000  0.001  0.018
    3  0.016  0.000  0.001  0.018
    4  0.016  0.000  0.001  0.018
    5  0.016  0.000  0.001  0.018
    6  0.016  0.000  0.001  0.018
    7  0.016  0.000  0.001  0.018
    8  0.016  0.000  0.001  0.018
    9  0.016  0.000  0.001  0.018
   10  0.010  0.001  0.002  0.014
   11  0.009  0.002  0.003  0.013
   12  0.010  0.001  0.002  0.014
   13  0.009  0.002  0.003  0.013
   14  0.009  0.002  0.003  0.013
   15  0.009  0.002  0.003  0.013
   16  0.010  0.001  0.002  0.014
   17  0.009  0.002  0.003  0.013
   18  0.009  0.002  0.003  0.013
   19  0.015  0.001  0.004  0.020
   20  0.014  0.001  0.004  0.019
   21  0.014  0.001  0.004  0.019
   22  0.016  0.001  0.004  0.021
   23  0.014  0.001  0.004  0.019
   24  0.016  0.001  0.004  0.021
   25  0.015  0.001  0.004  0.020
   26  0.015  0.001  0.004  0.020
   27  0.016  0.001  0.004  0.021
   28  0.014  0.001  0.000  0.015
   29  0.013  0.001  0.001  0.014
   30  0.013  0.001  0.001  0.014
   31  0.013  0.001  0.001  0.014
   32  0.013  0.001  0.001  0.014
   33  0.013  0.001  0.001  0.014
   34  0.013  0.001  0.001  0.014
   35  0.014  0.001  0.000  0.015
   36  0.004  0.005  0.013  0.022
   37  0.012  0.001  0.000  0.013
tot    0.487  0.037  0.084  0.608
 
band     4 # energy   -6.56436052 # occ.  2.00000000
 
ion      s      p      d    tot
    1  0.001  0.001  0.011  0.012
    2  0.006  0.000  0.008  0.015
    3  0.006  0.000  0.008  0.015
    4  0.006  0.000  0.008  0.015
    5  0.002  0.000  0.005  0.007
    6  0.006  0.000  0.008  0.015
    7  0.006  0.000  0.008  0.015
    8  0.006  0.000  0.008  0.015
    9  0.028  0.001  0.002  0.031
   10  0.010  0.001  0.019  0.029
   11  0.013  0.003  0.008  0.024
   12  0.009  0.001  0.019  0.029
   13  0.013  0.003  0.008  0.024
   14  0.013  0.003  0.008  0.024
   15  0.009  0.001  0.013  0.023
   16  0.009  0.001  0.019  0.028
   17  0.009  0.001  0.013  0.023
   18  0.009  0.001  0.013  0.023
   19  0.000  0.001  0.017  0.018
   20  0.025  0.002  0.014  0.040
   21  0.024  0.002  0.014  0.040
   22  0.008  0.002  0.004  0.014
   23  0.024  0.002  0.014  0.040
   24  0.009  0.002  0.004  0.014
   25  0.000  0.001  0.017  0.018
   26  0.000  0.001  0.017  0.018
   27  0.008  0.002  0.004  0.014
   28  0.009  0.000  0.001  0.010
   29  0.005  0.000  0.006  0.011
   30  0.005  0.000  0.006  0.011
   31  0.005  0.000  0.006  0.011
   32  0.005  0.000  0.006  0.011
   33  0.005  0.000  0.006  0.011
   34  0.005  0.000  0.006  0.011
   35  0.015  0.000  0.002  0.017
   36  0.000  0.005  0.005  0.011
   37  0.002  0.000  0.000  0.002
tot    0.320  0.038  0.333  0.691
 
band     5 # energy   -6.55853834 # occ.  2.00000000
 
ion      s      p      d    tot
    1  0.000  0.000  0.008  0.008
    2  0.003  0.001  0.003  0.007
    3  0.006  0.001  0.003  0.009
    4  0.004  0.001  0.003  0.008
    5  0.000  0.001  0.006  0.007
    6  0.000  0.000  0.002  0.003
    7  0.006  0.001  0.003  0.010
    8  0.000  0.000  0.002  0.003
    9  0.000  0.000  0.001  0.001
   10  0.000  0.000  0.033  0.033
   11  0.036  0.002  0.015  0.053
   12  0.027  0.002  0.012  0.040
   13  0.038  0.001  0.014  0.054
   14  0.000  0.004  0.025  0.029
   15  0.001  0.001  0.010  0.012
   16  0.026  0.002  0.013  0.040
   17  0.001  0.001  0.010  0.012
   18  0.000  0.003  0.004  0.008
   19  0.007  0.001  0.010  0.019
   20  0.000  0.002  0.036  0.038
   21  0.051  0.001  0.017  0.069
   22  0.013  0.001  0.010  0.024
   23  0.049  0.001  0.018  0.068
   24  0.000  0.000  0.027  0.028
   25  0.000  0.004  0.003  0.007
   26  0.008  0.001  0.011  0.020
   27  0.012  0.001  0.011  0.024
   28  0.000  0.000  0.001  0.001
   29  0.000  0.000  0.002  0.003
   30  0.005  0.001  0.004  0.009
   31  0.000  0.000  0.002  0.003
   32  0.005  0.001  0.004  0.010
   33  0.004  0.001  0.003  0.009
   34  0.005  0.001  0.004  0.010
   35  0.000  0.000  0.004  0.004
   36  0.000  0.003  0.011  0.014
   37  0.000  0.000  0.000  0.000
tot    0.307  0.043  0.346  0.696
 
band     6 # energy   -6.55853181 # occ.  2.00000000
 
ion      s      p      d    tot
    1  0.000  0.000  0.008  0.008
    2  0.003  0.001  0.002  0.006
    3  0.001  0.000  0.003  0.004
    4  0.003  0.001  0.002  0.006
    5  0.000  0.001  0.006  0.007
    6  0.006  0.001  0.003  0.010
    7  0.001  0.000  0.003  0.004
    8  0.006  0.001  0.003  0.010
    9  0.000  0.000  0.001  0.001
   10  0.035  0.002  0.005  0.042
   11  0.013  0.003  0.021  0.037
   12  0.008  0.001  0.027  0.036
   13  0.011  0.003  0.022  0.036
   14  0.050  0.001  0.011  0.062
   15  0.000  0.002  0.006  0.009
   16  0.010  0.001  0.026  0.036
   17  0.000  0.003  0.006  0.009
   18  0.001  0.000  0.011  0.013
   19  0.003  0.003  0.006  0.011
   20  0.066  0.001  0.011  0.079
   21  0.016  0.002  0.030  0.048
   22  0.004  0.001  0.022  0.027
   23  0.018  0.002  0.029  0.049
   24  0.016  0.002  0.005  0.023
   25  0.010  0.000  0.013  0.024
   26  0.002  0.003  0.005  0.011
   27  0.004  0.001  0.021  0.026
   28  0.000  0.000  0.001  0.001
   29  0.006  0.001  0.004  0.012
   30  0.002  0.001  0.003  0.005
   31  0.006  0.001  0.004  0.012
   32  0.001  0.000  0.003  0.004
   33  0.002  0.001  0.003  0.005
   34  0.002  0.000  0.003  0.005
   35  0.000  0.000  0.004  0.004
   36  0.000  0.003  0.011  0.014
   37  0.000  0.000  0.000  0.000
tot    0.307  0.043  0.346  0.696
 
band     7 # energy   -6.52609115 # occ.  2.00000000
 
ion      s      p      d    tot
    1  0.026  0.000  0.011  0.037
    2  0.015  0.000  0.016  0.031
    3  0.015  0.000  0.016  0.031
    4  0.015  0.000  0.016  0.031
    5  0.018  0.000  0.017  0.034
    6  0.015  0.000  0.016  0.031
    7  0.015  0.000  0.016  0.031
    8  0.015  0.000  0.016  0.031
    9  0.005  0.001  0.018  0.024
   10  0.001  0.000  0.032  0.033
   11  0.003  0.001  0.025  0.029
   12  0.001  0.000  0.032  0.033
   13  0.003  0.001  0.025  0.029
   14  0.003  0.001  0.025  0.029
   15  0.024  0.001  0.017  0.042
   16  0.001  0.000  0.032  0.033
   17  0.024  0.001  0.017  0.042
   18  0.024  0.001  0.017  0.042
   19  0.001  0.000  0.010  0.011
   20  0.009  0.000  0.010  0.019
   21  0.009  0.000  0.010  0.019
   22  0.002  0.001  0.008  0.011
   23  0.009  0.000  0.010  0.019
   24  0.002  0.001  0.008  0.010
   25  0.001  0.000  0.010  0.011
   26  0.001  0.000  0.010  0.011
   27  0.002  0.001  0.008  0.011
   28  0.000  0.000  0.000  0.000
   29  0.000  0.000  0.001  0.001
   30  0.000  0.000  0.001  0.001
   31  0.000  0.000  0.001  0.001
   32  0.000  0.000  0.001  0.001
   33  0.000  0.000  0.001  0.001
   34  0.000  0.000  0.001  0.001
   35  0.001  0.000  0.000  0.001
   36  0.001  0.003  0.000  0.004
   37  0.002  0.000  0.000  0.002
tot    0.262  0.016  0.454  0.732
 
band     8 # energy   -6.49096781 # occ.  2.00000000
 
ion      s      p      d    tot
    1  0.004  0.001  0.001  0.006
    2  0.000  0.001  0.006  0.007
    3  0.000  0.001  0.006  0.007
    4  0.000  0.001  0.006  0.007
    5  0.019  0.002  0.001  0.021
    6  0.000  0.001  0.006  0.007
    7  0.000  0.001  0.006  0.007
    8  0.000  0.001  0.006  0.007
    9  0.000  0.000  0.002  0.003
   10  0.018  0.003  0.004  0.024
   11  0.022  0.001  0.014  0.037
   12  0.018  0.003  0.004  0.024
   13  0.022  0.001  0.014  0.037
   14  0.022  0.001  0.014  0.037
   15  0.001  0.001  0.024  0.025
   16  0.018  0.003  0.004  0.024
   17  0.001  0.001  0.024  0.025
   18  0.001  0.001  0.024  0.025
   19  0.032  0.002  0.004  0.038
   20  0.003  0.002  0.021  0.026
   21  0.003  0.002  0.021  0.026
   22  0.002  0.000  0.028  0.029
   23  0.003  0.002  0.021  0.026
   24  0.002  0.000  0.028  0.029
   25  0.031  0.002  0.004  0.037
   26  0.032  0.002  0.004  0.038
   27  0.002  0.000  0.028  0.029
   28  0.002  0.001  0.006  0.009
   29  0.003  0.000  0.006  0.010
   30  0.003  0.000  0.006  0.010
   31  0.003  0.000  0.006  0.010
   32  0.003  0.000  0.006  0.010
   33  0.003  0.000  0.006  0.010
   34  0.003  0.000  0.006  0.010
   35  0.011  0.000  0.000  0.012
   36  0.006  0.000  0.009  0.016
   37  0.000  0.000  0.000  0.001
tot    0.294  0.037  0.371  0.702
 
band     9 # energy   -6.47516349 # occ.  2.00000000
 
ion      s      p      d    tot
    1  0.000  0.001  0.003  0.004
    2  0.004  0.001  0.004  0.009
    3  0.008  0.001  0.004  0.013
    4  0.004  0.001  0.004  0.009
    5  0.000  0.000  0.005  0.005
    6  0.001  0.000  0.003  0.004
    7  0.008  0.001  0.004  0.013
    8  0.000  0.000  0.003  0.004
    9  0.000  0.001  0.011  0.012
   10  0.025  0.000  0.016  0.041
   11  0.002  0.001  0.021  0.024
   12  0.006  0.004  0.007  0.016
   13  0.002  0.001  0.021  0.024
   14  0.009  0.001  0.008  0.017
   15  0.016  0.001  0.033  0.050
   16  0.006  0.003  0.007  0.017
   17  0.015  0.001  0.034  0.050
   18  0.063  0.002  0.006  0.070
   19  0.010  0.001  0.027  0.039
   20  0.000  0.001  0.013  0.015
   21  0.000  0.002  0.012  0.014
   22  0.009  0.003  0.015  0.027
   23  0.000  0.002  0.012  0.014
   24  0.036  0.001  0.012  0.049
   25  0.040  0.002  0.003  0.045
   26  0.010  0.001  0.028  0.038
   27  0.010  0.003  0.015  0.028
   28  0.000  0.000  0.006  0.007
   29  0.000  0.000  0.002  0.002
   30  0.003  0.001  0.002  0.005
   31  0.000  0.000  0.002  0.002
   32  0.004  0.001  0.003  0.008
   33  0.003  0.001  0.002  0.005
   34  0.004  0.001  0.003  0.008
   35  0.000  0.001  0.004  0.004
   36  0.000  0.000  0.001  0.001
   37  0.000  0.000  0.000  0.000
tot    0.299  0.041  0.354  0.694
 
band    10 # energy   -6.47514116 # occ.  2.00000000
 
ion      s      p      d    tot
    1  0.000  0.001  0.003  0.004
    2  0.004  0.001  0.003  0.008
    3  0.001  0.000  0.004  0.005
    4  0.004  0.001  0.003  0.008
    5  0.000  0.000  0.005  0.005
    6  0.008  0.001  0.004  0.013
    7  0.001  0.000  0.004  0.005
    8  0.008  0.001  0.004  0.013
    9  0.000  0.001  0.011  0.012
   10  0.000  0.005  0.004  0.008
   11  0.006  0.001  0.012  0.020
   12  0.019  0.001  0.013  0.033
   13  0.006  0.001  0.012  0.020
   14  0.000  0.001  0.025  0.027
   15  0.046  0.001  0.015  0.063
   16  0.018  0.001  0.013  0.033
   17  0.048  0.001  0.014  0.064
   18  0.000  0.001  0.043  0.044
   19  0.030  0.002  0.012  0.043
   20  0.000  0.002  0.011  0.013
   21  0.000  0.001  0.013  0.014
   22  0.027  0.001  0.013  0.042
   23  0.000  0.001  0.013  0.014
   24  0.000  0.004  0.016  0.020
   25  0.000  0.000  0.036  0.036
   26  0.031  0.002  0.011  0.043
   27  0.027  0.001  0.013  0.041
   28  0.000  0.000  0.006  0.007
   29  0.005  0.001  0.002  0.008
   30  0.002  0.000  0.003  0.005
   31  0.005  0.001  0.002  0.008
   32  0.000  0.000  0.002  0.002
   33  0.002  0.000  0.003  0.005
   34  0.001  0.000  0.002  0.002
   35  0.000  0.001  0.004  0.004
   36  0.000  0.000  0.001  0.001
   37  0.000  0.000  0.000  0.000
tot    0.299  0.041  0.354  0.694
 
band    11 # energy   -6.46380352 # occ.  2.00000000
 
ion      s      p      d    tot
    1  0.007  0.001  0.001  0.008
    2  0.000  0.000  0.002  0.002
    3  0.000  0.000  0.002  0.002
    4  0.000  0.000  0.002  0.002
    5  0.000  0.000  0.001  0.001
    6  0.000  0.000  0.002  0.002
    7  0.000  0.000  0.002  0.002
    8  0.000  0.000  0.002  0.002
    9  0.001  0.000  0.000  0.001
   10  0.010  0.000  0.006  0.016
   11  0.000  0.000  0.013  0.014
   12  0.010  0.000  0.006  0.016
   13  0.000  0.000  0.013  0.014
   14  0.000  0.000  0.013  0.014
   15  0.004  0.001  0.003  0.009
   16  0.010  0.000  0.006  0.016
   17  0.004  0.001  0.003  0.009
   18  0.004  0.001  0.003  0.009
   19  0.000  0.001  0.017  0.018
   20  0.002  0.001  0.032  0.035
   21  0.002  0.001  0.032  0.035
   22  0.021  0.002  0.014  0.036
   23  0.002  0.001  0.032  0.035
   24  0.021  0.002  0.014  0.036
   25  0.000  0.001  0.017  0.018
   26  0.000  0.001  0.017  0.018
   27  0.021  0.002  0.014  0.036
   28  0.026  0.000  0.013  0.038
   29  0.019  0.000  0.016  0.034
   30  0.019  0.000  0.016  0.034
   31  0.019  0.000  0.016  0.034
   32  0.019  0.000  0.016  0.034
   33  0.019  0.000  0.016  0.034
   34  0.019  0.000  0.016  0.034
   35  0.007  0.001  0.019  0.026
   36  0.012  0.001  0.033  0.046
   37  0.004  0.001  0.000  0.005
tot    0.280  0.021  0.427  0.727
 
band    12 # energy   -6.06117366 # occ.  2.00000000
 
ion      s      p      d    tot
    1  0.000  0.001  0.004  0.005
    2  0.001  0.001  0.005  0.007
    3  0.010  0.001  0.005  0.016
    4  0.001  0.001  0.005  0.007
    5  0.000  0.001  0.010  0.012
    6  0.004  0.001  0.004  0.009
    7  0.010  0.001  0.005  0.016
    8  0.004  0.001  0.004  0.009
    9  0.000  0.000  0.009  0.009
   10  0.000  0.001  0.049  0.050
   11  0.018  0.001  0.021  0.039
   12  0.007  0.001  0.019  0.028
   13  0.018  0.001  0.021  0.039
   14  0.000  0.000  0.052  0.052
   15  0.002  0.000  0.020  0.022
   16  0.007  0.001  0.019  0.028
   17  0.002  0.000  0.020  0.022
   18  0.000  0.001  0.012  0.013
   19  0.003  0.000  0.017  0.021
   20  0.000  0.000  0.075  0.076
   21  0.016  0.001  0.023  0.040
   22  0.004  0.001  0.018  0.023
   23  0.016  0.001  0.024  0.040
   24  0.000  0.001  0.035  0.035
   25  0.000  0.001  0.010  0.011
   26  0.003  0.000  0.017  0.021
   27  0.004  0.001  0.018  0.024
   28  0.000  0.000  0.007  0.007
   29  0.003  0.001  0.004  0.008
   30  0.008  0.001  0.005  0.014
   31  0.003  0.001  0.004  0.008
   32  0.001  0.001  0.004  0.005
   33  0.008  0.001  0.005  0.014
   34  0.001  0.001  0.004  0.005
   35  0.000  0.000  0.002  0.003
   36  0.000  0.003  0.010  0.013
   37  0.000  0.000  0.000  0.000
tot    0.154  0.031  0.565  0.751
 
band    13 # energy   -6.06115802 # occ.  2.00000000
 
ion      s      p      d    tot
    1  0.000  0.001  0.004  0.005
    2  0.009  0.001  0.004  0.014
    3  0.000  0.000  0.004  0.005
    4  0.009  0.001  0.004  0.014
    5  0.000  0.001  0.010  0.012
    6  0.006  0.001  0.005  0.012
    7  0.000  0.000  0.004  0.005
    8  0.006  0.001  0.005  0.012
    9  0.000  0.000  0.009  0.009
   10  0.009  0.002  0.009  0.020
   11  0.006  0.000  0.042  0.048
   12  0.002  0.001  0.039  0.043
   13  0.006  0.000  0.042  0.048
   14  0.024  0.001  0.010  0.035
   15  0.001  0.001  0.014  0.016
   16  0.002  0.001  0.039  0.043
   17  0.001  0.001  0.014  0.016
   18  0.003  0.000  0.023  0.025
   19  0.001  0.001  0.012  0.014
   20  0.021  0.001  0.006  0.029
   21  0.005  0.000  0.058  0.064
   22  0.001  0.001  0.029  0.032
   23  0.005  0.000  0.058  0.064
   24  0.005  0.001  0.013  0.019
   25  0.005  0.000  0.020  0.025
   26  0.001  0.001  0.012  0.014
   27  0.001  0.001  0.029  0.032
   28  0.000  0.000  0.006  0.007
   29  0.005  0.001  0.004  0.010
   30  0.000  0.000  0.004  0.004
   31  0.005  0.001  0.004  0.010
   32  0.007  0.001  0.005  0.013
   33  0.000  0.000  0.004  0.004
   34  0.007  0.001  0.005  0.013
   35  0.000  0.000  0.002  0.003
   36  0.000  0.003  0.010  0.013
   37  0.000  0.000  0.000  0.000
tot    0.154  0.031  0.565  0.751
 
band    14 # energy   -6.05499986 # occ.  2.00000000
 
ion      s      p      d    tot
    1  0.017  0.002  0.001  0.020
    2  0.000  0.001  0.007  0.007
    3  0.000  0.001  0.007  0.007
    4  0.000  0.001  0.007  0.007
    5  0.001  0.000  0.002  0.004
    6  0.000  0.001  0.007  0.008
    7  0.000  0.001  0.007  0.007
    8  0.000  0.001  0.007  0.008
    9  0.008  0.001  0.000  0.009
   10  0.008  0.001  0.010  0.020
   11  0.006  0.001  0.034  0.040
   12  0.008  0.001  0.011  0.020
   13  0.006  0.001  0.034  0.040
   14  0.006  0.001  0.033  0.040
   15  0.000  0.000  0.032  0.033
   16  0.008  0.001  0.011  0.020
   17  0.000  0.000  0.032  0.033
   18  0.000  0.000  0.032  0.033
   19  0.008  0.001  0.005  0.015
   20  0.000  0.000  0.048  0.049
   21  0.000  0.000  0.049  0.049
   22  0.009  0.001  0.032  0.042
   23  0.000  0.000  0.049  0.049
   24  0.010  0.001  0.032  0.042
   25  0.008  0.001  0.005  0.015
   26  0.008  0.001  0.005  0.015
   27  0.009  0.001  0.032  0.042
   28  0.016  0.002  0.000  0.018
   29  0.000  0.001  0.008  0.008
   30  0.000  0.001  0.007  0.008
   31  0.000  0.001  0.008  0.008
   32  0.000  0.001  0.008  0.008
   33  0.000  0.001  0.007  0.008
   34  0.000  0.001  0.008  0.008
   35  0.002  0.001  0.003  0.006
   36  0.004  0.001  0.002  0.008
   37  0.000  0.000  0.000  0.000
tot    0.146  0.028  0.582  0.757
 
band    15 # energy   -6.01442109 # occ.  2.00000000
 
ion      s      p      d    tot
    1  0.001  0.000  0.002  0.003
    2  0.000  0.001  0.009  0.009
    3  0.000  0.001  0.009  0.009
    4  0.000  0.001  0.009  0.009
    5  0.018  0.002  0.000  0.019
    6  0.000  0.001  0.009  0.009
    7  0.000  0.001  0.009  0.009
    8  0.000  0.001  0.009  0.009
    9  0.011  0.001  0.002  0.015
   10  0.002  0.000  0.043  0.045
   11  0.004  0.001  0.021  0.026
   12  0.002  0.000  0.043  0.045
   13  0.004  0.001  0.021  0.026
   14  0.004  0.001  0.021  0.026
   15  0.011  0.002  0.014  0.027
   16  0.002  0.000  0.043  0.045
   17  0.011  0.002  0.014  0.027
   18  0.011  0.002  0.014  0.027
   19  0.005  0.000  0.038  0.043
   20  0.010  0.002  0.015  0.027
   21  0.010  0.002  0.015  0.027
   22  0.003  0.001  0.024  0.027
   23  0.010  0.002  0.015  0.027
   24  0.003  0.001  0.024  0.027
   25  0.005  0.000  0.038  0.043
   26  0.005  0.000  0.038  0.043
   27  0.003  0.001  0.024  0.027
   28  0.000  0.000  0.003  0.003
   29  0.000  0.000  0.006  0.007
   30  0.000  0.000  0.006  0.007
   31  0.000  0.000  0.006  0.007
   32  0.000  0.000  0.006  0.007
   33  0.000  0.000  0.006  0.007
   34  0.000  0.000  0.006  0.007
   35  0.006  0.001  0.001  0.008
   36  0.010  0.008  0.000  0.018
   37  0.006  0.000  0.000  0.006
tot    0.158  0.037  0.560  0.754
 
band    16 # energy   -5.99389183 # occ.  2.00000000
 
ion      s      p      d    tot
    1  0.000  0.001  0.014  0.015
    2  0.009  0.001  0.004  0.014
    3  0.001  0.000  0.005  0.006
    4  0.009  0.001  0.004  0.014
    5  0.000  0.000  0.006  0.006
    6  0.004  0.001  0.005  0.010
    7  0.001  0.000  0.005  0.006
    8  0.004  0.001  0.005  0.010
    9  0.000  0.001  0.006  0.007
   10  0.000  0.001  0.033  0.033
   11  0.000  0.001  0.020  0.021
   12  0.009  0.000  0.022  0.031
   13  0.000  0.001  0.020  0.021
   14  0.000  0.001  0.017  0.018
   15  0.010  0.002  0.020  0.032
   16  0.009  0.000  0.022  0.031
   17  0.010  0.002  0.020  0.032
   18  0.000  0.000  0.062  0.062
   19  0.015  0.001  0.020  0.036
   20  0.000  0.002  0.022  0.024
   21  0.000  0.001  0.024  0.024
   22  0.016  0.001  0.021  0.038
   23  0.000  0.001  0.024  0.024
   24  0.000  0.001  0.029  0.030
   25  0.000  0.000  0.067  0.067
   26  0.015  0.001  0.020  0.036
   27  0.016  0.001  0.021  0.038
   28  0.000  0.001  0.005  0.006
   29  0.005  0.001  0.004  0.010
   30  0.000  0.000  0.005  0.005
   31  0.005  0.001  0.004  0.010
   32  0.005  0.001  0.003  0.008
   33  0.000  0.000  0.005  0.005
   34  0.005  0.001  0.003  0.008
   35  0.000  0.001  0.008  0.009
   36  0.000  0.000  0.002  0.002
   37  0.000  0.000  0.000  0.000
tot    0.150  0.029  0.572  0.751
 
band    17 # energy   -5.99386942 # occ.  2.00000000
 
ion      s      p      d    tot
    1  0.000  0.001  0.014  0.015
    2  0.000  0.001  0.005  0.006
    3  0.009  0.001  0.005  0.015
    4  0.000  0.001  0.005  0.006
    5  0.000  0.000  0.006  0.006
    6  0.005  0.001  0.004  0.010
    7  0.009  0.001  0.005  0.015
    8  0.005  0.001  0.004  0.010
    9  0.000  0.001  0.006  0.007
   10  0.012  0.000  0.018  0.030
   11  0.000  0.001  0.018  0.019
   12  0.003  0.001  0.029  0.032
   13  0.000  0.001  0.018  0.019
   14  0.000  0.001  0.021  0.023
   15  0.003  0.001  0.048  0.052
   16  0.003  0.001  0.029  0.032
   17  0.003  0.001  0.048  0.052
   18  0.014  0.002  0.006  0.022
   19  0.005  0.001  0.051  0.056
   20  0.000  0.000  0.024  0.025
   21  0.000  0.001  0.023  0.024
   22  0.005  0.001  0.026  0.032
   23  0.000  0.001  0.023  0.024
   24  0.022  0.001  0.018  0.040
   25  0.020  0.001  0.004  0.025
   26  0.005  0.001  0.051  0.057
   27  0.005  0.001  0.026  0.032
   28  0.000  0.001  0.005  0.006
   29  0.002  0.000  0.004  0.006
   30  0.007  0.001  0.003  0.011
   31  0.002  0.000  0.004  0.006
   32  0.002  0.001  0.005  0.007
   33  0.007  0.001  0.003  0.011
   34  0.002  0.001  0.005  0.007
   35  0.000  0.001  0.008  0.009
   36  0.000  0.000  0.002  0.002
   37  0.000  0.000  0.000  0.000
tot    0.150  0.029  0.572  0.751
 
band    18 # energy   -5.67649520 # occ.  2.00000000
 
ion      s      p      d    tot
    1  0.008  0.000  0.008  0.017
    2  0.000  0.001  0.017  0.018
    3  0.000  0.001  0.017  0.018
    4  0.000  0.001  0.017  0.018
    5  0.004  0.001  0.003  0.008
    6  0.000  0.001  0.017  0.018
    7  0.000  0.001  0.017  0.018
    8  0.000  0.001  0.017  0.018
    9  0.024  0.001  0.002  0.028
   10  0.001  0.000  0.026  0.026
   11  0.000  0.000  0.030  0.030
   12  0.001  0.000  0.025  0.026
   13  0.000  0.000  0.030  0.030
   14  0.000  0.000  0.030  0.030
   15  0.000  0.000  0.030  0.031
   16  0.001  0.000  0.025  0.026
   17  0.000  0.000  0.030  0.031
   18  0.000  0.000  0.030  0.030
   19  0.000  0.000  0.024  0.024
   20  0.001  0.000  0.037  0.038
   21  0.001  0.000  0.037  0.037
   22  0.000  0.000  0.026  0.026
   23  0.001  0.000  0.036  0.037
   24  0.000  0.000  0.026  0.027
   25  0.000  0.000  0.024  0.024
   26  0.000  0.000  0.024  0.024
   27  0.000  0.000  0.026  0.026
   28  0.001  0.000  0.008  0.008
   29  0.000  0.001  0.015  0.016
   30  0.000  0.001  0.015  0.016
   31  0.000  0.001  0.015  0.016
   32  0.000  0.001  0.015  0.016
   33  0.000  0.001  0.015  0.016
   34  0.000  0.001  0.015  0.016
   35  0.013  0.001  0.000  0.014
   36  0.010  0.000  0.011  0.021
   37  0.000  0.000  0.000  0.000
tot    0.065  0.017  0.743  0.825
 
band    19 # energy   -5.67511949 # occ.  2.00000000
 
ion      s      p      d    tot
    1  0.000  0.000  0.019  0.019
    2  0.002  0.001  0.008  0.011
    3  0.003  0.000  0.013  0.016
    4  0.002  0.001  0.008  0.011
    5  0.000  0.001  0.020  0.021
    6  0.009  0.001  0.009  0.018
    7  0.003  0.000  0.013  0.015
    8  0.009  0.001  0.009  0.018
    9  0.000  0.001  0.004  0.004
   10  0.000  0.001  0.024  0.024
   11  0.000  0.000  0.059  0.060
   12  0.000  0.000  0.013  0.014
   13  0.000  0.000  0.059  0.060
   14  0.000  0.000  0.053  0.054
   15  0.000  0.000  0.018  0.018
   16  0.000  0.000  0.013  0.014
   17  0.000  0.000  0.018  0.018
   18  0.000  0.000  0.030  0.030
   19  0.000  0.000  0.008  0.008
   20  0.001  0.000  0.082  0.084
   21  0.000  0.000  0.053  0.053
   22  0.000  0.000  0.029  0.030
   23  0.000  0.000  0.053  0.053
   24  0.001  0.000  0.021  0.023
   25  0.000  0.000  0.015  0.015
   26  0.000  0.000  0.008  0.008
   27  0.000  0.000  0.029  0.030
   28  0.000  0.000  0.005  0.005
   29  0.007  0.001  0.012  0.020
   30  0.000  0.000  0.008  0.009
   31  0.007  0.001  0.012  0.020
   32  0.004  0.001  0.005  0.009
   33  0.000  0.000  0.008  0.009
   34  0.004  0.001  0.005  0.009
   35  0.000  0.000  0.014  0.014
   36  0.000  0.003  0.010  0.013
   37  0.000  0.000  0.000  0.000
tot    0.054  0.015  0.766  0.835
 
band    20 # energy   -5.67509895 # occ.  2.00000000
 
ion      s      p      d    tot
    1  0.000  0.000  0.019  0.019
    2  0.007  0.000  0.011  0.019
    3  0.006  0.001  0.007  0.014
    4  0.007  0.000  0.011  0.019
    5  0.000  0.001  0.020  0.021
    6  0.000  0.000  0.011  0.012
    7  0.006  0.001  0.007  0.014
    8  0.000  0.000  0.011  0.012
    9  0.000  0.001  0.004  0.004
   10  0.000  0.000  0.010  0.010
   11  0.000  0.000  0.055  0.056
   12  0.000  0.000  0.020  0.021
   13  0.000  0.000  0.055  0.056
   14  0.000  0.000  0.061  0.062
   15  0.000  0.000  0.026  0.026
   16  0.000  0.000  0.020  0.021
   17  0.000  0.000  0.026  0.026
   18  0.000  0.000  0.014  0.014
   19  0.000  0.000  0.012  0.012
   20  0.000  0.000  0.043  0.043
   21  0.001  0.000  0.073  0.074
   22  0.001  0.000  0.024  0.025
   23  0.001  0.000  0.073  0.074
   24  0.000  0.000  0.032  0.032
   25  0.000  0.000  0.006  0.006
   26  0.000  0.000  0.012  0.012
   27  0.001  0.000  0.024  0.025
   28  0.000  0.000  0.005  0.005
   29  0.001  0.000  0.005  0.006
   30  0.007  0.001  0.009  0.016
   31  0.001  0.000  0.005  0.006
   32  0.003  0.001  0.012  0.016
   33  0.007  0.001  0.009  0.016
   34  0.003  0.001  0.012  0.016
   35  0.000  0.000  0.014  0.014
   36  0.000  0.003  0.010  0.013
   37  0.000  0.000  0.000  0.000
tot    0.054  0.015  0.766  0.835
 
band    21 # energy   -5.63302709 # occ.  2.00000000
 
ion      s      p      d    tot
    1  0.010  0.001  0.000  0.011
    2  0.000  0.001  0.015  0.015
    3  0.000  0.001  0.014  0.015
    4  0.000  0.001  0.015  0.015
    5  0.013  0.000  0.010  0.023
    6  0.000  0.001  0.014  0.015
    7  0.000  0.001  0.014  0.015
    8  0.000  0.001  0.014  0.015
    9  0.001  0.000  0.011  0.012
   10  0.000  0.000  0.029  0.030
   11  0.000  0.000  0.033  0.033
   12  0.000  0.000  0.029  0.030
   13  0.000  0.000  0.033  0.033
   14  0.000  0.000  0.033  0.033
   15  0.000  0.000  0.041  0.042
   16  0.000  0.000  0.029  0.030
   17  0.000  0.000  0.041  0.042
   18  0.000  0.000  0.041  0.042
   19  0.000  0.000  0.025  0.025
   20  0.000  0.000  0.028  0.028
   21  0.000  0.000  0.028  0.028
   22  0.001  0.000  0.029  0.031
   23  0.000  0.000  0.028  0.028
   24  0.001  0.000  0.029  0.031
   25  0.000  0.000  0.025  0.025
   26  0.000  0.000  0.025  0.025
   27  0.001  0.000  0.029  0.031
   28  0.014  0.000  0.003  0.017
   29  0.000  0.000  0.015  0.015
   30  0.000  0.000  0.015  0.015
   31  0.000  0.000  0.015  0.015
   32  0.000  0.000  0.015  0.015
   33  0.000  0.000  0.015  0.015
   34  0.000  0.000  0.015  0.015
   35  0.008  0.000  0.006  0.015
   36  0.001  0.002  0.000  0.003