PROCAR new format
# of k-points:   10         # of bands:  252         # of ions:   37

 k-point     1 :    0.00000000 0.00000000 0.00000000     weight = 0.01562500

band     1 # energy  -18.45420314 # occ.  2.00000000
 
ion      s      p      d    tot
    1  0.000  0.000  0.000  0.000
    2  0.000  0.000  0.000  0.000
    3  0.000  0.000  0.000  0.000
    4  0.000  0.000  0.000  0.000
    5  0.000  0.000  0.000  0.000
    6  0.000  0.000  0.000  0.000
    7  0.000  0.000  0.000  0.000
    8  0.000  0.000  0.000  0.000
    9  0.000  0.000  0.000  0.000
   10  0.000  0.000  0.000  0.000
   11  0.000  0.000  0.000  0.000
   12  0.000  0.000  0.000  0.000
   13  0.000  0.000  0.000  0.000
   14  0.000  0.000  0.000  0.000
   15  0.000  0.000  0.000  0.000
   16  0.000  0.000  0.000  0.000
   17  0.000  0.000  0.000  0.000
   18  0.000  0.000  0.000  0.000
   19  0.000  0.000  0.000  0.000
   20  0.000  0.000  0.000  0.000
   21  0.000  0.000  0.000  0.000
   22  0.000  0.000  0.000  0.000
   23  0.000  0.000  0.000  0.000
   24  0.000  0.000  0.000  0.000
   25  0.000  0.000  0.000  0.000
   26  0.000  0.000  0.000  0.000
   27  0.000  0.000  0.000  0.000
   28  0.000  0.000  0.000  0.000
   29  0.000  0.000  0.000  0.000
   30  0.000  0.000  0.000  0.000
   31  0.000  0.000  0.000  0.000
   32  0.000  0.000  0.000  0.000
   33  0.000  0.000  0.000  0.000
   34  0.000  0.000  0.000  0.000
   35  0.000  0.000  0.000  0.000
   36  0.047  0.055  0.109  0.212
   37  0.758  0.019  0.000  0.777
tot    0.805  0.074  0.110  0.989
 
band     2 # energy   -8.15236771 # occ.  2.00000000
 
ion      s      p      d    tot
    1  0.006  0.001  0.000  0.007
    2  0.006  0.000  0.000  0.006
    3  0.006  0.000  0.000  0.006
    4  0.006  0.000  0.000  0.006
    5  0.006  0.001  0.000  0.007
    6  0.006  0.000  0.000  0.006
    7  0.006  0.000  0.000  0.006
    8  0.006  0.000  0.000  0.006
    9  0.006  0.000  0.000  0.006
   10  0.025  0.000  0.000  0.025
   11  0.026  0.000  0.000  0.026
   12  0.025  0.000  0.000  0.025
   13  0.026  0.000  0.000  0.026
   14  0.026  0.000  0.000  0.026
   15  0.025  0.000  0.000  0.025
   16  0.025  0.000  0.000  0.025
   17  0.025  0.000  0.000  0.025
   18  0.025  0.000  0.000  0.025
   19  0.023  0.000  0.000  0.023
   20  0.029  0.000  0.000  0.030
   21  0.029  0.000  0.000  0.030
   22  0.025  0.000  0.000  0.025
   23  0.029  0.000  0.000  0.030
   24  0.025  0.000  0.000  0.025
   25  0.023  0.000  0.000  0.023
   26  0.023  0.000  0.000  0.023
   27  0.025  0.000  0.000  0.025
   28  0.005  0.000  0.000  0.005
   29  0.005  0.001  0.000  0.006
   30  0.005  0.001  0.000  0.006
   31  0.005  0.001  0.000  0.006
   32  0.005  0.001  0.000  0.006
   33  0.005  0.001  0.000  0.006
   34  0.005  0.001  0.000  0.006
   35  0.005  0.000  0.000  0.005
   36  0.010  0.002  0.000  0.012
   37  0.001  0.001  0.000  0.002
tot    0.567  0.013  0.004  0.584
 
band     3 # energy   -6.99897016 # occ.  2.00000000
 
ion      s      p      d    tot
    1  0.016  0.000  0.001  0.018
    2  0.017  0.000  0.001  0.018
    3  0.017  0.000  0.001  0.018
    4  0.017  0.000  0.001  0.018
    5  0.016  0.000  0.001  0.018
    6  0.017  0.000  0.001  0.018
    7  0.017  0.000  0.001  0.018
    8  0.017  0.000  0.001  0.018
    9  0.017  0.001  0.001  0.019
   10  0.012  0.001  0.003  0.016
   11  0.011  0.001  0.003  0.015
   12  0.012  0.001  0.003  0.016
   13  0.011  0.001  0.003  0.015
   14  0.011  0.001  0.003  0.015
   15  0.013  0.001  0.002  0.016
   16  0.012  0.001  0.003  0.016
   17  0.013  0.001  0.002  0.016
   18  0.013  0.001  0.002  0.016
   19  0.010  0.001  0.003  0.014
   20  0.016  0.002  0.003  0.021
   21  0.016  0.002  0.003  0.021
   22  0.010  0.001  0.003  0.015
   23  0.016  0.002  0.003  0.021
   24  0.010  0.001  0.003  0.015
   25  0.010  0.001  0.003  0.014
   26  0.010  0.001  0.003  0.014
   27  0.010  0.001  0.003  0.015
   28  0.012  0.000  0.001  0.013
   29  0.014  0.001  0.001  0.016
   30  0.014  0.001  0.001  0.016
   31  0.014  0.001  0.001  0.016
   32  0.014  0.001  0.001  0.016
   33  0.014  0.001  0.001  0.016
   34  0.014  0.001  0.001  0.016
   35  0.012  0.000  0.001  0.013
   36  0.026  0.002  0.000  0.028
   37  0.002  0.002  0.000  0.004
tot    0.502  0.036  0.065  0.603
 
band     4 # energy   -6.14936675 # occ.  2.00000000
 
ion      s      p      d    tot
    1  0.004  0.001  0.001  0.005
    2  0.000  0.000  0.002  0.002
    3  0.000  0.000  0.002  0.002
    4  0.000  0.000  0.002  0.002
    5  0.000  0.000  0.000  0.000
    6  0.000  0.000  0.002  0.002
    7  0.000  0.000  0.002  0.002
    8  0.000  0.000  0.002  0.002
    9  0.005  0.001  0.001  0.007
   10  0.004  0.000  0.016  0.021
   11  0.002  0.001  0.007  0.011
   12  0.004  0.000  0.016  0.020
   13  0.002  0.001  0.007  0.011
   14  0.002  0.001  0.007  0.011
   15  0.015  0.001  0.003  0.019
   16  0.004  0.000  0.016  0.020
   17  0.015  0.001  0.003  0.019
   18  0.015  0.001  0.003  0.019
   19  0.000  0.001  0.020  0.022
   20  0.027  0.002  0.039  0.069
   21  0.027  0.002  0.039  0.069
   22  0.016  0.002  0.002  0.021
   23  0.027  0.002  0.039  0.069
   24  0.016  0.002  0.002  0.021
   25  0.000  0.001  0.020  0.022
   26  0.000  0.001  0.020  0.022
   27  0.016  0.002  0.002  0.021
   28  0.007  0.000  0.000  0.007
   29  0.003  0.000  0.005  0.009
   30  0.003  0.000  0.005  0.009
   31  0.003  0.000  0.005  0.009
   32  0.003  0.000  0.005  0.008
   33  0.003  0.000  0.005  0.009
   34  0.003  0.000  0.005  0.008
   35  0.016  0.001  0.000  0.018
   36  0.024  0.003  0.065  0.093
   37  0.008  0.054  0.000  0.062
tot    0.283  0.087  0.371  0.740
 
band     5 # energy   -6.02627559 # occ.  2.00000000
 
ion      s      p      d    tot
    1  0.000  0.000  0.008  0.008
    2  0.003  0.001  0.002  0.006
    3  0.000  0.000  0.003  0.003
    4  0.003  0.001  0.002  0.006
    5  0.000  0.001  0.005  0.006
    6  0.005  0.001  0.003  0.009
    7  0.000  0.000  0.003  0.003
    8  0.005  0.001  0.003  0.009
    9  0.000  0.000  0.001  0.001
   10  0.036  0.002  0.006  0.045
   11  0.010  0.003  0.020  0.033
   12  0.010  0.001  0.024  0.034
   13  0.012  0.003  0.019  0.034
   14  0.044  0.001  0.011  0.055
   15  0.000  0.002  0.006  0.009
   16  0.008  0.001  0.025  0.034
   17  0.000  0.002  0.007  0.009
   18  0.000  0.000  0.010  0.011
   19  0.003  0.003  0.005  0.011
   20  0.070  0.001  0.012  0.083
   21  0.019  0.002  0.031  0.052
   22  0.004  0.001  0.020  0.025
   23  0.016  0.002  0.032  0.049
   24  0.014  0.002  0.005  0.020
   25  0.012  0.000  0.013  0.026
   26  0.003  0.003  0.006  0.012
   27  0.003  0.001  0.021  0.025
   28  0.000  0.000  0.001  0.002
   29  0.006  0.001  0.005  0.012
   30  0.002  0.001  0.003  0.006
   31  0.006  0.001  0.005  0.012
   32  0.001  0.000  0.003  0.005
   33  0.002  0.001  0.003  0.005
   34  0.001  0.000  0.003  0.005
   35  0.000  0.000  0.003  0.003
   36  0.000  0.002  0.024  0.026
   37  0.000  0.004  0.000  0.004
tot    0.301  0.045  0.353  0.699
 
band     6 # energy   -6.02627072 # occ.  2.00000000
 
ion      s      p      d    tot
    1  0.000  0.000  0.008  0.008
    2  0.003  0.001  0.003  0.007
    3  0.005  0.001  0.003  0.009
    4  0.003  0.001  0.003  0.006
    5  0.000  0.001  0.005  0.006
    6  0.000  0.000  0.002  0.003
    7  0.005  0.001  0.003  0.009
    8  0.000  0.000  0.002  0.003
    9  0.000  0.000  0.001  0.001
   10  0.000  0.000  0.031  0.031
   11  0.034  0.001  0.013  0.049
   12  0.026  0.002  0.013  0.041
   13  0.032  0.002  0.014  0.047
   14  0.000  0.004  0.022  0.026
   15  0.000  0.001  0.009  0.010
   16  0.028  0.002  0.011  0.041
   17  0.000  0.001  0.009  0.010
   18  0.000  0.003  0.005  0.008
   19  0.010  0.001  0.011  0.022
   20  0.000  0.002  0.038  0.040
   21  0.051  0.001  0.019  0.071
   22  0.010  0.001  0.011  0.022
   23  0.054  0.001  0.018  0.073
   24  0.000  0.001  0.026  0.026
   25  0.000  0.004  0.003  0.007
   26  0.009  0.001  0.011  0.021
   27  0.011  0.001  0.010  0.022
   28  0.000  0.000  0.001  0.002
   29  0.000  0.000  0.003  0.003
   30  0.004  0.001  0.005  0.009
   31  0.000  0.000  0.003  0.003
   32  0.005  0.001  0.004  0.010
   33  0.004  0.001  0.005  0.010
   34  0.005  0.001  0.004  0.011
   35  0.000  0.000  0.003  0.003
   36  0.000  0.002  0.024  0.026
   37  0.000  0.004  0.000  0.004
tot    0.301  0.045  0.353  0.699
 
band     7 # energy   -6.01647019 # occ.  2.00000000
 
ion      s      p      d    tot
    1  0.013  0.000  0.006  0.019
    2  0.010  0.000  0.008  0.018
    3  0.010  0.000  0.008  0.018
    4  0.010  0.000  0.008  0.018
    5  0.014  0.000  0.007  0.022
    6  0.010  0.000  0.008  0.018
    7  0.010  0.000  0.008  0.018
    8  0.010  0.000  0.008  0.018
    9  0.005  0.000  0.010  0.015
   10  0.001  0.001  0.005  0.007
   11  0.000  0.001  0.003  0.004
   12  0.001  0.001  0.005  0.007
   13  0.000  0.001  0.003  0.004
   14  0.000  0.001  0.003  0.004
   15  0.008  0.001  0.002  0.011
   16  0.001  0.001  0.005  0.007
   17  0.008  0.001  0.002  0.011
   18  0.008  0.001  0.002  0.011
   19  0.007  0.001  0.008  0.016
   20  0.000  0.001  0.017  0.019
   21  0.000  0.001  0.017  0.019
   22  0.008  0.001  0.007  0.016
   23  0.000  0.001  0.017  0.019
   24  0.008  0.001  0.007  0.016
   25  0.007  0.001  0.008  0.016
   26  0.007  0.001  0.008  0.016
   27  0.008  0.001  0.007  0.016
   28  0.010  0.000  0.013  0.024
   29  0.019  0.000  0.015  0.034
   30  0.019  0.000  0.015  0.034
   31  0.019  0.000  0.015  0.034
   32  0.019  0.000  0.015  0.034
   33  0.019  0.000  0.015  0.034
   34  0.019  0.000  0.015  0.034
   35  0.011  0.000  0.012  0.023
   36  0.030  0.000  0.031  0.061
   37  0.000  0.001  0.000  0.002
tot    0.334  0.023  0.342  0.699
 
band     8 # energy   -5.98453228 # occ.  2.00000000
 
ion      s      p      d    tot
    1  0.014  0.000  0.014  0.028
    2  0.011  0.000  0.013  0.025
    3  0.011  0.000  0.013  0.025
    4  0.011  0.000  0.013  0.025
    5  0.004  0.000  0.015  0.020
    6  0.011  0.000  0.013  0.025
    7  0.011  0.000  0.013  0.025
    8  0.011  0.000  0.013  0.025
    9  0.019  0.000  0.009  0.029
   10  0.003  0.000  0.027  0.031
   11  0.020  0.001  0.018  0.039
   12  0.003  0.000  0.027  0.031
   13  0.020  0.001  0.018  0.039
   14  0.020  0.001  0.018  0.039
   15  0.002  0.000  0.028  0.029
   16  0.003  0.000  0.027  0.031
   17  0.002  0.000  0.028  0.029
   18  0.002  0.000  0.028  0.029
   19  0.010  0.000  0.009  0.019
   20  0.000  0.000  0.023  0.023
   21  0.000  0.000  0.023  0.023
   22  0.002  0.000  0.014  0.016
   23  0.000  0.000  0.023  0.023
   24  0.002  0.000  0.014  0.016
   25  0.010  0.000  0.009  0.019
   26  0.010  0.000  0.009  0.019
   27  0.002  0.000  0.014  0.016
   28  0.000  0.000  0.003  0.004
   29  0.002  0.000  0.004  0.005
   30  0.002  0.000  0.004  0.005
   31  0.002  0.000  0.004  0.005
   32  0.002  0.000  0.004  0.005
   33  0.002  0.000  0.004  0.005
   34  0.002  0.000  0.004  0.005
   35  0.002  0.000  0.001  0.003
   36  0.004  0.000  0.011  0.015
   37  0.000  0.002  0.000  0.002
tot    0.230  0.010  0.514  0.754
 
band     9 # energy   -5.93752161 # occ.  2.00000000
 
ion      s      p      d    tot
    1  0.006  0.001  0.002  0.010
    2  0.001  0.001  0.006  0.007
    3  0.001  0.001  0.006  0.007
    4  0.001  0.001  0.006  0.007
    5  0.018  0.001  0.000  0.020
    6  0.001  0.001  0.006  0.007
    7  0.001  0.001  0.006  0.007
    8  0.001  0.001  0.006  0.007
    9  0.000  0.000  0.003  0.003
   10  0.028  0.003  0.001  0.032
   11  0.015  0.001  0.026  0.042
   12  0.028  0.003  0.001  0.031
   13  0.015  0.001  0.026  0.042
   14  0.015  0.001  0.026  0.041
   15  0.000  0.001  0.022  0.023
   16  0.028  0.003  0.001  0.031
   17  0.000  0.001  0.022  0.023
   18  0.000  0.001  0.022  0.023
   19  0.018  0.002  0.008  0.028
   20  0.006  0.002  0.017  0.026
   21  0.006  0.002  0.017  0.026
   22  0.012  0.000  0.024  0.037
   23  0.006  0.002  0.017  0.026
   24  0.012  0.000  0.025  0.037
   25  0.017  0.002  0.008  0.028
   26  0.018  0.002  0.008  0.028
   27  0.012  0.000  0.024  0.037
   28  0.016  0.001  0.000  0.017
   29  0.001  0.000  0.005  0.006
   30  0.001  0.000  0.004  0.006
   31  0.001  0.000  0.005  0.006
   32  0.001  0.000  0.005  0.006
   33  0.001  0.000  0.004  0.006
   34  0.001  0.000  0.005  0.006
   35  0.001  0.001  0.005  0.008
   36  0.000  0.000  0.001  0.001
   37  0.000  0.000  0.000  0.000
tot    0.291  0.037  0.371  0.699
 
band    10 # energy   -5.93439574 # occ.  2.00000000
 
ion      s      p      d    tot
    1  0.000  0.001  0.003  0.004
    2  0.004  0.001  0.004  0.008
    3  0.008  0.001  0.004  0.013
    4  0.004  0.001  0.004  0.009
    5  0.000  0.000  0.005  0.005
    6  0.001  0.000  0.003  0.004
    7  0.008  0.001  0.004  0.013
    8  0.001  0.000  0.003  0.004
    9  0.000  0.001  0.011  0.012
   10  0.020  0.000  0.016  0.036
   11  0.003  0.001  0.021  0.026
   12  0.005  0.004  0.006  0.014
   13  0.002  0.001  0.022  0.026
   14  0.012  0.001  0.007  0.020
   15  0.017  0.001  0.031  0.049
   16  0.006  0.003  0.006  0.016
   17  0.014  0.001  0.032  0.048
   18  0.063  0.002  0.006  0.071
   19  0.010  0.001  0.027  0.038
   20  0.000  0.001  0.014  0.015
   21  0.000  0.002  0.011  0.013
   22  0.009  0.003  0.017  0.029
   23  0.000  0.002  0.011  0.013
   24  0.040  0.001  0.011  0.052
   25  0.038  0.002  0.003  0.043
   26  0.008  0.001  0.028  0.037
   27  0.010  0.003  0.017  0.030
   28  0.000  0.000  0.006  0.007
   29  0.000  0.000  0.002  0.003
   30  0.003  0.001  0.002  0.005
   31  0.000  0.000  0.002  0.002
   32  0.005  0.001  0.003  0.008
   33  0.002  0.001  0.002  0.005
   34  0.005  0.001  0.003  0.008
   35  0.000  0.001  0.004  0.005
   36  0.000  0.000  0.002  0.002
   37  0.000  0.001  0.000  0.001
tot    0.298  0.042  0.354  0.694
 
band    11 # energy   -5.93438342 # occ.  2.00000000
 
ion      s      p      d    tot
    1  0.000  0.001  0.003  0.004
    2  0.005  0.001  0.003  0.009
    3  0.000  0.000  0.003  0.004
    4  0.004  0.001  0.003  0.008
    5  0.000  0.000  0.005  0.005
    6  0.007  0.001  0.004  0.013
    7  0.000  0.000  0.003  0.004
    8  0.008  0.001  0.004  0.013
    9  0.000  0.001  0.011  0.012
   10  0.000  0.005  0.003  0.007
   11  0.008  0.001  0.012  0.022
   12  0.016  0.001  0.013  0.030
   13  0.009  0.001  0.011  0.021
   14  0.000  0.001  0.027  0.028
   15  0.046  0.001  0.016  0.063
   16  0.015  0.001  0.012  0.029
   17  0.048  0.001  0.014  0.064
   18  0.000  0.001  0.040  0.041
   19  0.028  0.002  0.012  0.041
   20  0.000  0.002  0.010  0.012
   21  0.000  0.001  0.014  0.015
   22  0.030  0.001  0.013  0.045
   23  0.000  0.001  0.013  0.015
   24  0.000  0.004  0.018  0.022
   25  0.000  0.000  0.036  0.036
   26  0.029  0.002  0.010  0.041
   27  0.029  0.002  0.014  0.044
   28  0.000  0.000  0.006  0.007
   29  0.005  0.001  0.002  0.008
   30  0.003  0.000  0.003  0.006
   31  0.005  0.001  0.002  0.008
   32  0.000  0.000  0.002  0.002
   33  0.003  0.001  0.003  0.006
   34  0.000  0.000  0.002  0.002
   35  0.000  0.001  0.004  0.005
   36  0.000  0.000  0.002  0.002
   37  0.000  0.001  0.000  0.001
tot    0.298  0.042  0.354  0.694
 
band    12 # energy   -5.62742603 # occ.  2.00000000
 
ion      s      p      d    tot
    1  0.000  0.000  0.001  0.001
    2  0.000  0.001  0.007  0.007
    3  0.000  0.001  0.007  0.007
    4  0.000  0.001  0.007  0.007
    5  0.010  0.001  0.000  0.010
    6  0.000  0.001  0.007  0.007
    7  0.000  0.001  0.007  0.007
    8  0.000  0.001  0.007  0.007
    9  0.013  0.002  0.002  0.016
   10  0.003  0.000  0.034  0.037
   11  0.007  0.002  0.005  0.014
   12  0.003  0.000  0.034  0.037
   13  0.007  0.002  0.005  0.014
   14  0.007  0.002  0.005  0.014
   15  0.023  0.002  0.014  0.039
   16  0.003  0.000  0.034  0.037
   17  0.023  0.002  0.014  0.039
   18  0.023  0.002  0.014  0.039
   19  0.010  0.001  0.010  0.021
   20  0.000  0.004  0.026  0.030
   21  0.000  0.004  0.026  0.030
   22  0.000  0.001  0.026  0.027
   23  0.000  0.004  0.026  0.030
   24  0.000  0.001  0.026  0.027
   25  0.010  0.001  0.010  0.021
   26  0.010  0.001  0.010  0.021
   27  0.000  0.001  0.026  0.027
   28  0.001  0.001  0.002  0.003
   29  0.000  0.000  0.004  0.004
   30  0.000  0.000  0.004  0.004
   31  0.000  0.000  0.004  0.004
   32  0.000  0.000  0.004  0.004
   33  0.000  0.000  0.004  0.004
   34  0.000  0.000  0.004  0.004
   35  0.000  0.000  0.000  0.001
   36  0.038  0.000  0.039  0.078
   37  0.009  0.066  0.000  0.075
tot    0.200  0.104  0.458  0.762
 
band    13 # energy   -5.53187972 # occ.  2.00000000
 
ion      s      p      d    tot
    1  0.000  0.001  0.005  0.005
    2  0.001  0.001  0.005  0.007
    3  0.010  0.002  0.005  0.016
    4  0.001  0.001  0.005  0.007
    5  0.000  0.002  0.010  0.011
    6  0.004  0.001  0.004  0.009
    7  0.010  0.002  0.005  0.016
    8  0.004  0.001  0.004  0.008
    9  0.000  0.000  0.009  0.009
   10  0.000  0.001  0.049  0.049
   11  0.020  0.001  0.019  0.040
   12  0.007  0.001  0.019  0.028
   13  0.020  0.001  0.019  0.040
   14  0.000  0.000  0.049  0.049
   15  0.002  0.000  0.019  0.022
   16  0.007  0.001  0.019  0.028
   17  0.002  0.000  0.019  0.022
   18  0.000  0.001  0.013  0.014
   19  0.002  0.000  0.015  0.017
   20  0.000  0.000  0.077  0.077
   21  0.013  0.001  0.023  0.038
   22  0.004  0.001  0.018  0.023
   23  0.013  0.001  0.023  0.038
   24  0.000  0.000  0.031  0.032
   25  0.000  0.001  0.008  0.009
   26  0.002  0.000  0.015  0.017
   27  0.004  0.001  0.018  0.023
   28  0.000  0.000  0.005  0.005
   29  0.004  0.001  0.004  0.009
   30  0.006  0.001  0.007  0.014
   31  0.004  0.001  0.004  0.009
   32  0.000  0.000  0.004  0.004
   33  0.006  0.001  0.007  0.014
   34  0.000  0.000  0.004  0.004
   35  0.000  0.000  0.002  0.002
   36  0.000  0.002  0.029  0.030
   37  0.000  0.007  0.000  0.007
tot    0.148  0.036  0.571  0.755
 
band    14 # energy   -5.53185268 # occ.  2.00000000
 
ion      s      p      d    tot
    1  0.000  0.001  0.005  0.005
    2  0.009  0.001  0.004  0.014
    3  0.000  0.000  0.004  0.005
    4  0.009  0.001  0.004  0.014
    5  0.000  0.002  0.010  0.011
    6  0.006  0.001  0.005  0.013
    7  0.000  0.000  0.004  0.005
    8  0.006  0.001  0.005  0.013
    9  0.000  0.000  0.009  0.009
   10  0.010  0.002  0.009  0.021
   11  0.007  0.000  0.039  0.046
   12  0.002  0.001  0.039  0.042
   13  0.007  0.000  0.039  0.046
   14  0.026  0.001  0.009  0.037
   15  0.001  0.001  0.015  0.017
   16  0.002  0.001  0.039  0.042
   17  0.001  0.001  0.015  0.017
   18  0.003  0.000  0.022  0.024
   19  0.001  0.001  0.011  0.012
   20  0.018  0.001  0.006  0.025
   21  0.004  0.000  0.059  0.064
   22  0.001  0.001  0.027  0.029
   23  0.004  0.000  0.059  0.064
   24  0.005  0.001  0.013  0.020
   25  0.002  0.000  0.018  0.020
   26  0.001  0.001  0.011  0.012
   27  0.001  0.001  0.027  0.029
   28  0.000  0.000  0.005  0.005
   29  0.003  0.001  0.005  0.009
   30  0.001  0.000  0.003  0.004
   31  0.003  0.001  0.005  0.009
   32  0.006  0.001  0.006  0.014
   33  0.001  0.000  0.003  0.004
   34  0.006  0.001  0.006  0.014
   35  0.000  0.000  0.002  0.002
   36  0.000  0.002  0.029  0.030
   37  0.000  0.007  0.000  0.007
tot    0.148  0.036  0.571  0.755
 
band    15 # energy   -5.51315053 # occ.  2.00000000
 
ion      s      p      d    tot
    1  0.016  0.002  0.002  0.020
    2  0.000  0.001  0.007  0.008
    3  0.000  0.001  0.007  0.008
    4  0.000  0.001  0.007  0.008
    5  0.000  0.000  0.002  0.002
    6  0.000  0.001  0.007  0.008
    7  0.000  0.001  0.007  0.008
    8  0.000  0.001  0.007  0.008
    9  0.013  0.001  0.000  0.014
   10  0.010  0.001  0.011  0.023
   11  0.004  0.000  0.041  0.045
   12  0.010  0.001  0.011  0.023
   13  0.004  0.000  0.041  0.045
   14  0.004  0.000  0.041  0.045
   15  0.002  0.001  0.025  0.028
   16  0.010  0.001  0.011  0.023
   17  0.002  0.001  0.025  0.028
   18  0.002  0.001  0.025  0.028
   19  0.005  0.001  0.008  0.014
   20  0.000  0.000  0.050  0.051
   21  0.000  0.000  0.050  0.051
   22  0.011  0.001  0.026  0.037
   23  0.000  0.000  0.050  0.051
   24  0.011  0.001  0.026  0.037
   25  0.005  0.001  0.008  0.014
   26  0.005  0.001  0.008  0.014
   27  0.011  0.001  0.026  0.037
   28  0.017  0.001  0.000  0.018
   29  0.000  0.001  0.007  0.008
   30  0.000  0.001  0.007  0.008
   31  0.000  0.001  0.007  0.008
   32  0.000  0.001  0.007  0.008
   33  0.000  0.001  0.007  0.008
   34  0.000  0.001  0.007  0.008
   35  0.002  0.001  0.005  0.008
   36  0.001  0.000  0.005  0.006
   37  0.000  0.002  0.000  0.002
tot    0.144  0.028  0.586  0.758
 
band    16 # energy   -5.45206690 # occ.  2.00000000
 
ion      s      p      d    tot
    1  0.000  0.001  0.014  0.014
    2  0.009  0.001  0.004  0.014
    3  0.000  0.000  0.005  0.006
    4  0.009  0.001  0.004  0.014
    5  0.000  0.000  0.006  0.006
    6  0.005  0.001  0.005  0.011
    7  0.000  0.000  0.005  0.006
    8  0.005  0.001  0.005  0.011
    9  0.000  0.001  0.005  0.006
   10  0.000  0.000  0.035  0.036
   11  0.000  0.001  0.020  0.021
   12  0.010  0.000  0.021  0.031
   13  0.000  0.001  0.020  0.021
   14  0.000  0.001  0.015  0.016
   15  0.010  0.002  0.019  0.031
   16  0.010  0.000  0.021  0.031
   17  0.010  0.002  0.019  0.031
   18  0.000  0.000  0.060  0.060
   19  0.015  0.001  0.020  0.036
   20  0.000  0.002  0.024  0.025
   21  0.000  0.001  0.024  0.024
   22  0.015  0.001  0.021  0.036
   23  0.000  0.001  0.024  0.024
   24  0.000  0.001  0.027  0.028
   25  0.000  0.000  0.066  0.066
   26  0.015  0.001  0.020  0.036
   27  0.015  0.001  0.021  0.036
   28  0.000  0.001  0.006  0.007
   29  0.005  0.001  0.004  0.010
   30  0.000  0.000  0.005  0.005
   31  0.005  0.001  0.004  0.010
   32  0.006  0.001  0.003  0.010
   33  0.000  0.000  0.005  0.005
   34  0.006  0.001  0.003  0.010
   35  0.000  0.001  0.008  0.009
   36  0.000  0.000  0.003  0.003
   37  0.000  0.000  0.000  0.000
tot    0.151  0.029  0.569  0.750
 
band    17 # energy   -5.45204981 # occ.  2.00000000
 
ion      s      p      d    tot
    1  0.000  0.001  0.014  0.014
    2  0.001  0.001  0.005  0.007
    3  0.009  0.001  0.004  0.015
    4  0.001  0.001  0.005  0.007
    5  0.000  0.000  0.006  0.006
    6  0.004  0.001  0.004  0.009
    7  0.009  0.001  0.004  0.015
    8  0.004  0.001  0.004  0.009
    9  0.000  0.001  0.005  0.006
   10  0.013  0.000  0.016  0.030
   11  0.000  0.001  0.016  0.018
   12  0.003  0.000  0.031  0.034
   13  0.000  0.001  0.016  0.018
   14  0.000  0.001  0.022  0.022
   15  0.003  0.001  0.046  0.050
   16  0.003  0.000  0.031  0.034
   17  0.003  0.001  0.046  0.050
   18  0.013  0.002  0.006  0.022
   19  0.005  0.001  0.051  0.056
   20  0.000  0.000  0.024  0.024
   21  0.000  0.001  0.024  0.025
   22  0.005  0.001  0.025  0.031
   23  0.000  0.001  0.024  0.025
   24  0.020  0.001  0.019  0.039
   25  0.021  0.001  0.004  0.026
   26  0.005  0.001  0.051  0.056
   27  0.005  0.001  0.025  0.031
   28  0.000  0.001  0.006  0.007
   29  0.002  0.000  0.004  0.007
   30  0.007  0.001  0.003  0.011
   31  0.002  0.000  0.004  0.007
   32  0.001  0.001  0.005  0.007
   33  0.007  0.001  0.003  0.011
   34  0.001  0.001  0.005  0.007
   35  0.000  0.001  0.008  0.009
   36  0.000  0.000  0.003  0.003
   37  0.000  0.000  0.000  0.000
tot    0.151  0.029  0.569  0.750
 
band    18 # energy   -5.26046998 # occ.  2.00000000
 
ion      s      p      d    tot
    1  0.002  0.000  0.000  0.003
    2  0.000  0.000  0.004  0.005
    3  0.000  0.000  0.004  0.005
    4  0.000  0.000  0.004  0.005
    5  0.012  0.001  0.002  0.016
    6  0.000  0.000  0.004  0.005
    7  0.000  0.000  0.004  0.005
    8  0.000  0.000  0.004  0.005
    9  0.002  0.000  0.002  0.004
   10  0.000  0.000  0.010  0.010
   11  0.000  0.001  0.043  0.044
   12  0.000  0.000  0.010  0.010
   13  0.000  0.001  0.043  0.044
   14  0.000  0.001  0.043  0.044
   15  0.000  0.000  0.015  0.015
   16  0.000  0.000  0.010  0.010
   17  0.000  0.000  0.015  0.015
   18  0.000  0.000  0.015  0.015
   19  0.000  0.000  0.018  0.019
   20  0.008  0.000  0.032  0.040
   21  0.008  0.000  0.032  0.040
   22  0.002  0.001  0.027  0.030
   23  0.008  0.000  0.032  0.040
   24  0.002  0.001  0.027  0.029
   25  0.000  0.000  0.018  0.019
   26  0.000  0.000  0.018  0.019
   27  0.002  0.001  0.027  0.030
   28  0.000  0.000  0.000  0.000
   29  0.000  0.001  0.013  0.014
   30  0.000  0.001  0.013  0.014
   31  0.000  0.001  0.013  0.014
   32  0.000  0.001  0.013  0.014
   33  0.000  0.001  0.013  0.014
   34  0.000  0.001  0.013  0.014
   35  0.020  0.001  0.002  0.023
   36  0.003  0.002  0.087  0.092
   37  0.008  0.093  0.000  0.101
tot    0.080  0.113  0.633  0.825
 
band    19 # energy   -5.15106090 # occ.  2.00000000
 
ion      s      p      d    tot
    1  0.000  0.000  0.009  0.009
    2  0.001  0.000  0.006  0.007
    3  0.002  0.000  0.008  0.010
    4  0.001  0.000  0.006  0.007
    5  0.000  0.001  0.014  0.015
    6  0.005  0.000  0.005  0.010
    7  0.002  0.000  0.008  0.010
    8  0.005  0.000  0.005  0.010
    9  0.000  0.000  0.001  0.002
   10  0.000  0.001  0.028  0.028
   11  0.000  0.000  0.054  0.054
   12  0.000  0.000  0.011  0.011
   13  0.000  0.000  0.054  0.054
   14  0.000  0.000  0.045  0.046
   15  0.000  0.000  0.021  0.022
   16  0.000  0.000  0.011  0.011
   17  0.000  0.000  0.021  0.022
   18  0.000  0.000  0.028  0.028
   19  0.000  0.000  0.006  0.006
   20  0.001  0.000  0.103  0.103
   21  0.000  0.000  0.059  0.059
   22  0.000  0.000  0.038  0.039
   23  0.000  0.000  0.059  0.059
   24  0.001  0.000  0.019  0.021
   25  0.000  0.000  0.013  0.014
   26  0.000  0.000  0.006  0.006
   27  0.000  0.000  0.038  0.039
   28  0.000  0.000  0.000  0.000
   29  0.000  0.000  0.010  0.010
   30  0.000  0.000  0.006  0.006
   31  0.000  0.000  0.010  0.010
   32  0.000  0.000  0.007  0.008
   33  0.000  0.000  0.006  0.006
   34  0.000  0.000  0.007  0.008
   35  0.000  0.000  0.002  0.002
   36  0.000  0.000  0.066  0.066
   37  0.000  0.035  0.000  0.035
tot    0.020  0.042  0.791  0.853
 
band    20 # energy   -5.15102307 # occ.  2.00000000
 
ion      s      p      d    tot
    1  0.000  0.000  0.009  0.009
    2  0.004  0.000  0.007  0.011
    3  0.003  0.001  0.004  0.008
    4  0.004  0.000  0.007  0.011
    5  0.000  0.001  0.014  0.015
    6  0.000  0.000  0.008  0.008
    7  0.003  0.001  0.004  0.008
    8  0.000  0.000  0.008  0.008
    9  0.000  0.000  0.001  0.002
   10  0.000  0.000  0.005  0.005
   11  0.000  0.000  0.048  0.049
   12  0.000  0.000  0.022  0.022
   13  0.000  0.000  0.048  0.049
   14  0.000  0.000  0.057  0.057
   15  0.000  0.000  0.026  0.026
   16  0.000  0.000  0.022  0.022
   17  0.000  0.000  0.026  0.026
   18  0.000  0.000  0.019  0.019
   19  0.000  0.000  0.011  0.011
   20  0.000  0.000  0.045  0.045
   21  0.000  0.000  0.088  0.088
   22  0.001  0.000  0.025  0.027
   23  0.000  0.000  0.088  0.088
   24  0.000  0.000  0.044  0.044
   25  0.000  0.000  0.003  0.004
   26  0.000  0.000  0.011  0.011
   27  0.001  0.000  0.026  0.027
   28  0.000  0.000  0.000  0.000
   29  0.000  0.000  0.005  0.006
   30  0.000  0.000  0.009  0.010
   31  0.000  0.000  0.005  0.006
   32  0.000  0.000  0.008  0.008
   33  0.000  0.000  0.009  0.010
   34  0.000  0.000  0.008  0.008
   35  0.000  0.000  0.002  0.002
   36  0.000  0.000  0.066  0.066
   37  0.000  0.035  0.000  0.035
tot    0.020  0.042  0.791  0.853
 
band    21 # energy   -5.14706118 # occ.  2.00000000
 
ion      s      p      d    tot
    1  0.011  0.000  0.008  0.020
    2  0.000  0.001  0.021  0.022
    3  0.000  0.001  0.021  0.022
    4  0.000  0.001  0.021  0.022
    5  0.002  0.000  0.000  0.002
    6  0.000  0.001  0.021  0.022
    7  0.000  0.001  0.021  0.022
    8  0.000  0.001  0.021  0.022
    9  0.024  0.001  0.005  0.030
   10  0.001  0.001  0.022  0.023
   11  0.000  0.000  0.014  0.014
   12  0.001  0.001  0.022  0.023
   13  0.000  0.000  0.014  0.014
   14  0.000  0.000  0.014  0.014
   15  0.000  0.000  0.034  0.034
   16  0.001  0.001  0.022  0.023
   17  0.000  0.000  0.034  0.034
   18  0.000  0.000  0.034  0.034
   19  0.000  0.000  0.031  0.032
   20  0.000  0.000  0.032  0.033
   21  0.000  0.000  0.033  0.033
   22  0.000  0.000  0.024  0.025
   23  0.000  0.000  0.033  0.033
   24  0.000  0.000  0.024  0.025
   25  0.000  0.000  0.032  0.032
   26  0.000  0.000  0.031  0.032
   27  0.000  0.000  0.024  0.025
   28  0.004  0.000  0.012  0.016
   29  0.000  0.001  0.017  0.018
   30  0.000  0.001  0.017  0.018
   31  0.000  0.001  0.017  0.018
   32  0.000  0.001  0.017  0.018
   33  0.000  0.001  0.017  0.018
   34  0.000  0.001  0.017  0.018
   35  0.009  0.000  0.000  0.009
   36  0.020  0.000  0.004  0.024