PROCAR new format
# of k-points:   10         # of bands:  252         # of ions:   38

 k-point     1 :    0.00000000 0.00000000 0.00000000     weight = 0.01562500

band     1 # energy  -22.55562088 # occ.  2.00000000
 
ion      s      p      d    tot
    1  0.000  0.000  0.000  0.000
    2  0.000  0.000  0.000  0.000
    3  0.000  0.000  0.000  0.000
    4  0.000  0.000  0.000  0.000
    5  0.000  0.000  0.000  0.000
    6  0.000  0.000  0.000  0.000
    7  0.000  0.000  0.000  0.000
    8  0.000  0.000  0.000  0.000
    9  0.000  0.000  0.000  0.000
   10  0.000  0.000  0.000  0.000
   11  0.000  0.000  0.000  0.000
   12  0.000  0.000  0.000  0.000
   13  0.000  0.000  0.000  0.000
   14  0.000  0.000  0.000  0.000
   15  0.000  0.000  0.000  0.000
   16  0.000  0.000  0.000  0.000
   17  0.000  0.000  0.000  0.000
   18  0.000  0.000  0.000  0.000
   19  0.000  0.000  0.000  0.000
   20  0.000  0.000  0.000  0.000
   21  0.000  0.000  0.000  0.000
   22  0.000  0.000  0.000  0.000
   23  0.000  0.000  0.000  0.000
   24  0.000  0.000  0.000  0.000
   25  0.000  0.000  0.000  0.000
   26  0.000  0.000  0.000  0.000
   27  0.000  0.000  0.000  0.000
   28  0.000  0.000  0.000  0.000
   29  0.000  0.000  0.000  0.000
   30  0.000  0.000  0.000  0.000
   31  0.000  0.000  0.000  0.000
   32  0.000  0.000  0.000  0.000
   33  0.000  0.000  0.000  0.000
   34  0.000  0.000  0.000  0.000
   35  0.000  0.000  0.000  0.000
   36  0.000  0.000  0.000  0.000
   37  0.155  0.111  0.000  0.266
   38  0.637  0.092  0.000  0.728
tot    0.791  0.203  0.000  0.994
 
band     2 # energy   -8.87586113 # occ.  2.00000000
 
ion      s      p      d    tot
    1  0.005  0.001  0.000  0.005
    2  0.004  0.001  0.000  0.005
    3  0.004  0.001  0.000  0.005
    4  0.004  0.001  0.000  0.005
    5  0.005  0.001  0.000  0.005
    6  0.004  0.001  0.000  0.005
    7  0.004  0.001  0.000  0.005
    8  0.004  0.001  0.000  0.005
    9  0.004  0.001  0.000  0.005
   10  0.018  0.000  0.000  0.018
   11  0.018  0.000  0.000  0.018
   12  0.018  0.000  0.000  0.018
   13  0.018  0.000  0.000  0.018
   14  0.018  0.000  0.000  0.018
   15  0.017  0.000  0.000  0.018
   16  0.018  0.000  0.000  0.018
   17  0.017  0.000  0.000  0.018
   18  0.017  0.000  0.000  0.018
   19  0.020  0.000  0.000  0.020
   20  0.023  0.000  0.000  0.023
   21  0.023  0.000  0.000  0.023
   22  0.020  0.000  0.000  0.020
   23  0.023  0.000  0.000  0.023
   24  0.020  0.000  0.000  0.020
   25  0.020  0.000  0.000  0.020
   26  0.020  0.000  0.000  0.020
   27  0.020  0.000  0.000  0.020
   28  0.006  0.001  0.000  0.007
   29  0.008  0.001  0.000  0.009
   30  0.008  0.001  0.000  0.009
   31  0.008  0.001  0.000  0.009
   32  0.008  0.001  0.000  0.009
   33  0.008  0.001  0.000  0.009
   34  0.008  0.001  0.000  0.009
   35  0.006  0.001  0.000  0.007
   36  0.025  0.002  0.008  0.035
   37  0.055  0.004  0.000  0.058
   38  0.024  0.027  0.000  0.050
tot    0.554  0.043  0.009  0.606
 
band     3 # energy   -8.50020560 # occ.  2.00000000
 
ion      s      p      d    tot
    1  0.003  0.000  0.000  0.004
    2  0.003  0.000  0.000  0.004
    3  0.003  0.000  0.000  0.004
    4  0.003  0.000  0.000  0.004
    5  0.003  0.000  0.000  0.003
    6  0.003  0.000  0.000  0.004
    7  0.003  0.000  0.000  0.004
    8  0.003  0.000  0.000  0.004
    9  0.003  0.000  0.000  0.004
   10  0.009  0.000  0.000  0.009
   11  0.008  0.000  0.000  0.008
   12  0.009  0.000  0.000  0.009
   13  0.008  0.000  0.000  0.008
   14  0.008  0.000  0.000  0.008
   15  0.009  0.000  0.000  0.009
   16  0.009  0.000  0.000  0.009
   17  0.009  0.000  0.000  0.009
   18  0.009  0.000  0.000  0.009
   19  0.004  0.000  0.000  0.004
   20  0.002  0.001  0.000  0.003
   21  0.002  0.001  0.000  0.003
   22  0.004  0.000  0.000  0.004
   23  0.002  0.001  0.000  0.003
   24  0.004  0.000  0.000  0.004
   25  0.004  0.000  0.000  0.004
   26  0.004  0.000  0.000  0.004
   27  0.004  0.000  0.000  0.004
   28  0.000  0.000  0.000  0.000
   29  0.000  0.001  0.000  0.001
   30  0.000  0.001  0.000  0.001
   31  0.000  0.001  0.000  0.001
   32  0.000  0.001  0.000  0.001
   33  0.000  0.001  0.000  0.001
   34  0.000  0.001  0.000  0.001
   35  0.000  0.000  0.000  0.000
   36  0.025  0.018  0.027  0.070
   37  0.217  0.005  0.000  0.222
   38  0.107  0.158  0.000  0.265
tot    0.485  0.191  0.031  0.706
 
band     4 # energy   -7.44336171 # occ.  2.00000000
 
ion      s      p      d    tot
    1  0.017  0.001  0.001  0.019
    2  0.017  0.001  0.001  0.019
    3  0.017  0.001  0.001  0.019
    4  0.017  0.001  0.001  0.019
    5  0.017  0.001  0.001  0.019
    6  0.017  0.001  0.001  0.019
    7  0.017  0.001  0.001  0.019
    8  0.017  0.001  0.001  0.019
    9  0.017  0.001  0.001  0.019
   10  0.008  0.002  0.000  0.011
   11  0.008  0.002  0.000  0.011
   12  0.008  0.002  0.000  0.011
   13  0.008  0.002  0.000  0.011
   14  0.008  0.002  0.000  0.011
   15  0.008  0.002  0.001  0.011
   16  0.008  0.002  0.000  0.011
   17  0.008  0.002  0.001  0.011
   18  0.008  0.002  0.001  0.011
   19  0.012  0.002  0.001  0.015
   20  0.010  0.002  0.001  0.013
   21  0.010  0.002  0.001  0.013
   22  0.012  0.002  0.001  0.014
   23  0.010  0.002  0.001  0.013
   24  0.012  0.002  0.001  0.014
   25  0.012  0.002  0.001  0.015
   26  0.012  0.002  0.001  0.015
   27  0.012  0.002  0.001  0.014
   28  0.018  0.001  0.000  0.019
   29  0.015  0.001  0.000  0.017
   30  0.015  0.001  0.000  0.017
   31  0.015  0.001  0.000  0.017
   32  0.015  0.001  0.000  0.017
   33  0.015  0.001  0.000  0.017
   34  0.015  0.001  0.000  0.017
   35  0.017  0.001  0.000  0.019
   36  0.007  0.002  0.001  0.010
   37  0.011  0.003  0.000  0.014
   38  0.011  0.035  0.000  0.046
tot    0.487  0.091  0.020  0.598
 
band     5 # energy   -6.01954068 # occ.  2.00000000
 
ion      s      p      d    tot
    1  0.005  0.000  0.002  0.007
    2  0.006  0.000  0.002  0.009
    3  0.006  0.000  0.002  0.009
    4  0.006  0.000  0.002  0.009
    5  0.014  0.000  0.001  0.015
    6  0.006  0.000  0.002  0.009
    7  0.006  0.000  0.002  0.009
    8  0.006  0.000  0.002  0.009
    9  0.003  0.000  0.003  0.006
   10  0.001  0.002  0.001  0.005
   11  0.000  0.002  0.001  0.004
   12  0.001  0.002  0.001  0.005
   13  0.000  0.002  0.001  0.004
   14  0.000  0.002  0.001  0.004
   15  0.006  0.002  0.001  0.009
   16  0.001  0.002  0.001  0.005
   17  0.006  0.002  0.001  0.009
   18  0.006  0.002  0.001  0.009
   19  0.009  0.001  0.003  0.013
   20  0.001  0.003  0.004  0.008
   21  0.001  0.003  0.004  0.008
   22  0.008  0.002  0.001  0.011
   23  0.001  0.003  0.004  0.008
   24  0.008  0.002  0.001  0.011
   25  0.009  0.001  0.003  0.013
   26  0.009  0.001  0.003  0.013
   27  0.008  0.002  0.001  0.011
   28  0.000  0.000  0.003  0.004
   29  0.005  0.001  0.003  0.009
   30  0.005  0.001  0.003  0.009
   31  0.005  0.001  0.003  0.009
   32  0.005  0.001  0.003  0.009
   33  0.005  0.001  0.003  0.009
   34  0.005  0.001  0.003  0.009
   35  0.000  0.001  0.002  0.003
   36  0.059  0.007  0.025  0.091
   37  0.004  0.123  0.000  0.126
   38  0.020  0.201  0.000  0.221
tot    0.249  0.377  0.101  0.727
 
band     6 # energy   -5.84075797 # occ.  2.00000000
 
ion      s      p      d    tot
    1  0.011  0.000  0.003  0.014
    2  0.007  0.001  0.005  0.013
    3  0.007  0.001  0.005  0.013
    4  0.007  0.001  0.005  0.013
    5  0.000  0.002  0.005  0.008
    6  0.007  0.001  0.005  0.013
    7  0.007  0.001  0.005  0.013
    8  0.007  0.001  0.005  0.013
    9  0.025  0.001  0.001  0.027
   10  0.001  0.003  0.006  0.010
   11  0.027  0.008  0.001  0.035
   12  0.001  0.003  0.006  0.010
   13  0.027  0.008  0.001  0.035
   14  0.027  0.008  0.001  0.036
   15  0.004  0.001  0.009  0.014
   16  0.001  0.003  0.006  0.010
   17  0.004  0.001  0.009  0.014
   18  0.004  0.001  0.009  0.014
   19  0.001  0.001  0.009  0.011
   20  0.031  0.007  0.002  0.040
   21  0.031  0.007  0.002  0.041
   22  0.001  0.005  0.004  0.011
   23  0.031  0.007  0.002  0.041
   24  0.001  0.005  0.004  0.011
   25  0.001  0.001  0.009  0.011
   26  0.001  0.001  0.009  0.011
   27  0.001  0.005  0.004  0.011
   28  0.018  0.000  0.001  0.019
   29  0.007  0.001  0.005  0.013
   30  0.007  0.001  0.005  0.013
   31  0.007  0.001  0.005  0.013
   32  0.007  0.001  0.005  0.013
   33  0.007  0.001  0.005  0.013
   34  0.007  0.001  0.005  0.013
   35  0.024  0.001  0.002  0.026
   36  0.003  0.001  0.010  0.014
   37  0.000  0.002  0.000  0.002
   38  0.000  0.002  0.000  0.002
tot    0.363  0.097  0.175  0.635
 
band     7 # energy   -5.82016594 # occ.  2.00000000
 
ion      s      p      d    tot
    1  0.000  0.002  0.005  0.007
    2  0.009  0.002  0.002  0.013
    3  0.000  0.001  0.002  0.003
    4  0.008  0.002  0.002  0.012
    5  0.000  0.003  0.004  0.007
    6  0.005  0.002  0.002  0.009
    7  0.001  0.001  0.002  0.003
    8  0.006  0.002  0.002  0.010
    9  0.000  0.000  0.002  0.002
   10  0.048  0.005  0.003  0.056
   11  0.013  0.008  0.006  0.026
   12  0.010  0.001  0.013  0.024
   13  0.008  0.009  0.006  0.023
   14  0.041  0.001  0.006  0.048
   15  0.000  0.006  0.005  0.011
   16  0.015  0.002  0.012  0.028
   17  0.000  0.007  0.005  0.012
   18  0.000  0.002  0.004  0.006
   19  0.004  0.009  0.003  0.016
   20  0.063  0.003  0.005  0.072
   21  0.012  0.004  0.012  0.029
   22  0.004  0.003  0.011  0.017
   23  0.019  0.004  0.011  0.035
   24  0.019  0.004  0.002  0.025
   25  0.012  0.000  0.006  0.019
   26  0.002  0.011  0.002  0.015
   27  0.006  0.003  0.010  0.018
   28  0.000  0.002  0.003  0.005
   29  0.011  0.003  0.002  0.016
   30  0.001  0.001  0.002  0.004
   31  0.011  0.002  0.002  0.016
   32  0.005  0.001  0.002  0.008
   33  0.002  0.001  0.002  0.005
   34  0.006  0.002  0.002  0.009
   35  0.000  0.000  0.004  0.004
   36  0.000  0.005  0.002  0.007
   37  0.000  0.005  0.000  0.005
   38  0.000  0.012  0.000  0.012
tot    0.340  0.131  0.167  0.637
 
band     8 # energy   -5.82014893 # occ.  2.00000000
 
ion      s      p      d    tot
    1  0.000  0.002  0.005  0.007
    2  0.001  0.001  0.002  0.004
    3  0.009  0.002  0.002  0.014
    4  0.001  0.001  0.002  0.005
    5  0.000  0.003  0.004  0.007
    6  0.005  0.002  0.002  0.008
    7  0.009  0.002  0.002  0.014
    8  0.003  0.001  0.002  0.007
    9  0.000  0.000  0.002  0.002
   10  0.000  0.000  0.016  0.016
   11  0.028  0.004  0.006  0.039
   12  0.039  0.004  0.005  0.048
   13  0.033  0.003  0.006  0.042
   14  0.000  0.011  0.005  0.017
   15  0.000  0.004  0.004  0.008
   16  0.034  0.003  0.007  0.044
   17  0.000  0.003  0.004  0.007
   18  0.000  0.008  0.005  0.014
   19  0.009  0.004  0.005  0.018
   20  0.000  0.005  0.014  0.018
   21  0.051  0.004  0.007  0.061
   22  0.015  0.004  0.004  0.023
   23  0.044  0.004  0.008  0.055
   24  0.000  0.002  0.013  0.015
   25  0.000  0.013  0.001  0.015
   26  0.010  0.003  0.005  0.018
   27  0.013  0.003  0.006  0.022
   28  0.000  0.002  0.003  0.005
   29  0.000  0.001  0.002  0.003
   30  0.011  0.002  0.002  0.016
   31  0.001  0.001  0.002  0.004
   32  0.007  0.002  0.003  0.012
   33  0.010  0.002  0.002  0.014
   34  0.006  0.002  0.003  0.010
   35  0.000  0.000  0.004  0.004
   36  0.000  0.005  0.002  0.007
   37  0.000  0.005  0.000  0.005
   38  0.000  0.012  0.000  0.012
tot    0.340  0.130  0.167  0.637
 
band     9 # energy   -5.79941118 # occ.  2.00000000
 
ion      s      p      d    tot
    1  0.021  0.003  0.001  0.025
    2  0.000  0.002  0.004  0.006
    3  0.000  0.002  0.004  0.006
    4  0.000  0.002  0.004  0.006
    5  0.001  0.000  0.000  0.002
    6  0.000  0.002  0.004  0.006
    7  0.000  0.002  0.004  0.006
    8  0.000  0.002  0.004  0.006
    9  0.010  0.002  0.000  0.012
   10  0.031  0.006  0.006  0.042
   11  0.005  0.000  0.012  0.017
   12  0.031  0.006  0.006  0.042
   13  0.005  0.000  0.012  0.017
   14  0.005  0.000  0.012  0.017
   15  0.012  0.008  0.003  0.023
   16  0.031  0.006  0.006  0.042
   17  0.012  0.008  0.003  0.023
   18  0.012  0.008  0.003  0.024
   19  0.023  0.009  0.002  0.034
   20  0.000  0.002  0.010  0.013
   21  0.000  0.002  0.010  0.013
   22  0.024  0.002  0.009  0.036
   23  0.000  0.002  0.010  0.013
   24  0.024  0.002  0.009  0.035
   25  0.022  0.009  0.002  0.034
   26  0.023  0.009  0.002  0.034
   27  0.024  0.002  0.009  0.036
   28  0.018  0.003  0.001  0.021
   29  0.000  0.002  0.004  0.006
   30  0.000  0.002  0.004  0.006
   31  0.000  0.002  0.004  0.006
   32  0.000  0.002  0.004  0.006
   33  0.000  0.002  0.004  0.006
   34  0.000  0.002  0.004  0.006
   35  0.013  0.002  0.001  0.016
   36  0.000  0.000  0.000  0.000
   37  0.000  0.000  0.000  0.000
   38  0.000  0.000  0.000  0.000
tot    0.345  0.115  0.179  0.639
 
band    10 # energy   -5.79308682 # occ.  2.00000000
 
ion      s      p      d    tot
    1  0.000  0.002  0.003  0.005
    2  0.009  0.002  0.002  0.014
    3  0.000  0.001  0.002  0.003
    4  0.009  0.002  0.002  0.013
    5  0.000  0.000  0.004  0.004
    6  0.006  0.002  0.002  0.010
    7  0.000  0.001  0.002  0.003
    8  0.007  0.002  0.003  0.011
    9  0.000  0.003  0.006  0.009
   10  0.000  0.013  0.002  0.015
   11  0.013  0.003  0.005  0.022
   12  0.011  0.003  0.006  0.019
   13  0.014  0.004  0.005  0.022
   14  0.000  0.003  0.013  0.015
   15  0.044  0.004  0.007  0.055
   16  0.010  0.004  0.005  0.019
   17  0.049  0.004  0.006  0.059
   18  0.000  0.004  0.014  0.018
   19  0.036  0.003  0.007  0.046
   20  0.000  0.009  0.006  0.015
   21  0.000  0.003  0.005  0.008
   22  0.033  0.003  0.006  0.043
   23  0.000  0.004  0.005  0.009
   24  0.000  0.011  0.005  0.016
   25  0.000  0.000  0.017  0.017
   26  0.039  0.004  0.006  0.049
   27  0.030  0.004  0.006  0.040
   28  0.000  0.002  0.005  0.007
   29  0.010  0.002  0.003  0.015
   30  0.001  0.001  0.002  0.004
   31  0.010  0.002  0.003  0.015
   32  0.003  0.001  0.002  0.007
   33  0.002  0.001  0.002  0.005
   34  0.004  0.002  0.002  0.008
   35  0.000  0.003  0.004  0.007
   36  0.000  0.000  0.002  0.002
   37  0.000  0.002  0.000  0.002
   38  0.000  0.005  0.000  0.005
tot    0.341  0.121  0.176  0.638
 
band    11 # energy   -5.79307269 # occ.  2.00000000
 
ion      s      p      d    tot
    1  0.000  0.002  0.003  0.005
    2  0.001  0.001  0.002  0.004
    3  0.010  0.003  0.003  0.015
    4  0.002  0.001  0.002  0.005
    5  0.000  0.000  0.004  0.004
    6  0.005  0.002  0.002  0.008
    7  0.010  0.002  0.003  0.015
    8  0.004  0.001  0.002  0.007
    9  0.000  0.003  0.006  0.009
   10  0.013  0.000  0.007  0.020
   11  0.005  0.003  0.010  0.018
   12  0.003  0.011  0.003  0.016
   13  0.004  0.003  0.011  0.017
   14  0.018  0.004  0.002  0.024
   15  0.018  0.004  0.011  0.033
   16  0.004  0.010  0.003  0.017
   17  0.013  0.004  0.012  0.029
   18  0.062  0.004  0.004  0.070
   19  0.014  0.002  0.013  0.029
   20  0.000  0.002  0.005  0.007
   21  0.000  0.007  0.006  0.013
   22  0.009  0.009  0.006  0.023
   23  0.000  0.007  0.006  0.012
   24  0.042  0.001  0.006  0.050
   25  0.050  0.005  0.002  0.057
   26  0.011  0.001  0.014  0.026
   27  0.012  0.008  0.006  0.026
   28  0.000  0.002  0.005  0.007
   29  0.000  0.001  0.002  0.003
   30  0.009  0.002  0.002  0.013
   31  0.000  0.001  0.002  0.003
   32  0.007  0.002  0.003  0.011
   33  0.008  0.002  0.002  0.013
   34  0.006  0.002  0.003  0.010
   35  0.000  0.003  0.004  0.007
   36  0.000  0.000  0.002  0.002
   37  0.000  0.002  0.000  0.002
   38  0.000  0.005  0.000  0.005
tot    0.341  0.121  0.176  0.638
 
band    12 # energy   -5.61015827 # occ.  2.00000000
 
ion      s      p      d    tot
    1  0.000  0.000  0.000  0.000
    2  0.001  0.000  0.000  0.001
    3  0.000  0.000  0.000  0.000
    4  0.000  0.000  0.000  0.001
    5  0.000  0.000  0.001  0.001
    6  0.001  0.000  0.000  0.002
    7  0.000  0.000  0.000  0.000
    8  0.001  0.000  0.000  0.002
    9  0.000  0.000  0.000  0.000
   10  0.002  0.000  0.000  0.002
   11  0.001  0.000  0.001  0.002
   12  0.000  0.000  0.001  0.002
   13  0.001  0.000  0.001  0.002
   14  0.005  0.000  0.000  0.005
   15  0.000  0.001  0.000  0.001
   16  0.000  0.000  0.001  0.002
   17  0.000  0.001  0.000  0.001
   18  0.001  0.000  0.001  0.001
   19  0.000  0.000  0.001  0.001
   20  0.001  0.000  0.001  0.002
   21  0.000  0.000  0.001  0.001
   22  0.000  0.000  0.000  0.001
   23  0.000  0.000  0.001  0.001
   24  0.001  0.000  0.000  0.002
   25  0.000  0.000  0.000  0.000
   26  0.000  0.000  0.001  0.001
   27  0.000  0.000  0.000  0.001
   28  0.000  0.000  0.000  0.000
   29  0.002  0.001  0.002  0.004
   30  0.000  0.000  0.001  0.001
   31  0.002  0.001  0.002  0.004
   32  0.001  0.001  0.002  0.003
   33  0.000  0.000  0.001  0.001
   34  0.001  0.001  0.002  0.003
   35  0.000  0.000  0.001  0.001
   36  0.000  0.003  0.020  0.023
   37  0.000  0.168  0.000  0.168
   38  0.000  0.409  0.000  0.409
tot    0.024  0.590  0.042  0.656
 
band    13 # energy   -5.61007004 # occ.  2.00000000
 
ion      s      p      d    tot
    1  0.000  0.000  0.000  0.000
    2  0.001  0.000  0.000  0.001
    3  0.001  0.000  0.000  0.001
    4  0.001  0.000  0.000  0.001
    5  0.000  0.000  0.001  0.001
    6  0.000  0.000  0.000  0.000
    7  0.001  0.000  0.000  0.001
    8  0.000  0.000  0.000  0.000
    9  0.000  0.000  0.000  0.000
   10  0.000  0.000  0.001  0.001
   11  0.004  0.000  0.001  0.004
   12  0.001  0.000  0.000  0.002
   13  0.004  0.000  0.001  0.004
   14  0.000  0.000  0.001  0.001
   15  0.001  0.000  0.000  0.001
   16  0.001  0.000  0.000  0.002
   17  0.001  0.000  0.000  0.001
   18  0.000  0.001  0.000  0.001
   19  0.000  0.000  0.000  0.001
   20  0.000  0.000  0.001  0.001
   21  0.001  0.000  0.001  0.002
   22  0.001  0.000  0.000  0.002
   23  0.001  0.000  0.001  0.002
   24  0.000  0.000  0.001  0.001
   25  0.000  0.000  0.001  0.001
   26  0.000  0.000  0.000  0.001
   27  0.001  0.000  0.000  0.002
   28  0.000  0.000  0.000  0.000
   29  0.000  0.000  0.001  0.002
   30  0.002  0.001  0.002  0.005
   31  0.000  0.000  0.001  0.002
   32  0.001  0.000  0.001  0.002
   33  0.002  0.001  0.002  0.005
   34  0.001  0.000  0.001  0.002
   35  0.000  0.000  0.001  0.001
   36  0.000  0.003  0.020  0.023
   37  0.000  0.168  0.000  0.168
   38  0.000  0.409  0.000  0.409
tot    0.024  0.590  0.042  0.656
 
band    14 # energy   -5.50733848 # occ.  2.00000000
 
ion      s      p      d    tot
    1  0.000  0.001  0.003  0.004
    2  0.004  0.002  0.007  0.012
    3  0.004  0.002  0.007  0.012
    4  0.004  0.002  0.007  0.012
    5  0.039  0.002  0.001  0.042
    6  0.004  0.002  0.007  0.012
    7  0.004  0.002  0.007  0.012
    8  0.004  0.002  0.007  0.012
    9  0.001  0.002  0.006  0.008
   10  0.005  0.002  0.007  0.015
   11  0.006  0.005  0.006  0.017
   12  0.005  0.002  0.007  0.015
   13  0.006  0.005  0.006  0.017
   14  0.006  0.005  0.006  0.017
   15  0.022  0.001  0.009  0.032
   16  0.005  0.002  0.007  0.015
   17  0.022  0.001  0.009  0.032
   18  0.022  0.001  0.009  0.032
   19  0.000  0.003  0.001  0.005
   20  0.002  0.000  0.009  0.012
   21  0.002  0.000  0.009  0.012
   22  0.001  0.003  0.004  0.008
   23  0.002  0.000  0.009  0.012
   24  0.001  0.003  0.004  0.008
   25  0.000  0.003  0.001  0.005
   26  0.000  0.003  0.001  0.005
   27  0.001  0.003  0.004  0.008
   28  0.010  0.000  0.002  0.012
   29  0.004  0.001  0.003  0.008
   30  0.004  0.001  0.003  0.008
   31  0.004  0.001  0.003  0.008
   32  0.004  0.001  0.003  0.008
   33  0.004  0.001  0.003  0.008
   34  0.004  0.001  0.003  0.008
   35  0.007  0.000  0.002  0.008
   36  0.010  0.012  0.046  0.068
   37  0.012  0.082  0.000  0.094
   38  0.005  0.091  0.000  0.096
tot    0.242  0.248  0.229  0.718
 
band    15 # energy   -5.04017690 # occ.  2.00000000
 
ion      s      p      d    tot
    1  0.002  0.001  0.008  0.011
    2  0.004  0.001  0.009  0.013
    3  0.004  0.001  0.009  0.014
    4  0.004  0.001  0.009  0.013
    5  0.000  0.002  0.008  0.010
    6  0.004  0.001  0.009  0.013
    7  0.004  0.001  0.009  0.014
    8  0.004  0.001  0.009  0.013
    9  0.022  0.000  0.005  0.027
   10  0.008  0.000  0.024  0.032
   11  0.010  0.001  0.020  0.030
   12  0.008  0.000  0.024  0.032
   13  0.010  0.001  0.020  0.030
   14  0.010  0.001  0.020  0.030
   15  0.000  0.001  0.020  0.021
   16  0.008  0.000  0.024  0.032
   17  0.000  0.001  0.020  0.021
   18  0.000  0.001  0.020  0.021
   19  0.005  0.000  0.020  0.025
   20  0.013  0.001  0.025  0.039
   21  0.013  0.001  0.025  0.039
   22  0.001  0.001  0.022  0.024
   23  0.013  0.001  0.025  0.039
   24  0.001  0.001  0.022  0.024
   25  0.005  0.000  0.020  0.025
   26  0.005  0.000  0.020  0.025
   27  0.001  0.001  0.022  0.024
   28  0.002  0.001  0.007  0.009
   29  0.004  0.001  0.009  0.014
   30  0.004  0.001  0.009  0.014
   31  0.004  0.001  0.009  0.014
   32  0.004  0.001  0.009  0.014
   33  0.004  0.001  0.009  0.014
   34  0.004  0.001  0.009  0.014
   35  0.022  0.000  0.005  0.027
   36  0.000  0.002  0.006  0.008
   37  0.000  0.000  0.000  0.000
   38  0.000  0.000  0.000  0.000
tot    0.203  0.025  0.538  0.766
 
band    16 # energy   -5.03116249 # occ.  2.00000000
 
ion      s      p      d    tot
    1  0.039  0.003  0.000  0.042
    2  0.000  0.003  0.010  0.013
    3  0.000  0.003  0.010  0.013
    4  0.000  0.003  0.010  0.013
    5  0.000  0.000  0.001  0.002
    6  0.000  0.003  0.010  0.013
    7  0.000  0.003  0.010  0.013
    8  0.000  0.003  0.010  0.013
    9  0.021  0.003  0.002  0.026
   10  0.006  0.003  0.012  0.021
   11  0.003  0.000  0.015  0.019
   12  0.006  0.003  0.012  0.021
   13  0.003  0.000  0.015  0.019
   14  0.003  0.000  0.015  0.018
   15  0.008  0.003  0.018  0.028
   16  0.006  0.003  0.012  0.021
   17  0.008  0.003  0.018  0.028
   18  0.008  0.003  0.018  0.029
   19  0.004  0.004  0.018  0.025
   20  0.000  0.000  0.016  0.017
   21  0.000  0.000  0.016  0.017
   22  0.014  0.003  0.011  0.028
   23  0.000  0.000  0.016  0.017
   24  0.013  0.003  0.011  0.028
   25  0.004  0.004  0.018  0.025
   26  0.004  0.004  0.018  0.025
   27  0.014  0.003  0.011  0.028
   28  0.041  0.003  0.000  0.044
   29  0.000  0.003  0.010  0.013
   30  0.000  0.003  0.010  0.013
   31  0.000  0.003  0.010  0.013
   32  0.000  0.003  0.010  0.013
   33  0.000  0.003  0.010  0.013
   34  0.000  0.003  0.010  0.013
   35  0.019  0.003  0.003  0.025
   36  0.000  0.000  0.000  0.000
   37  0.000  0.000  0.000  0.000
   38  0.000  0.000  0.000  0.000
tot    0.225  0.086  0.399  0.710
 
band    17 # energy   -5.01949471 # occ.  2.00000000
 
ion      s      p      d    tot
    1  0.000  0.004  0.012  0.016
    2  0.003  0.002  0.005  0.010
    3  0.021  0.004  0.006  0.030
    4  0.003  0.002  0.005  0.010
    5  0.000  0.000  0.012  0.012
    6  0.008  0.002  0.005  0.016
    7  0.021  0.004  0.006  0.030
    8  0.009  0.002  0.005  0.016
    9  0.000  0.005  0.008  0.013
   10  0.008  0.001  0.006  0.015
   11  0.001  0.002  0.013  0.016
   12  0.002  0.003  0.022  0.026
   13  0.001  0.002  0.013  0.016
   14  0.003  0.002  0.010  0.015
   15  0.005  0.002  0.019  0.026
   16  0.002  0.003  0.022  0.027
   17  0.005  0.002  0.019  0.026
   18  0.021  0.006  0.007  0.033
   19  0.005  0.001  0.018  0.024
   20  0.001  0.001  0.010  0.012
   21  0.000  0.002  0.015  0.018
   22  0.003  0.003  0.021  0.027
   23  0.000  0.003  0.015  0.018
   24  0.014  0.002  0.005  0.021
   25  0.020  0.005  0.007  0.032
   26  0.005  0.001  0.018  0.024
   27  0.003  0.003  0.021  0.027
   28  0.000  0.004  0.008  0.012
   29  0.004  0.002  0.005  0.011
   30  0.021  0.004  0.005  0.029
   31  0.004  0.002  0.005  0.011
   32  0.006  0.002  0.006  0.015
   33  0.021  0.004  0.005  0.029
   34  0.007  0.002  0.006  0.015
   35  0.000  0.005  0.010  0.015
   36  0.000  0.000  0.007  0.007
   37  0.000  0.000  0.000  0.000
   38  0.000  0.000  0.000  0.000
tot    0.226  0.094  0.382  0.702
 
band    18 # energy   -5.01948649 # occ.  2.00000000
 
ion      s      p      d    tot
    1  0.000  0.004  0.012  0.016
    2  0.019  0.003  0.005  0.027
    3  0.001  0.002  0.005  0.007
    4  0.019  0.003  0.005  0.028
    5  0.000  0.000  0.012  0.012
    6  0.013  0.003  0.006  0.022
    7  0.000  0.002  0.005  0.007
    8  0.013  0.003  0.006  0.021
    9  0.000  0.005  0.008  0.013
   10  0.000  0.003  0.027  0.030
   11  0.003  0.002  0.011  0.015
   12  0.006  0.002  0.011  0.019
   13  0.003  0.002  0.011  0.015
   14  0.000  0.002  0.014  0.016
   15  0.016  0.004  0.011  0.031
   16  0.006  0.002  0.011  0.018
   17  0.015  0.004  0.011  0.031
   18  0.000  0.000  0.024  0.024
   19  0.015  0.004  0.010  0.030
   20  0.000  0.003  0.017  0.020
   21  0.000  0.001  0.012  0.014
   22  0.010  0.003  0.010  0.023
   23  0.001  0.001  0.012  0.014
   24  0.000  0.003  0.026  0.029
   25  0.000  0.000  0.021  0.021
   26  0.015  0.004  0.011  0.029
   27  0.010  0.003  0.010  0.023
   28  0.000  0.004  0.008  0.012
   29  0.017  0.003  0.005  0.026
   30  0.000  0.002  0.006  0.008
   31  0.017  0.003  0.005  0.026
   32  0.014  0.003  0.005  0.022
   33  0.000  0.002  0.006  0.007
   34  0.014  0.003  0.005  0.022
   35  0.000  0.005  0.010  0.015
   36  0.000  0.000  0.007  0.007
   37  0.000  0.000  0.000  0.000
   38  0.000  0.000  0.000  0.000
tot    0.226  0.094  0.382  0.702
 
band    19 # energy   -5.01776758 # occ.  2.00000000
 
ion      s      p      d    tot
    1  0.000  0.002  0.009  0.012
    2  0.019  0.004  0.005  0.028
    3  0.000  0.002  0.005  0.007
    4  0.018  0.003  0.005  0.027
    5  0.000  0.006  0.009  0.015
    6  0.012  0.003  0.006  0.020
    7  0.001  0.002  0.005  0.008
    8  0.014  0.003  0.006  0.022
    9  0.000  0.001  0.013  0.014
   10  0.014  0.005  0.009  0.028
   11  0.005  0.002  0.022  0.029
   12  0.003  0.001  0.015  0.020
   13  0.004  0.002  0.024  0.030
   14  0.017  0.004  0.005  0.026
   15  0.000  0.002  0.016  0.019
   16  0.004  0.002  0.015  0.020
   17  0.000  0.003  0.017  0.020
   18  0.000  0.000  0.009  0.009
   19  0.001  0.003  0.017  0.020
   20  0.022  0.005  0.005  0.032
   21  0.005  0.002  0.025  0.032
   22  0.002  0.001  0.014  0.018
   23  0.006  0.002  0.024  0.032
   24  0.010  0.003  0.009  0.022
   25  0.002  0.000  0.008  0.010
   26  0.001  0.003  0.018  0.021
   27  0.003  0.002  0.014  0.018
   28  0.000  0.002  0.011  0.013
   29  0.015  0.003  0.006  0.025
   30  0.000  0.001  0.005  0.006
   31  0.014  0.003  0.006  0.024
   32  0.012  0.003  0.006  0.021
   33  0.000  0.001  0.005  0.007
   34  0.013  0.003  0.006  0.023
   35  0.000  0.001  0.009  0.010
   36  0.000  0.005  0.008  0.012
   37  0.000  0.002  0.000  0.002
   38  0.000  0.009  0.000  0.009
tot    0.218  0.101  0.391  0.710
 
band    20 # energy   -5.01775018 # occ.  2.00000000
 
ion      s      p      d    tot
    1  0.000  0.002  0.009  0.012
    2  0.002  0.002  0.005  0.009
    3  0.021  0.004  0.006  0.030
    4  0.003  0.002  0.005  0.010
    5  0.000  0.006  0.009  0.015
    6  0.010  0.002  0.005  0.017
    7  0.020  0.004  0.006  0.030
    8  0.008  0.002  0.005  0.016
    9  0.000  0.001  0.013  0.014
   10  0.000  0.000  0.017  0.018
   11  0.012  0.003  0.012  0.027
   12  0.011  0.004  0.011  0.026
   13  0.014  0.004  0.010  0.027
   14  0.000  0.002  0.029  0.030
   15  0.000  0.001  0.012  0.013
   16  0.010  0.003  0.012  0.025
   17  0.000  0.001  0.011  0.012
   18  0.000  0.003  0.019  0.022
   19  0.002  0.001  0.011  0.014
   20  0.000  0.001  0.031  0.032
   21  0.017  0.004  0.011  0.032
   22  0.007  0.003  0.011  0.021
   23  0.016  0.004  0.012  0.032
   24  0.000  0.001  0.015  0.016
   25  0.000  0.004  0.020  0.024
   26  0.002  0.001  0.010  0.013
   27  0.007  0.003  0.011  0.020
   28  0.000  0.002  0.011  0.013
   29  0.003  0.002  0.005  0.010
   30  0.018  0.004  0.007  0.029
   31  0.004  0.002  0.005  0.011
   32  0.007  0.002  0.005  0.014
   33  0.018  0.004  0.007  0.029
   34  0.005  0.002  0.005  0.013
   35  0.000  0.001  0.009  0.010
   36  0.000  0.005  0.008  0.012
   37  0.000  0.002  0.000  0.002
   38  0.000  0.009  0.000  0.009
tot    0.218  0.101  0.391  0.710
 
band    21 # energy   -4.79040252 # occ.  2.00000000
 
ion      s      p      d    tot
    1  0.014  0.002  0.000  0.016
    2  0.000  0.002  0.011  0.013
    3  0.000  0.002  0.011  0.013
    4  0.000  0.002  0.011  0.013
    5  0.038  0.003  0.000  0.041
    6  0.000  0.002  0.011  0.013
    7  0.000  0.002  0.011  0.013
    8  0.000  0.002  0.011  0.013
    9  0.003  0.001  0.001  0.004
   10  0.001  0.001  0.029  0.031
   11  0.001  0.003  0.023  0.028
   12  0.001  0.001  0.029  0.031
   13  0.001  0.003  0.023  0.028
   14  0.001  0.003  0.023  0.028
   15  0.002  0.001  0.007  0.011
   16  0.001  0.001  0.029  0.031