PROCAR new format
# of k-points:   10         # of bands:  252         # of ions:   38

 k-point     1 :    0.00000000 0.00000000 0.00000000     weight = 0.01562500

band     1 # energy  -22.39393108 # occ.  2.00000000
 
ion      s      p      d    tot
    1  0.000  0.000  0.000  0.000
    2  0.000  0.000  0.000  0.000
    3  0.000  0.000  0.000  0.000
    4  0.000  0.000  0.000  0.000
    5  0.000  0.000  0.000  0.000
    6  0.000  0.000  0.000  0.000
    7  0.000  0.000  0.000  0.000
    8  0.000  0.000  0.000  0.000
    9  0.000  0.000  0.000  0.000
   10  0.000  0.000  0.000  0.000
   11  0.000  0.000  0.000  0.000
   12  0.000  0.000  0.000  0.000
   13  0.000  0.000  0.000  0.000
   14  0.000  0.000  0.000  0.000
   15  0.000  0.000  0.000  0.000
   16  0.000  0.000  0.000  0.000
   17  0.000  0.000  0.000  0.000
   18  0.000  0.000  0.000  0.000
   19  0.000  0.000  0.000  0.000
   20  0.000  0.000  0.000  0.000
   21  0.000  0.000  0.000  0.000
   22  0.000  0.000  0.000  0.000
   23  0.000  0.000  0.000  0.000
   24  0.000  0.000  0.000  0.000
   25  0.000  0.000  0.000  0.000
   26  0.000  0.000  0.000  0.000
   27  0.000  0.000  0.000  0.000
   28  0.000  0.000  0.000  0.000
   29  0.000  0.000  0.000  0.000
   30  0.000  0.000  0.000  0.000
   31  0.000  0.000  0.000  0.000
   32  0.000  0.000  0.000  0.000
   33  0.000  0.000  0.000  0.000
   34  0.000  0.000  0.000  0.000
   35  0.000  0.000  0.000  0.000
   36  0.000  0.000  0.000  0.000
   37  0.158  0.117  0.000  0.275
   38  0.639  0.095  0.000  0.734
tot    0.797  0.212  0.000  1.009
 
band     2 # energy   -8.16371698 # occ.  2.00000000
 
ion      s      p      d    tot
    1  0.004  0.000  0.000  0.005
    2  0.004  0.000  0.000  0.005
    3  0.004  0.000  0.000  0.005
    4  0.004  0.000  0.000  0.005
    5  0.004  0.000  0.000  0.005
    6  0.004  0.000  0.000  0.005
    7  0.004  0.000  0.000  0.005
    8  0.004  0.000  0.000  0.005
    9  0.004  0.000  0.000  0.005
   10  0.019  0.000  0.000  0.019
   11  0.019  0.000  0.000  0.019
   12  0.019  0.000  0.000  0.019
   13  0.019  0.000  0.000  0.019
   14  0.019  0.000  0.000  0.019
   15  0.018  0.000  0.000  0.019
   16  0.019  0.000  0.000  0.019
   17  0.018  0.000  0.000  0.019
   18  0.018  0.000  0.000  0.019
   19  0.019  0.000  0.000  0.019
   20  0.023  0.000  0.000  0.024
   21  0.023  0.000  0.000  0.024
   22  0.019  0.000  0.000  0.019
   23  0.023  0.000  0.000  0.024
   24  0.019  0.000  0.000  0.019
   25  0.019  0.000  0.000  0.019
   26  0.019  0.000  0.000  0.019
   27  0.019  0.000  0.000  0.019
   28  0.005  0.000  0.000  0.005
   29  0.006  0.000  0.000  0.007
   30  0.006  0.000  0.000  0.007
   31  0.006  0.000  0.000  0.007
   32  0.006  0.000  0.000  0.007
   33  0.006  0.000  0.000  0.007
   34  0.006  0.000  0.000  0.007
   35  0.004  0.000  0.000  0.005
   36  0.026  0.002  0.008  0.036
   37  0.060  0.001  0.000  0.061
   38  0.031  0.044  0.000  0.075
tot    0.554  0.056  0.011  0.621
 
band     3 # energy   -7.91708551 # occ.  2.00000000
 
ion      s      p      d    tot
    1  0.003  0.000  0.000  0.003
    2  0.003  0.000  0.000  0.003
    3  0.003  0.000  0.000  0.003
    4  0.003  0.000  0.000  0.003
    5  0.003  0.000  0.000  0.003
    6  0.003  0.000  0.000  0.003
    7  0.003  0.000  0.000  0.003
    8  0.003  0.000  0.000  0.003
    9  0.003  0.000  0.000  0.003
   10  0.008  0.000  0.000  0.009
   11  0.009  0.000  0.000  0.009
   12  0.008  0.000  0.000  0.009
   13  0.009  0.000  0.000  0.009
   14  0.009  0.000  0.000  0.009
   15  0.009  0.000  0.000  0.009
   16  0.008  0.000  0.000  0.009
   17  0.009  0.000  0.000  0.009
   18  0.009  0.000  0.000  0.009
   19  0.004  0.000  0.000  0.005
   20  0.003  0.000  0.000  0.004
   21  0.003  0.000  0.000  0.004
   22  0.005  0.000  0.000  0.005
   23  0.003  0.000  0.000  0.004
   24  0.005  0.000  0.000  0.005
   25  0.004  0.000  0.000  0.005
   26  0.004  0.000  0.000  0.005
   27  0.005  0.000  0.000  0.005
   28  0.000  0.000  0.000  0.000
   29  0.000  0.000  0.001  0.001
   30  0.000  0.000  0.001  0.001
   31  0.000  0.000  0.001  0.001
   32  0.000  0.000  0.001  0.001
   33  0.000  0.000  0.001  0.001
   34  0.000  0.000  0.001  0.001
   35  0.000  0.000  0.000  0.000
   36  0.020  0.021  0.021  0.061
   37  0.201  0.001  0.000  0.201
   38  0.115  0.199  0.000  0.314
tot    0.475  0.226  0.029  0.730
 
band     4 # energy   -6.91538270 # occ.  2.00000000
 
ion      s      p      d    tot
    1  0.017  0.000  0.001  0.018
    2  0.016  0.000  0.001  0.018
    3  0.016  0.000  0.001  0.018
    4  0.016  0.000  0.001  0.018
    5  0.016  0.000  0.001  0.018
    6  0.016  0.000  0.001  0.018
    7  0.016  0.000  0.001  0.018
    8  0.016  0.000  0.001  0.018
    9  0.016  0.000  0.001  0.018
   10  0.010  0.001  0.002  0.014
   11  0.009  0.002  0.003  0.013
   12  0.010  0.001  0.002  0.014
   13  0.009  0.002  0.003  0.013
   14  0.009  0.002  0.003  0.013
   15  0.009  0.001  0.002  0.013
   16  0.010  0.001  0.002  0.014
   17  0.009  0.001  0.002  0.013
   18  0.009  0.001  0.002  0.013
   19  0.014  0.001  0.004  0.019
   20  0.016  0.001  0.004  0.021
   21  0.016  0.001  0.004  0.021
   22  0.015  0.001  0.004  0.019
   23  0.016  0.001  0.004  0.021
   24  0.015  0.001  0.004  0.019
   25  0.014  0.001  0.004  0.019
   26  0.014  0.001  0.004  0.019
   27  0.015  0.001  0.004  0.019
   28  0.013  0.000  0.000  0.014
   29  0.012  0.001  0.001  0.013
   30  0.012  0.001  0.001  0.013
   31  0.012  0.001  0.001  0.013
   32  0.012  0.001  0.001  0.013
   33  0.012  0.001  0.001  0.013
   34  0.012  0.001  0.001  0.013
   35  0.013  0.000  0.000  0.014
   36  0.009  0.001  0.000  0.011
   37  0.004  0.003  0.000  0.007
   38  0.006  0.021  0.000  0.027
tot    0.484  0.055  0.071  0.610
 
band     5 # energy   -5.98599706 # occ.  2.00000000
 
ion      s      p      d    tot
    1  0.012  0.000  0.022  0.034
    2  0.018  0.000  0.018  0.036
    3  0.018  0.000  0.018  0.036
    4  0.018  0.000  0.018  0.036
    5  0.013  0.000  0.017  0.030
    6  0.018  0.000  0.018  0.036
    7  0.018  0.000  0.018  0.036
    8  0.018  0.000  0.018  0.036
    9  0.033  0.000  0.014  0.047
   10  0.012  0.001  0.020  0.033
   11  0.014  0.001  0.018  0.033
   12  0.012  0.001  0.020  0.033
   13  0.014  0.001  0.018  0.033
   14  0.014  0.001  0.018  0.033
   15  0.000  0.001  0.024  0.025
   16  0.012  0.001  0.020  0.033
   17  0.000  0.001  0.024  0.025
   18  0.000  0.001  0.024  0.025
   19  0.000  0.001  0.004  0.005
   20  0.004  0.001  0.005  0.010
   21  0.004  0.001  0.005  0.010
   22  0.003  0.001  0.001  0.004
   23  0.004  0.001  0.005  0.010
   24  0.003  0.001  0.001  0.004
   25  0.000  0.001  0.004  0.005
   26  0.000  0.001  0.004  0.005
   27  0.003  0.001  0.001  0.004
   28  0.005  0.000  0.000  0.005
   29  0.003  0.000  0.002  0.005
   30  0.003  0.000  0.002  0.005
   31  0.003  0.000  0.002  0.005
   32  0.003  0.000  0.002  0.005
   33  0.003  0.000  0.002  0.005
   34  0.003  0.000  0.002  0.005
   35  0.007  0.000  0.001  0.008
   36  0.000  0.001  0.000  0.001
   37  0.000  0.000  0.000  0.000
   38  0.000  0.001  0.000  0.001
tot    0.300  0.019  0.389  0.708
 
band     6 # energy   -5.98291988 # occ.  2.00000000
 
ion      s      p      d    tot
    1  0.019  0.001  0.000  0.020
    2  0.003  0.000  0.007  0.011
    3  0.003  0.000  0.007  0.011
    4  0.003  0.000  0.007  0.011
    5  0.007  0.000  0.004  0.011
    6  0.003  0.000  0.007  0.011
    7  0.003  0.000  0.007  0.011
    8  0.003  0.000  0.007  0.011
    9  0.002  0.002  0.007  0.010
   10  0.003  0.000  0.029  0.032
   11  0.001  0.002  0.014  0.017
   12  0.003  0.000  0.029  0.032
   13  0.001  0.002  0.014  0.017
   14  0.001  0.002  0.014  0.017
   15  0.035  0.002  0.003  0.041
   16  0.003  0.000  0.029  0.032
   17  0.035  0.002  0.003  0.040
   18  0.035  0.002  0.003  0.041
   19  0.000  0.001  0.019  0.020
   20  0.018  0.001  0.022  0.040
   21  0.018  0.001  0.022  0.040
   22  0.020  0.003  0.003  0.025
   23  0.018  0.001  0.022  0.040
   24  0.020  0.003  0.003  0.025
   25  0.000  0.001  0.019  0.020
   26  0.000  0.001  0.019  0.020
   27  0.020  0.003  0.003  0.025
   28  0.000  0.000  0.001  0.001
   29  0.000  0.000  0.003  0.004
   30  0.000  0.000  0.003  0.004
   31  0.000  0.000  0.003  0.004
   32  0.000  0.000  0.003  0.004
   33  0.000  0.000  0.003  0.004
   34  0.000  0.000  0.003  0.004
   35  0.004  0.001  0.001  0.005
   36  0.018  0.001  0.004  0.022
   37  0.000  0.008  0.000  0.008
   38  0.002  0.016  0.000  0.018
tot    0.300  0.059  0.355  0.714
 
band     7 # energy   -5.96381811 # occ.  2.00000000
 
ion      s      p      d    tot
    1  0.000  0.000  0.008  0.008
    2  0.000  0.000  0.003  0.003
    3  0.001  0.000  0.003  0.004
    4  0.007  0.001  0.003  0.011
    5  0.000  0.001  0.007  0.009
    6  0.005  0.001  0.003  0.009
    7  0.006  0.001  0.004  0.010
    8  0.003  0.001  0.004  0.008
    9  0.000  0.000  0.001  0.001
   10  0.018  0.001  0.017  0.037
   11  0.001  0.003  0.027  0.031
   12  0.027  0.002  0.008  0.037
   13  0.048  0.001  0.012  0.062
   14  0.033  0.002  0.017  0.052
   15  0.000  0.004  0.004  0.007
   16  0.001  0.000  0.034  0.035
   17  0.003  0.001  0.012  0.016
   18  0.002  0.002  0.009  0.013
   19  0.000  0.004  0.003  0.007
   20  0.035  0.002  0.019  0.056
   21  0.052  0.001  0.013  0.066
   22  0.019  0.002  0.007  0.028
   23  0.002  0.003  0.032  0.036
   24  0.013  0.001  0.015  0.028
   25  0.004  0.002  0.009  0.015
   26  0.006  0.001  0.012  0.018
   27  0.001  0.000  0.029  0.030
   28  0.000  0.000  0.001  0.001
   29  0.003  0.001  0.004  0.008
   30  0.005  0.001  0.004  0.010
   31  0.005  0.001  0.002  0.008
   32  0.006  0.001  0.003  0.010
   33  0.000  0.000  0.002  0.003
   34  0.000  0.000  0.002  0.003
   35  0.000  0.000  0.005  0.005
   36  0.000  0.003  0.003  0.006
   37  0.000  0.000  0.000  0.000
   38  0.000  0.000  0.000  0.000
tot    0.306  0.045  0.342  0.693
 
band     8 # energy   -5.96381778 # occ.  2.00000000
 
ion      s      p      d    tot
    1  0.000  0.000  0.008  0.008
    2  0.007  0.001  0.003  0.012
    3  0.007  0.001  0.004  0.011
    4  0.000  0.000  0.003  0.004
    5  0.000  0.001  0.007  0.009
    6  0.002  0.001  0.003  0.006
    7  0.002  0.000  0.003  0.005
    8  0.004  0.001  0.003  0.007
    9  0.000  0.000  0.001  0.001
   10  0.013  0.001  0.023  0.036
   11  0.054  0.001  0.011  0.065
   12  0.004  0.000  0.032  0.036
   13  0.007  0.003  0.025  0.035
   14  0.022  0.002  0.020  0.045
   15  0.003  0.000  0.013  0.017
   16  0.030  0.002  0.005  0.038
   17  0.000  0.003  0.005  0.008
   18  0.001  0.002  0.007  0.011
   19  0.006  0.000  0.013  0.020
   20  0.024  0.002  0.024  0.050
   21  0.007  0.002  0.030  0.040
   22  0.003  0.000  0.027  0.030
   23  0.057  0.001  0.011  0.069
   24  0.009  0.001  0.020  0.029
   25  0.003  0.002  0.007  0.012
   26  0.001  0.003  0.004  0.008
   27  0.021  0.002  0.005  0.027
   28  0.000  0.000  0.001  0.001
   29  0.003  0.001  0.002  0.006
   30  0.001  0.000  0.002  0.004
   31  0.002  0.001  0.003  0.006
   32  0.000  0.000  0.003  0.004
   33  0.006  0.001  0.004  0.011
   34  0.007  0.001  0.003  0.011
   35  0.000  0.000  0.005  0.005
   36  0.000  0.003  0.003  0.006
   37  0.000  0.000  0.000  0.000
   38  0.000  0.000  0.000  0.000
tot    0.306  0.045  0.342  0.693
 
band     9 # energy   -5.93930926 # occ.  2.00000000
 
ion      s      p      d    tot
    1  0.006  0.001  0.001  0.008
    2  0.000  0.001  0.006  0.007
    3  0.000  0.001  0.006  0.007
    4  0.000  0.001  0.006  0.007
    5  0.018  0.002  0.001  0.020
    6  0.000  0.001  0.006  0.007
    7  0.000  0.001  0.006  0.007
    8  0.000  0.001  0.006  0.007
    9  0.000  0.000  0.002  0.002
   10  0.022  0.003  0.002  0.028
   11  0.023  0.001  0.020  0.044
   12  0.022  0.003  0.002  0.028
   13  0.023  0.001  0.020  0.044
   14  0.023  0.001  0.020  0.044
   15  0.001  0.001  0.025  0.027
   16  0.022  0.003  0.002  0.028
   17  0.001  0.001  0.025  0.027
   18  0.001  0.001  0.025  0.027
   19  0.025  0.002  0.007  0.034
   20  0.008  0.003  0.015  0.025
   21  0.008  0.003  0.015  0.025
   22  0.007  0.000  0.027  0.034
   23  0.008  0.003  0.015  0.025
   24  0.007  0.000  0.027  0.034
   25  0.025  0.002  0.007  0.034
   26  0.025  0.002  0.007  0.034
   27  0.007  0.000  0.027  0.034
   28  0.012  0.001  0.001  0.015
   29  0.000  0.000  0.004  0.004
   30  0.000  0.000  0.004  0.004
   31  0.000  0.000  0.004  0.004
   32  0.000  0.000  0.004  0.004
   33  0.000  0.000  0.004  0.004
   34  0.000  0.000  0.004  0.004
   35  0.003  0.001  0.002  0.006
   36  0.000  0.000  0.000  0.001
   37  0.000  0.000  0.000  0.000
   38  0.000  0.000  0.000  0.000
tot    0.299  0.040  0.356  0.695
 
band    10 # energy   -5.91656782 # occ.  2.00000000
 
ion      s      p      d    tot
    1  0.000  0.001  0.004  0.005
    2  0.005  0.001  0.004  0.010
    3  0.007  0.001  0.004  0.012
    4  0.006  0.001  0.004  0.011
    5  0.000  0.000  0.004  0.004
    6  0.000  0.000  0.003  0.004
    7  0.008  0.001  0.004  0.013
    8  0.000  0.000  0.003  0.004
    9  0.000  0.001  0.011  0.012
   10  0.032  0.000  0.016  0.048
   11  0.001  0.002  0.017  0.020
   12  0.007  0.004  0.008  0.019
   13  0.001  0.002  0.018  0.021
   14  0.005  0.001  0.009  0.015
   15  0.017  0.001  0.034  0.052
   16  0.009  0.003  0.009  0.021
   17  0.014  0.001  0.036  0.051
   18  0.061  0.002  0.005  0.067
   19  0.012  0.001  0.027  0.040
   20  0.002  0.001  0.012  0.014
   21  0.000  0.002  0.013  0.015
   22  0.007  0.003  0.013  0.023
   23  0.000  0.001  0.013  0.015
   24  0.031  0.000  0.012  0.043
   25  0.043  0.002  0.003  0.049
   26  0.010  0.001  0.029  0.040
   27  0.008  0.003  0.013  0.024
   28  0.000  0.000  0.007  0.007
   29  0.000  0.000  0.002  0.002
   30  0.003  0.001  0.002  0.005
   31  0.000  0.000  0.002  0.002
   32  0.004  0.001  0.003  0.007
   33  0.002  0.001  0.002  0.005
   34  0.004  0.001  0.003  0.007
   35  0.000  0.001  0.003  0.004
   36  0.000  0.000  0.001  0.001
   37  0.000  0.000  0.000  0.000
   38  0.000  0.001  0.000  0.001
tot    0.298  0.042  0.353  0.693
 
band    11 # energy   -5.91655847 # occ.  2.00000000
 
ion      s      p      d    tot
    1  0.000  0.001  0.004  0.005
    2  0.004  0.001  0.003  0.008
    3  0.001  0.001  0.004  0.006
    4  0.003  0.001  0.003  0.007
    5  0.000  0.000  0.004  0.004
    6  0.008  0.001  0.004  0.014
    7  0.001  0.000  0.004  0.005
    8  0.008  0.001  0.004  0.014
    9  0.000  0.001  0.011  0.012
   10  0.000  0.005  0.006  0.011
   11  0.003  0.001  0.012  0.017
   12  0.025  0.001  0.014  0.040
   13  0.004  0.001  0.012  0.016
   14  0.000  0.002  0.021  0.023
   15  0.044  0.001  0.016  0.061
   16  0.023  0.001  0.014  0.038
   17  0.047  0.002  0.014  0.062
   18  0.000  0.001  0.045  0.046
   19  0.031  0.002  0.013  0.046
   20  0.000  0.002  0.014  0.015
   21  0.001  0.001  0.012  0.014
   22  0.024  0.001  0.013  0.038
   23  0.001  0.001  0.012  0.015
   24  0.000  0.004  0.013  0.017
   25  0.000  0.000  0.037  0.037
   26  0.034  0.002  0.011  0.046
   27  0.022  0.001  0.013  0.036
   28  0.000  0.000  0.007  0.007
   29  0.004  0.001  0.002  0.007
   30  0.002  0.000  0.002  0.004
   31  0.004  0.001  0.002  0.007
   32  0.000  0.000  0.001  0.002
   33  0.002  0.000  0.002  0.005
   34  0.001  0.000  0.001  0.002
   35  0.000  0.001  0.003  0.004
   36  0.000  0.000  0.001  0.001
   37  0.000  0.000  0.000  0.000
   38  0.000  0.001  0.000  0.001
tot    0.298  0.042  0.353  0.693
 
band    12 # energy   -5.89287683 # occ.  2.00000000
 
ion      s      p      d    tot
    1  0.000  0.000  0.000  0.000
    2  0.000  0.000  0.000  0.000
    3  0.000  0.000  0.000  0.000
    4  0.000  0.000  0.000  0.000
    5  0.000  0.000  0.000  0.000
    6  0.000  0.000  0.000  0.000
    7  0.000  0.000  0.000  0.000
    8  0.000  0.000  0.000  0.000
    9  0.000  0.000  0.000  0.000
   10  0.000  0.000  0.006  0.006
   11  0.001  0.000  0.005  0.007
   12  0.000  0.000  0.006  0.006
   13  0.001  0.000  0.005  0.007
   14  0.001  0.000  0.005  0.007
   15  0.000  0.000  0.005  0.006
   16  0.000  0.000  0.006  0.006
   17  0.000  0.000  0.005  0.006
   18  0.000  0.000  0.005  0.006
   19  0.008  0.001  0.021  0.030
   20  0.006  0.000  0.029  0.035
   21  0.006  0.000  0.029  0.035
   22  0.005  0.000  0.026  0.031
   23  0.006  0.000  0.029  0.035
   24  0.005  0.000  0.026  0.031
   25  0.009  0.001  0.021  0.030
   26  0.008  0.001  0.021  0.030
   27  0.005  0.000  0.026  0.031
   28  0.017  0.000  0.018  0.035
   29  0.022  0.000  0.018  0.040
   30  0.022  0.000  0.018  0.040
   31  0.022  0.000  0.018  0.040
   32  0.022  0.000  0.018  0.040
   33  0.022  0.000  0.018  0.040
   34  0.022  0.000  0.018  0.040
   35  0.024  0.000  0.018  0.042
   36  0.019  0.004  0.001  0.024
   37  0.000  0.015  0.000  0.015
   38  0.004  0.033  0.000  0.037
tot    0.257  0.059  0.426  0.742
 
band    13 # energy   -5.48999817 # occ.  2.00000000
 
ion      s      p      d    tot
    1  0.000  0.001  0.004  0.005
    2  0.001  0.001  0.005  0.006
    3  0.008  0.001  0.004  0.014
    4  0.001  0.001  0.005  0.006
    5  0.000  0.001  0.010  0.011
    6  0.005  0.001  0.004  0.009
    7  0.008  0.001  0.004  0.014
    8  0.005  0.001  0.004  0.009
    9  0.000  0.000  0.008  0.008
   10  0.000  0.001  0.050  0.050
   11  0.016  0.001  0.020  0.036
   12  0.007  0.001  0.018  0.027
   13  0.016  0.001  0.020  0.036
   14  0.000  0.000  0.047  0.047
   15  0.002  0.000  0.018  0.020
   16  0.007  0.001  0.018  0.027
   17  0.002  0.000  0.018  0.020
   18  0.000  0.001  0.010  0.011
   19  0.006  0.000  0.018  0.025
   20  0.000  0.000  0.074  0.074
   21  0.016  0.001  0.023  0.040
   22  0.002  0.001  0.018  0.021
   23  0.016  0.001  0.023  0.040
   24  0.000  0.001  0.029  0.030
   25  0.000  0.001  0.014  0.015
   26  0.006  0.000  0.018  0.025
   27  0.002  0.001  0.018  0.021
   28  0.000  0.000  0.009  0.010
   29  0.003  0.001  0.005  0.008
   30  0.012  0.001  0.003  0.016
   31  0.003  0.001  0.005  0.008
   32  0.003  0.001  0.004  0.008
   33  0.012  0.001  0.003  0.016
   34  0.003  0.001  0.004  0.008
   35  0.000  0.000  0.004  0.004
   36  0.000  0.005  0.001  0.006
   37  0.000  0.004  0.000  0.004
   38  0.000  0.008  0.000  0.008
tot    0.160  0.046  0.538  0.744
 
band    14 # energy   -5.48998733 # occ.  2.00000000
 
ion      s      p      d    tot
    1  0.000  0.001  0.004  0.005
    2  0.009  0.001  0.004  0.014
    3  0.001  0.000  0.004  0.005
    4  0.009  0.001  0.004  0.014
    5  0.000  0.001  0.010  0.011
    6  0.004  0.001  0.005  0.010
    7  0.001  0.000  0.004  0.005
    8  0.004  0.001  0.005  0.010
    9  0.000  0.000  0.008  0.008
   10  0.009  0.002  0.008  0.019
   11  0.005  0.000  0.038  0.043
   12  0.002  0.001  0.039  0.042
   13  0.005  0.000  0.038  0.043
   14  0.021  0.001  0.011  0.033
   15  0.001  0.001  0.012  0.014
   16  0.002  0.001  0.039  0.042
   17  0.001  0.001  0.012  0.014
   18  0.002  0.000  0.022  0.024
   19  0.002  0.001  0.015  0.018
   20  0.022  0.002  0.005  0.029
   21  0.005  0.000  0.057  0.063
   22  0.001  0.001  0.026  0.028
   23  0.005  0.000  0.057  0.063
   24  0.003  0.001  0.014  0.018
   25  0.008  0.000  0.020  0.028
   26  0.002  0.001  0.015  0.018
   27  0.001  0.001  0.026  0.028
   28  0.000  0.000  0.009  0.010
   29  0.009  0.001  0.003  0.013
   30  0.000  0.001  0.005  0.005
   31  0.009  0.001  0.003  0.013
   32  0.008  0.001  0.004  0.013
   33  0.000  0.001  0.005  0.005
   34  0.008  0.001  0.004  0.013
   35  0.000  0.000  0.004  0.004
   36  0.000  0.005  0.001  0.006
   37  0.000  0.004  0.000  0.004
   38  0.000  0.008  0.000  0.008
tot    0.160  0.046  0.538  0.744
 
band    15 # energy   -5.48854118 # occ.  2.00000000
 
ion      s      p      d    tot
    1  0.017  0.002  0.001  0.020
    2  0.000  0.001  0.007  0.008
    3  0.000  0.001  0.007  0.008
    4  0.000  0.001  0.007  0.008
    5  0.001  0.000  0.002  0.003
    6  0.000  0.001  0.007  0.008
    7  0.000  0.001  0.007  0.008
    8  0.000  0.001  0.007  0.008
    9  0.010  0.001  0.000  0.011
   10  0.009  0.002  0.009  0.019
   11  0.005  0.000  0.034  0.039
   12  0.008  0.002  0.009  0.019
   13  0.005  0.000  0.034  0.039
   14  0.006  0.000  0.033  0.039
   15  0.000  0.001  0.032  0.033
   16  0.008  0.002  0.009  0.019
   17  0.000  0.001  0.032  0.033
   18  0.000  0.001  0.031  0.032
   19  0.008  0.001  0.008  0.017
   20  0.000  0.000  0.049  0.049
   21  0.000  0.000  0.049  0.049
   22  0.010  0.001  0.028  0.039
   23  0.000  0.000  0.049  0.049
   24  0.010  0.001  0.029  0.040
   25  0.008  0.001  0.008  0.017
   26  0.008  0.001  0.008  0.017
   27  0.010  0.001  0.028  0.039
   28  0.016  0.002  0.001  0.019
   29  0.000  0.001  0.007  0.008
   30  0.000  0.001  0.007  0.007
   31  0.000  0.001  0.007  0.008
   32  0.000  0.001  0.007  0.007
   33  0.000  0.001  0.007  0.007
   34  0.000  0.001  0.007  0.007
   35  0.004  0.001  0.003  0.007
   36  0.005  0.000  0.000  0.005
   37  0.000  0.002  0.000  0.003
   38  0.000  0.004  0.000  0.004
tot    0.151  0.034  0.570  0.754
 
band    16 # energy   -5.48599135 # occ.  2.00000000
 
ion      s      p      d    tot
    1  0.000  0.000  0.001  0.001
    2  0.000  0.001  0.008  0.008
    3  0.000  0.001  0.008  0.008
    4  0.000  0.001  0.008  0.008
    5  0.015  0.001  0.000  0.016
    6  0.000  0.001  0.008  0.008
    7  0.000  0.001  0.008  0.008
    8  0.000  0.001  0.008  0.008
    9  0.011  0.002  0.002  0.015
   10  0.002  0.000  0.042  0.044
   11  0.003  0.001  0.015  0.020
   12  0.002  0.000  0.042  0.044
   13  0.003  0.001  0.015  0.020
   14  0.004  0.001  0.015  0.020
   15  0.013  0.002  0.013  0.028
   16  0.002  0.000  0.042  0.044
   17  0.013  0.002  0.013  0.028
   18  0.013  0.002  0.012  0.028
   19  0.005  0.000  0.031  0.036
   20  0.008  0.002  0.020  0.030
   21  0.009  0.002  0.019  0.030
   22  0.001  0.001  0.019  0.022
   23  0.009  0.002  0.019  0.030
   24  0.001  0.001  0.020  0.022
   25  0.005  0.000  0.031  0.037
   26  0.005  0.000  0.031  0.036
   27  0.001  0.001  0.019  0.022
   28  0.002  0.000  0.001  0.003
   29  0.000  0.001  0.005  0.006
   30  0.000  0.001  0.005  0.006
   31  0.000  0.001  0.005  0.006
   32  0.000  0.001  0.005  0.006
   33  0.000  0.001  0.005  0.006
   34  0.000  0.001  0.005  0.006
   35  0.011  0.001  0.000  0.012
   36  0.026  0.000  0.014  0.039
   37  0.002  0.022  0.000  0.023
   38  0.002  0.029  0.000  0.031
tot    0.171  0.081  0.512  0.764
 
band    17 # energy   -5.42398818 # occ.  2.00000000
 
ion      s      p      d    tot
    1  0.000  0.001  0.015  0.016
    2  0.010  0.001  0.005  0.016
    3  0.002  0.000  0.005  0.008
    4  0.010  0.001  0.005  0.016
    5  0.000  0.000  0.005  0.005
    6  0.003  0.001  0.006  0.010
    7  0.002  0.000  0.005  0.008
    8  0.003  0.001  0.006  0.010
    9  0.000  0.001  0.007  0.009
   10  0.000  0.001  0.029  0.029
   11  0.001  0.001  0.020  0.022
   12  0.007  0.000  0.023  0.030
   13  0.001  0.001  0.020  0.022
   14  0.000  0.001  0.020  0.021
   15  0.011  0.002  0.021  0.034
   16  0.006  0.000  0.023  0.030
   17  0.011  0.002  0.021  0.034
   18  0.000  0.000  0.065  0.065
   19  0.013  0.001  0.020  0.034
   20  0.000  0.002  0.019  0.020
   21  0.000  0.001  0.023  0.023
   22  0.018  0.001  0.020  0.039
   23  0.000  0.001  0.023  0.023
   24  0.000  0.000  0.033  0.033
   25  0.000  0.000  0.067  0.068
   26  0.013  0.001  0.020  0.033
   27  0.018  0.001  0.021  0.039
   28  0.000  0.001  0.005  0.005
   29  0.005  0.001  0.003  0.010
   30  0.000  0.000  0.004  0.005
   31  0.005  0.001  0.004  0.010
   32  0.003  0.001  0.002  0.006
   33  0.000  0.000  0.004  0.005
   34  0.003  0.001  0.002  0.006
   35  0.000  0.001  0.007  0.008
   36  0.000  0.000  0.001  0.001
   37  0.000  0.000  0.000  0.000
   38  0.000  0.000  0.000  0.000
tot    0.147  0.028  0.577  0.752
 
band    18 # energy   -5.42397435 # occ.  2.00000000
 
ion      s      p      d    tot
    1  0.000  0.001  0.015  0.016
    2  0.000  0.000  0.006  0.006
    3  0.008  0.001  0.005  0.015
    4  0.000  0.000  0.006  0.006
    5  0.000  0.000  0.005  0.005
    6  0.007  0.001  0.005  0.013
    7  0.008  0.001  0.005  0.015
    8  0.007  0.001  0.005  0.013
    9  0.000  0.001  0.007  0.009
   10  0.009  0.000  0.021  0.030
   11  0.000  0.001  0.020  0.021
   12  0.002  0.001  0.027  0.029
   13  0.000  0.001  0.020  0.021
   14  0.001  0.001  0.020  0.022
   15  0.004  0.001  0.050  0.054
   16  0.002  0.001  0.027  0.029
   17  0.004  0.001  0.050  0.055
   18  0.015  0.002  0.006  0.024
   19  0.004  0.001  0.051  0.056
   20  0.000  0.000  0.024  0.024
   21  0.000  0.001  0.020  0.021
   22  0.006  0.000  0.029  0.035
   23  0.000  0.001  0.020  0.021
   24  0.024  0.001  0.016  0.041
   25  0.017  0.001  0.004  0.022
   26  0.004  0.001  0.052  0.057
   27  0.006  0.000  0.029  0.035
   28  0.000  0.001  0.005  0.005
   29  0.000  0.000  0.003  0.004
   30  0.005  0.001  0.002  0.009
   31  0.001  0.000  0.003  0.004
   32  0.003  0.001  0.004  0.008
   33  0.005  0.001  0.002  0.009
   34  0.003  0.001  0.004  0.008
   35  0.000  0.001  0.007  0.008
   36  0.000  0.000  0.001  0.001
   37  0.000  0.000  0.000  0.000
   38  0.000  0.000  0.000  0.000
tot    0.147  0.028  0.577  0.752
 
band    19 # energy   -5.29309344 # occ.  2.00000000
 
ion      s      p      d    tot
    1  0.000  0.000  0.000  0.000
    2  0.001  0.000  0.001  0.002
    3  0.001  0.000  0.001  0.002
    4  0.001  0.000  0.001  0.002
    5  0.000  0.000  0.002  0.002
    6  0.000  0.000  0.001  0.001
    7  0.001  0.000  0.001  0.002
    8  0.000  0.000  0.001  0.001
    9  0.000  0.000  0.002  0.002
   10  0.000  0.000  0.001  0.002
   11  0.000  0.000  0.003  0.003
   12  0.000  0.000  0.002  0.002
   13  0.000  0.000  0.003  0.003
   14  0.000  0.000  0.002  0.002
   15  0.000  0.000  0.002  0.002
   16  0.000  0.000  0.002  0.002
   17  0.000  0.000  0.002  0.002
   18  0.000  0.000  0.002  0.002
   19  0.000  0.000  0.002  0.002
   20  0.001  0.000  0.004  0.005
   21  0.000  0.000  0.004  0.005
   22  0.000  0.000  0.005  0.005
   23  0.000  0.000  0.004  0.005
   24  0.001  0.000  0.001  0.001
   25  0.000  0.000  0.002  0.002
   26  0.000  0.000  0.002  0.002
   27  0.000  0.000  0.005  0.005
   28  0.000  0.000  0.003  0.003
   29  0.004  0.001  0.005  0.010
   30  0.000  0.000  0.004  0.004
   31  0.004  0.001  0.005  0.010
   32  0.004  0.001  0.003  0.008
   33  0.000  0.000  0.004  0.004
   34  0.004  0.001  0.003  0.008
   35  0.000  0.000  0.005  0.005
   36  0.000  0.005  0.014  0.019
   37  0.000  0.153  0.000  0.153
   38  0.000  0.395  0.000  0.395
tot    0.023  0.556  0.103  0.682
 
band    20 # energy   -5.29299434 # occ.  2.00000000
 
ion      s      p      d    tot
    1  0.000  0.000  0.000  0.000
    2  0.000  0.000  0.001  0.001
    3  0.000  0.000  0.001  0.001
    4  0.000  0.000  0.001  0.001
    5  0.000  0.000  0.002  0.002
    6  0.001  0.000  0.001  0.002
    7  0.000  0.000  0.001  0.001
    8  0.001  0.000  0.001  0.002
    9  0.000  0.000  0.002  0.002
   10  0.000  0.000  0.003  0.003
   11  0.000  0.000  0.002  0.002
   12  0.000  0.000  0.001  0.002
   13  0.000  0.000  0.002  0.002
   14  0.000  0.000  0.003  0.003
   15  0.000  0.000  0.002  0.002
   16  0.000  0.000  0.001  0.002
   17  0.000  0.000  0.002  0.002
   18  0.000  0.000  0.001  0.001
   19  0.000  0.000  0.002  0.002
   20  0.000  0.000  0.005  0.005
   21  0.001  0.000  0.004  0.005
   22  0.000  0.000  0.002  0.003
   23  0.001  0.000  0.004  0.005
   24  0.000  0.000  0.006  0.006
   25  0.000  0.000  0.002  0.002
   26  0.000  0.000  0.002  0.002
   27  0.000  0.000  0.002  0.003
   28  0.000  0.000  0.003  0.003
   29  0.001  0.000  0.003  0.005
   30  0.005  0.001  0.004  0.010
   31  0.001  0.000  0.003  0.005
   32  0.002  0.000  0.005  0.007
   33  0.005  0.001  0.004  0.010
   34  0.002  0.000  0.005  0.007
   35  0.000  0.000  0.005  0.005
   36  0.000  0.005  0.014  0.019
   37  0.000  0.153  0.000  0.153
   38  0.000  0.395  0.000  0.395
tot    0.023  0.556  0.103  0.682
 
band    21 # energy   -5.20156815 # occ.  2.00000000
 
ion      s      p      d    tot
    1  0.011  0.000  0.001  0.013
    2  0.000  0.000  0.009  0.009
    3  0.000  0.000  0.009  0.009
    4  0.000  0.000  0.009  0.009
    5  0.002  0.000  0.001  0.004
    6  0.000  0.000  0.009  0.009
    7  0.000  0.000  0.009  0.009
    8  0.000  0.000  0.009  0.009
    9  0.004  0.000  0.002  0.006
   10  0.001  0.001  0.008  0.009
   11  0.000  0.000  0.013  0.014
   12  0.001  0.001  0.008  0.009
   13  0.000  0.000  0.013  0.014
   14  0.000  0.000  0.013  0.014
   15  0.000  0.000  0.013  0.014
   16  0.001  0.001  0.008  0.009