 vasp.6.2.0 18Jan21 (build Jun 12 2021 23:27:24) complex                        
  
 executed on             LinuxIFC date 2022.05.27  05:34:40
 running on   28 total cores
 distrk:  each k-point on   28 cores,    1 groups
 distr:  one band on NCORE=   1 cores,   28 groups


--------------------------------------------------------------------------------------------------------


 INCAR:
   ISMEAR = -5
   SIGMA = 0.1
   ISPIN = 1
   EDIFF = 1.d-5
   EDIFFG = -0.01
   NSW = 0
   NELM = 150
   ENCUT = 500
   ISIF = 2
   IBRION = 2
   LREAL = Auto
   ALGO = Fast
   ICHARG = 11
   LORBIT = 10
   LCHARG = .F.
   LWAVE = .F.

 POTCAR:    PAW_PBE Ag 02Apr2005                  
 POTCAR:    PAW_PBE Ni 02Aug2007                  
 POTCAR:    PAW_PBE N 08Apr2002                   
 -----------------------------------------------------------------------------
|                                                                             |
|           W    W    AA    RRRRR   N    N  II  N    N   GGGG   !!!           |
|           W    W   A  A   R    R  NN   N  II  NN   N  G    G  !!!           |
|           W    W  A    A  R    R  N N  N  II  N N  N  G       !!!           |
|           W WW W  AAAAAA  RRRRR   N  N N  II  N  N N  G  GGG   !            |
|           WW  WW  A    A  R   R   N   NN  II  N   NN  G    G                |
|           W    W  A    A  R    R  N    N  II  N    N   GGGG   !!!           |
|                                                                             |
|     For optimal performance we recommend to set                             |
|       NCORE = 2 up to number-of-cores-per-socket                            |
|     NCORE specifies how many cores store one orbital (NPAR=cpu/NCORE).      |
|     This setting can greatly improve the performance of VASP for DFT.       |
|     The default, NCORE=1 might be grossly inefficient on modern             |
|     multi-core architectures or massively parallel machines. Do your        |
|     own testing! More info at https://www.vasp.at/wiki/index.php/NCORE      |
|     Unfortunately you need to use the default for GW and RPA                |
|     calculations (for HF NCORE is supported but not extensively tested      |
|     yet).                                                                   |
|                                                                             |
 -----------------------------------------------------------------------------

 POTCAR:    PAW_PBE Ag 02Apr2005                  
   VRHFIN =Ag : s1 d10                                                                              
   LEXCH  = PE                                                                                      
   EATOM  =  1037.2675 eV,   76.2370 Ry                                                             
                                                                                                    
   TITEL  = PAW_PBE Ag 02Apr2005                                                                    
   LULTRA =        F    use ultrasoft PP ?                                                          
   IUNSCR =        1    unscreen: 0-lin 1-nonlin 2-no                                               
   RPACOR =    2.000    partial core radius                                                         
   POMASS =  107.868; ZVAL   =   11.000    mass and valenz                                          
   RCORE  =    2.500    outmost cutoff radius                                                       
   RWIGS  =    2.840; RWIGS  =    1.503    wigner-seitz radius (au A)                               
   ENMAX  =  249.844; ENMIN  =  187.383 eV                                                          
   ICORE  =        3    local potential                                                             
   LCOR   =        T    correct aug charges                                                         
   LPAW   =        T    paw PP                                                                      
   EAUG   =  412.496                                                                                
   DEXC   =    0.000                                                                                
   RMAX   =    2.560    core radius for proj-oper                                                   
   RAUG   =    1.300    factor for augmentation sphere                                              
   RDEP   =    2.576    radius for radial grids                                                     
   RDEPT  =    2.072    core radius for aug-charge                                                  
                                                                                                    
   Atomic configuration                                                                             
   12 entries                                                                                       
     n  l   j            E        occ.                                                              
     1  0  0.50    -25324.9161   2.0000                                                             
     2  0  0.50     -3728.5341   2.0000                                                             
     2  1  1.50     -3344.0404   6.0000                                                             
     3  0  0.50      -683.5581   2.0000                                                             
     3  1  1.50      -557.3225   6.0000                                                             
     3  2  2.50      -358.3853  10.0000                                                             
     4  0  0.50       -95.0341   2.0000                                                             
     4  1  1.50       -58.5511   6.0000                                                             
     4  2  2.50        -7.4440  10.0000                                                             
     5  0  0.50        -4.4045   1.0000                                                             
     5  1  0.50        -1.3606   0.0000                                                             
     4  3  2.50        -1.3606   0.0000                                                             
   Description                                                                                      
     l       E           TYP  RCUT    TYP  RCUT                                                     
     2     -7.4439781     23  2.400                                                                 
     2     -8.8045607     23  2.400                                                                 
     0     -4.4044681     23  2.400                                                                 
     0      1.9520038     23  2.400                                                                 
     1     -1.3605826     23  2.500                                                                 
     1     27.2116520     23  2.500                                                                 
     3     -4.0817478     23  2.400                                                                 
  local pseudopotential read in
  partial core-charges read in
  partial kinetic energy density read in
  atomic valenz-charges read in
  non local Contribution for L=           2  read in
    real space projection operators read in
  non local Contribution for L=           2  read in
    real space projection operators read in
  non local Contribution for L=           0  read in
    real space projection operators read in
  non local Contribution for L=           0  read in
    real space projection operators read in
  non local Contribution for L=           1  read in
    real space projection operators read in
  non local Contribution for L=           1  read in
    real space projection operators read in
    PAW grid and wavefunctions read in
 
   number of l-projection  operators is LMAX  =           6
   number of lm-projection operators is LMMAX =          18
 
 POTCAR:    PAW_PBE Ni 02Aug2007                  
   VRHFIN =Ni:                                                                                      
   LEXCH  = PE                                                                                      
   EATOM  =  1077.6739 eV,   79.2068 Ry                                                             
                                                                                                    
   TITEL  = PAW_PBE Ni 02Aug2007                                                                    
   LULTRA =        F    use ultrasoft PP ?                                                          
   IUNSCR =        1    unscreen: 0-lin 1-nonlin 2-no                                               
   RPACOR =    2.000    partial core radius                                                         
   POMASS =   58.690; ZVAL   =   10.000    mass and valenz                                          
   RCORE  =    2.300    outmost cutoff radius                                                       
   RWIGS  =    2.430; RWIGS  =    1.286    wigner-seitz radius (au A)                               
   ENMAX  =  269.532; ENMIN  =  202.149 eV                                                          
   RCLOC  =    1.201    cutoff for local pot                                                        
   LCOR   =        T    correct aug charges                                                         
   LPAW   =        T    paw PP                                                                      
   EAUG   =  544.565                                                                                
   DEXC   =    0.000                                                                                
   RMAX   =    2.357    core radius for proj-oper                                                   
   RAUG   =    1.300    factor for augmentation sphere                                              
   RDEP   =    2.390    radius for radial grids                                                     
   RDEPT  =    1.838    core radius for aug-charge                                                  
                                                                                                    
   Atomic configuration                                                                             
    9 entries                                                                                       
     n  l   j            E        occ.                                                              
     1  0  0.50     -8206.4253   2.0000                                                             
     2  0  0.50      -976.1748   2.0000                                                             
     2  1  1.50      -839.0571   6.0000                                                             
     3  0  0.50      -105.9991   2.0000                                                             
     3  1  1.50       -66.4603   6.0000                                                             
     3  2  2.50        -4.6458   9.0000                                                             
     4  0  0.50        -4.4926   1.0000                                                             
     4  1  1.50        -4.0817   0.0000                                                             
     4  3  2.50        -1.3606   0.0000                                                             
   Description                                                                                      
     l       E           TYP  RCUT    TYP  RCUT                                                     
     2     -4.6457903     23  2.300                                                                 
     2     -6.0063729     23  2.300                                                                 
     0     -4.4925590     23  2.300                                                                 
     0      5.0102601     23  2.300                                                                 
     1     -2.7211652     23  2.300                                                                 
     1     16.5183231     23  2.300                                                                 
  local pseudopotential read in
  partial core-charges read in
  partial kinetic energy density read in
  atomic valenz-charges read in
  non local Contribution for L=           2  read in
    real space projection operators read in
  non local Contribution for L=           2  read in
    real space projection operators read in
  non local Contribution for L=           0  read in
    real space projection operators read in
  non local Contribution for L=           0  read in
    real space projection operators read in
  non local Contribution for L=           1  read in
    real space projection operators read in
  non local Contribution for L=           1  read in
    real space projection operators read in
    PAW grid and wavefunctions read in
 
   number of l-projection  operators is LMAX  =           6
   number of lm-projection operators is LMMAX =          18
 
 POTCAR:    PAW_PBE N 08Apr2002                   
   VRHFIN =N: s2p3                                                                                  
   LEXCH  = PE                                                                                      
   EATOM  =   264.5486 eV,   19.4438 Ry                                                             
                                                                                                    
   TITEL  = PAW_PBE N 08Apr2002                                                                     
   LULTRA =        F    use ultrasoft PP ?                                                          
   IUNSCR =        1    unscreen: 0-lin 1-nonlin 2-no                                               
   RPACOR =    1.200    partial core radius                                                         
   POMASS =   14.001; ZVAL   =    5.000    mass and valenz                                          
   RCORE  =    1.500    outmost cutoff radius                                                       
   RWIGS  =    1.400; RWIGS  =    0.741    wigner-seitz radius (au A)                               
   ENMAX  =  400.000; ENMIN  =  300.000 eV                                                          
   ICORE  =        2    local potential                                                             
   LCOR   =        T    correct aug charges                                                         
   LPAW   =        T    paw PP                                                                      
   EAUG   =  627.112                                                                                
   DEXC   =    0.000                                                                                
   RMAX   =    1.529    core radius for proj-oper                                                   
   RAUG   =    1.300    factor for augmentation sphere                                              
   RDEP   =    1.514    radius for radial grids                                                     
   RDEPT  =    1.338    core radius for aug-charge                                                  
                                                                                                    
   Atomic configuration                                                                             
    4 entries                                                                                       
     n  l   j            E        occ.                                                              
     1  0  0.50      -384.7179   2.0000                                                             
     2  0  0.50       -18.5828   2.0000                                                             
     2  1  0.50        -7.0898   3.0000                                                             
     3  2  1.50        -6.8029   0.0000                                                             
   Description                                                                                      
     l       E           TYP  RCUT    TYP  RCUT                                                     
     0    -18.5828119     23  1.200                                                                 
     0    -13.5018863     23  1.200                                                                 
     1     -7.0897853     23  1.500                                                                 
     1      9.5240782     23  1.500                                                                 
     2     -6.8029130      7  1.500                                                                 
  local pseudopotential read in
  partial core-charges read in
  partial kinetic energy density read in
  atomic valenz-charges read in
  non local Contribution for L=           0  read in
    real space projection operators read in
  non local Contribution for L=           0  read in
    real space projection operators read in
  non local Contribution for L=           1  read in
    real space projection operators read in
  non local Contribution for L=           1  read in
    real space projection operators read in
    PAW grid and wavefunctions read in
 
   number of l-projection  operators is LMAX  =           4
   number of lm-projection operators is LMMAX =           8
 
 Optimization of the real space projectors (new method)

 maximal supplied QI-value         = 15.12
 optimisation between [QCUT,QGAM] = [ 11.34, 22.83] = [ 36.00,145.93] Ry 
 Optimized for a Real-space Cutoff    1.43 Angstroem

   l    n(q)    QCUT    max X(q) W(low)/X(q) W(high)/X(q)  e(spline) 
   2      9    11.338    53.897    0.16E-03    0.20E-03    0.28E-06
   2      9    11.338    52.416    0.16E-03    0.20E-03    0.29E-06
   0     10    11.338   122.045    0.31E-04    0.76E-04    0.15E-06
   0     10    11.338    73.629    0.30E-04    0.72E-04    0.15E-06
   1      9    11.338    15.255    0.20E-03    0.19E-04    0.17E-06
   1      9    11.338     9.562    0.16E-03    0.15E-04    0.14E-06
 Optimization of the real space projectors (new method)

 maximal supplied QI-value         = 16.25
 optimisation between [QCUT,QGAM] = [ 11.38, 22.75] = [ 36.24,144.96] Ry 
 Optimized for a Real-space Cutoff    1.39 Angstroem

   l    n(q)    QCUT    max X(q) W(low)/X(q) W(high)/X(q)  e(spline) 
   2      8    11.376    60.317    0.19E-03    0.33E-04    0.13E-06
   2      8    11.376    55.921    0.20E-03    0.34E-04    0.14E-06
   0      9    11.376    51.690    0.82E-04    0.12E-03    0.20E-06
   0      9    11.376    30.015    0.74E-04    0.11E-03    0.18E-06
   1      9    11.376    18.849    0.39E-03    0.12E-03    0.13E-06
   1      9    11.376    14.624    0.33E-03    0.10E-03    0.11E-06
 Optimization of the real space projectors (new method)

 maximal supplied QI-value         = 25.13
 optimisation between [QCUT,QGAM] = [ 11.31, 22.87] = [ 35.82,146.48] Ry 
 Optimized for a Real-space Cutoff    1.27 Angstroem

   l    n(q)    QCUT    max X(q) W(low)/X(q) W(high)/X(q)  e(spline) 
   0      9    11.310    79.467    0.75E-04    0.16E-03    0.36E-06
   0      9    11.310    66.151    0.74E-04    0.16E-03    0.36E-06
   1      8    11.310    17.416    0.35E-03    0.12E-03    0.95E-06
   1      8    11.310    12.382    0.37E-03    0.13E-03    0.98E-06
  PAW_PBE Ag 02Apr2005                  :
 energy of atom  1       EATOM=-1037.2675
 kinetic energy error for atom=    0.0052 (will be added to EATOM!!)
  PAW_PBE Ni 02Aug2007                  :
 energy of atom  2       EATOM=-1077.6739
 kinetic energy error for atom=    0.0030 (will be added to EATOM!!)
  PAW_PBE N 08Apr2002                   :
 energy of atom  3       EATOM= -264.5486
 kinetic energy error for atom=    0.0138 (will be added to EATOM!!)
 
 
 POSCAR: Ag-Ni-N2
  positions in direct lattice
  velocities in cartesian coordinates
 exchange correlation table for  LEXCH =        8
   RHO(1)=    0.500       N(1)  =     2000
   RHO(2)=  100.500       N(2)  =     4000

 VTST: version 3.2, (02/03/18)

 CHAIN: initializing optimizer
 
 OPT: Using VASP Conjugate-Gradient optimizer
 CHAIN: Read ICHAIN            0
 
 POSCAR: Ag-Ni-N2
  positions in direct lattice
  velocities in cartesian coordinates
 


--------------------------------------------------------------------------------------------------------


 ion  position               nearest neighbor table
   1  0.000  0.000  0.238-   2 2.93   8 2.93   7 2.93   6 2.93   4 2.93  12 2.93  16 2.93  10 2.93
                             3 2.93
   2  0.333  0.000  0.238-   1 2.93   8 2.93   9 2.93   3 2.93   4 2.93   5 2.93  10 2.93  17 2.93
                            11 2.93
   3  0.667  0.000  0.238-   9 2.93   2 2.93   5 2.93  11 2.93   7 2.93  18 2.93   1 2.93   6 2.93
                            12 2.93
   4  0.000  0.333  0.238-   5 2.93   6 2.93   2 2.93   1 2.93   7 2.93  13 2.93  15 2.93   9 2.93
                            10 2.93
   5  0.333  0.333  0.238-   4 2.93   3 2.93   7 2.93   2 2.93   8 2.93  14 2.93  13 2.93  11 2.93
                             6 2.93
   6  0.667  0.333  0.238-   4 2.93   9 2.93   1 2.93  15 2.93   8 2.93  12 2.93   3 2.93   5 2.93
                            14 2.93
   7  0.000  0.667  0.238-   8 2.93   1 2.93   5 2.93   3 2.93   4 2.93  16 2.93  18 2.93  13 2.93
                             9 2.93
   8  0.333  0.667  0.238-   7 2.93   1 2.93   2 2.93   9 2.93   5 2.93  16 2.93   6 2.93  17 2.93
                            14 2.93
   9  0.667  0.667  0.238-   3 2.93   2 2.93   8 2.93   6 2.93  17 2.93   4 2.93  15 2.93   7 2.93
                            18 2.93
  10  0.111  0.111  0.346-  20 2.91  19 2.92  26 2.92  12 2.93  16 2.93  15 2.93  17 2.93  13 2.93
                            11 2.93   2 2.93   1 2.93   4 2.93
  11  0.444  0.111  0.346-  21 2.91  20 2.91  27 2.91  14 2.93  17 2.93  18 2.93   3 2.93  12 2.93
                            13 2.93  10 2.93   5 2.93   2 2.93
  12  0.778  0.111  0.346-  21 2.91  25 2.92  19 2.92  10 2.93  16 2.93  18 2.93  15 2.93  11 2.93
                             1 2.93  14 2.93   6 2.93   3 2.93
  13  0.111  0.444  0.346-  20 2.91  23 2.91  22 2.91  15 2.93  14 2.93  18 2.93  10 2.93  11 2.93
                            16 2.93   4 2.93   5 2.93   7 2.93
  14  0.444  0.444  0.346-  23 2.91  21 2.91  24 2.91  13 2.93  11 2.93  16 2.93   5 2.93  12 2.93
                            17 2.93   8 2.93  15 2.93   6 2.93
  15  0.778  0.444  0.346-  24 2.91  22 2.91  19 2.92  13 2.93  10 2.93  12 2.93  17 2.93  18 2.93
                             4 2.93   6 2.93   9 2.93  14 2.93
  16  0.111  0.778  0.346-  23 2.91  26 2.92  25 2.92  18 2.93  12 2.93  10 2.93  14 2.93  17 2.93
                            13 2.93   7 2.93   8 2.93   1 2.93
  17  0.444  0.778  0.346-  27 2.91  24 2.91  26 2.92  11 2.93  10 2.93   9 2.93  18 2.93  15 2.93
                            16 2.93   2 2.93  14 2.93   8 2.93
  18  0.778  0.778  0.346-  22 2.91  27 2.91  25 2.92  16 2.93  12 2.93  13 2.93  11 2.93  17 2.93
                            15 2.93   7 2.93   3 2.93   9 2.93
  19  0.889  0.223  0.454-  28 2.91  15 2.92  10 2.92  12 2.92  24 2.93  22 2.93  32 2.94  31 2.94
                            26 2.94  25 2.94  20 2.94  21 2.94
  20  0.223  0.223  0.453-  36 2.69  31 2.89  29 2.89  13 2.91  11 2.91  10 2.91  21 2.92  23 2.92
                            27 2.93  22 2.93  19 2.94  26 2.94
  21  0.554  0.223  0.453-  36 2.69  30 2.89  32 2.89  11 2.91  14 2.91  12 2.91  20 2.92  23 2.92
                            27 2.93  24 2.93  25 2.94  19 2.94
  22  0.889  0.556  0.453-  18 2.91  15 2.91  35 2.91  13 2.91  33 2.91  31 2.91  24 2.93  27 2.93
                            25 2.93  19 2.93  23 2.93  20 2.93
  23  0.223  0.554  0.453-  36 2.69  34 2.89  33 2.89  14 2.91  13 2.91  16 2.91  21 2.92  20 2.92
                            22 2.93  24 2.93  26 2.94  25 2.94
  24  0.556  0.556  0.453-  15 2.91  17 2.91  35 2.91  14 2.91  32 2.91  34 2.91  27 2.93  22 2.93
                            19 2.93  26 2.93  23 2.93  21 2.93
  25  0.889  0.889  0.454-  28 2.91  18 2.92  16 2.92  12 2.92  22 2.93  27 2.93  33 2.94  30 2.94
                            26 2.94  19 2.94  23 2.94  21 2.94
  26  0.223  0.889  0.454-  28 2.91  17 2.92  16 2.92  10 2.92  27 2.93  24 2.93  34 2.94  29 2.94
                            25 2.94  19 2.94  23 2.94  20 2.94
  27  0.556  0.889  0.453-  17 2.91  18 2.91  35 2.91  11 2.91  29 2.91  30 2.91  24 2.93  22 2.93
                            26 2.93  25 2.93  20 2.93  21 2.93
  28  0.000  0.000  0.560-  26 2.91  25 2.91  19 2.91  29 2.96  34 2.96  33 2.96  32 2.96  31 2.96
                            30 2.96
  29  0.333  0.007  0.560-  30 2.87  31 2.87  36 2.88  20 2.89  27 2.91  26 2.94  35 2.96  28 2.96
                            34 3.06
  30  0.659  0.007  0.560-  29 2.87  32 2.87  36 2.88  21 2.89  27 2.91  25 2.94  35 2.96  28 2.96
                            33 3.06
  31  0.007  0.333  0.560-  33 2.87  29 2.87  36 2.88  20 2.89  22 2.91  19 2.94  35 2.96  28 2.96
                            32 3.06
  32  0.659  0.333  0.560-  34 2.87  30 2.87  36 2.88  21 2.89  24 2.91  19 2.94  35 2.96  28 2.96
                            31 3.06
  33  0.007  0.659  0.560-  31 2.87  34 2.87  36 2.88  23 2.89  22 2.91  25 2.94  35 2.96  28 2.96
                            30 3.06
  34  0.333  0.659  0.560-  32 2.87  33 2.87  36 2.88  23 2.89  24 2.91  26 2.94  35 2.96  28 2.96
                            29 3.06
  35  0.667  0.667  0.560-  24 2.91  27 2.91  22 2.91  30 2.96  32 2.96  29 2.96  34 2.96  31 2.96
                            33 2.96
  36  0.333  0.333  0.547-  21 2.69  20 2.69  23 2.69  31 2.88  33 2.88  30 2.88  29 2.88  34 2.88
                            32 2.88
  37  0.278  0.318  0.740-  38 1.11
  38  0.404  0.318  0.740-  37 1.11
 
  LATTYP: Found a hexagonal cell.
 ALAT       =     8.7913665772
 C/A-ratio  =     2.5227160501
  
  Lattice vectors:
  
 A1 = (  -4.3956832886,  -7.6135467898,   0.0000000000)
 A2 = (   8.7913665771,   0.0000000000,   0.0000000000)
 A3 = (   0.0000000000,   0.0000000000,  22.1781215668)


Analysis of symmetry for initial positions (statically):
=====================================================================
 Subroutine PRICEL returns:
 Original cell was already a primitive cell.
 

 Routine SETGRP: Setting up the symmetry group for a 
 hexagonal supercell.


 Subroutine GETGRP returns: Found  2 space group operations
 (whereof  2 operations were pure point group operations)
 out of a pool of 24 trial point group operations.


The static configuration has the point symmetry C_1h.


Analysis of symmetry for dynamics (positions and initial velocities):
=====================================================================
 Subroutine PRICEL returns:
 Original cell was already a primitive cell.
 

 Routine SETGRP: Setting up the symmetry group for a 
 hexagonal supercell.


 Subroutine GETGRP returns: Found  2 space group operations
 (whereof  2 operations were pure point group operations)
 out of a pool of 24 trial point group operations.


The dynamic configuration has the point symmetry C_1h.


Analysis of constrained symmetry for selective dynamics:
=====================================================================
 Subroutine PRICEL returns:
 Original cell was already a primitive cell.
 

 Routine SETGRP: Setting up the symmetry group for a 
 hexagonal supercell.


 Subroutine GETGRP returns: Found  2 space group operations
 (whereof  2 operations were pure point group operations)
 out of a pool of 24 trial point group operations.


The constrained configuration has the point symmetry C_1h.


 Subroutine INISYM returns: Found  2 space group operations
 (whereof  2 operations are pure point group operations),
 and found     1 'primitive' translations


----------------------------------------------------------------------------------------

                                     Primitive cell                                     

  volume of cell :    1484.4589

  direct lattice vectors                    reciprocal lattice vectors
     8.791366577  0.000000000  0.000000000     0.113747958 -0.065672414  0.000000000
     4.395683289  7.613546790  0.000000000     0.000000000  0.131344829  0.000000000
     0.000000000  0.000000000 22.178121567     0.000000000  0.000000000  0.045089481

  length of vectors
     8.791366577  8.791366577 22.178121567     0.131344829  0.131344829  0.045089481

  position of ions in fractional coordinates (direct lattice)
     0.000000000  0.000000000  0.238171124
     0.333333313  0.000000000  0.238171124
     0.666666627  0.000000000  0.238171124
     0.000000000  0.333333343  0.238171124
     0.333333313  0.333333343  0.238171124
     0.666666687  0.333333343  0.238171124
     0.000000000  0.666666687  0.238171124
     0.333333313  0.666666687  0.238171124
     0.666666627  0.666666687  0.238171124
     0.111111104  0.111111112  0.346057051
     0.444444448  0.111111112  0.346057051
     0.777777791  0.111111112  0.346057051
     0.111111097  0.444444448  0.346057051
     0.444444418  0.444444448  0.346057051
     0.777777791  0.444444448  0.346057051
     0.111111104  0.777777791  0.346057051
     0.444444448  0.777777791  0.346057051
     0.777777791  0.777777791  0.346057051
     0.888663894  0.222672229  0.453518215
     0.222798372  0.222798387  0.452802886
     0.554403197  0.222798387  0.452802886
     0.888532437  0.555733812  0.452984190
     0.222798387  0.554403257  0.452802886
     0.555733812  0.555733812  0.452984190
     0.888663894  0.888663894  0.453518215
     0.222672199  0.888663894  0.453518215
     0.555733752  0.888532437  0.452984190
     0.000000000  0.000000000  0.560168321
     0.333353478  0.007230338  0.559929561
     0.659416125  0.007230338  0.559929561
     0.007230338  0.333353508  0.559929561
     0.659416185  0.333353508  0.559929561
     0.007230338  0.659416185  0.559929561
     0.333353478  0.659416185  0.559929561
     0.666666627  0.666666687  0.560024744
     0.333333313  0.333333343  0.547339070
     0.277721534  0.317872508  0.740241631
     0.404405927  0.317872508  0.740241631

  ion indices of the primitive-cell ions
   primitive index   ion index
                 1           1
                 2           2
                 3           3
                 4           4
                 5           5
                 6           6
                 7           7
                 8           8
                 9           9
                10          10
                11          11
                12          12
                13          13
                14          14
                15          15
                16          16
                17          17
                18          18
                19          19
                20          20
                21          21
                22          22
                23          23
                24          24
                25          25
                26          26
                27          27
                28          28
                29          29
                30          30
                31          31
                32          32
                33          33
                34          34
                35          35
                36          36
                37          37
                38          38

----------------------------------------------------------------------------------------

 
 
 KPOINTS: Automatic mesh                          

Automatic generation of k-mesh.
 Grid dimensions read from file:
 generate k-points for:    8    8    1

 Generating k-lattice:

  Cartesian coordinates                     Fractional coordinates (reciprocal lattice)
     0.014218495 -0.008209052  0.000000000     0.125000000  0.000000000  0.000000000
     0.000000000  0.016418104  0.000000000     0.000000000  0.125000000  0.000000000
     0.000000000  0.000000000  0.045089481     0.000000000  0.000000000  1.000000000

  Length of vectors
     0.016418104  0.016418104  0.045089481

  Shift w.r.t. Gamma in fractional coordinates (k-lattice)
     0.000000000  0.000000000  0.000000000

 TETIRR: Found    100 inequivalent tetrahedra from      384
 
 Subroutine IBZKPT returns following result:
 ===========================================
 
 Found     21 irreducible k-points:
 
 Following reciprocal coordinates:
            Coordinates               Weight
  0.000000  0.000000  0.000000      1.000000
  0.125000 -0.000000  0.000000      4.000000
  0.000000  0.125000  0.000000      2.000000
  0.250000 -0.000000  0.000000      4.000000
  0.000000  0.250000  0.000000      2.000000
  0.375000 -0.000000  0.000000      4.000000
  0.000000  0.375000  0.000000      2.000000
  0.500000 -0.000000  0.000000      2.000000
  0.000000  0.500000  0.000000      1.000000
  0.250000  0.125000  0.000000      2.000000
  0.125000  0.250000  0.000000      4.000000
  0.375000  0.125000  0.000000      4.000000
  0.250000  0.375000  0.000000      4.000000
 -0.125000  0.250000  0.000000      4.000000
  0.500000  0.125000  0.000000      4.000000
  0.375000  0.500000  0.000000      4.000000
 -0.125000  0.375000  0.000000      4.000000
  0.500000  0.250000  0.000000      2.000000
  0.250000  0.500000  0.000000      4.000000
 -0.375000  0.250000  0.000000      4.000000
 -0.250000  0.375000  0.000000      2.000000
 
 Following cartesian coordinates:
            Coordinates               Weight
  0.000000  0.000000  0.000000      1.000000
  0.014218 -0.008209  0.000000      4.000000
  0.000000  0.016418  0.000000      2.000000
  0.028437 -0.016418  0.000000      4.000000
  0.000000  0.032836  0.000000      2.000000
  0.042655 -0.024627  0.000000      4.000000
  0.000000  0.049254  0.000000      2.000000
  0.056874 -0.032836  0.000000      2.000000
  0.000000  0.065672  0.000000      1.000000
  0.028437 -0.000000  0.000000      2.000000
  0.014218  0.024627  0.000000      4.000000
  0.042655 -0.008209  0.000000      4.000000
  0.028437  0.032836  0.000000      4.000000
 -0.014218  0.041045  0.000000      4.000000
  0.056874 -0.016418  0.000000      4.000000
  0.042655  0.041045  0.000000      4.000000
 -0.014218  0.057463  0.000000      4.000000
  0.056874 -0.000000  0.000000      2.000000
  0.028437  0.049254  0.000000      4.000000
 -0.042655  0.057463  0.000000      4.000000
 -0.028437  0.065672  0.000000      2.000000
 


--------------------------------------------------------------------------------------------------------




 Dimension of arrays:
   k-points           NKPTS =     21   k-points in BZ     NKDIM =     21   number of bands    NBANDS=    252
   number of dos      NEDOS =    301   number of ions     NIONS =     38
   non local maximal  LDIM  =      6   non local SUM 2l+1 LMDIM =     18
   total plane-waves  NPLWV = 290304
   max r-space proj   IRMAX =   2452   max aug-charges    IRDMAX=   9814
   dimension x,y,z NGX =    48 NGY =   48 NGZ =  126
   dimension x,y,z NGXF=    96 NGYF=   96 NGZF=  252
   support grid    NGXF=    96 NGYF=   96 NGZF=  252
   ions per type =              35   1   2
   NGX,Y,Z   is equivalent  to a cutoff of   9.08,  9.08,  9.44 a.u.
   NGXF,Y,Z  is equivalent  to a cutoff of  18.15, 18.15, 18.89 a.u.

 SYSTEM =  unknown system                          
 POSCAR =  Ag-Ni-N2                                

 Startparameter for this run:
   NWRITE =      2    write-flag & timer
   PREC   = normal    normal or accurate (medium, high low for compatibility)
   ISTART =      0    job   : 0-new  1-cont  2-samecut
   ICHARG =     11    charge: 1-file 2-atom 10-const
   ISPIN  =      1    spin polarized calculation?
   LNONCOLLINEAR =      F non collinear calculations
   LSORBIT =      F    spin-orbit coupling
   INIWAV =      1    electr: 0-lowe 1-rand  2-diag
   LASPH  =      F    aspherical Exc in radial PAW
   METAGGA=      F    non-selfconsistent MetaGGA calc.

 Electronic Relaxation 1
   ENCUT  =  500.0 eV  36.75 Ry    6.06 a.u.  16.03 16.03 40.44*2*pi/ulx,y,z
   ENINI  =  500.0     initial cutoff
   ENAUG  =  627.1 eV  augmentation charge cutoff
   NELM   =    150;   NELMIN=  2; NELMDL= -5     # of ELM steps 
   EDIFF  = 0.1E-04   stopping-criterion for ELM
   LREAL  =      T    real-space projection
   NLSPLINE    = F    spline interpolate recip. space projectors
   LCOMPAT=      F    compatible to vasp.4.4
   GGA_COMPAT  = T    GGA compatible to vasp.4.4-vasp.4.6
   LMAXPAW     = -100 max onsite density
   LMAXMIX     =    2 max onsite mixed and CHGCAR
   VOSKOWN=      0    Vosko Wilk Nusair interpolation
   ROPT   =   -0.00050  -0.00050  -0.00050
 Ionic relaxation
   EDIFFG = -.1E-01   stopping-criterion for IOM
   NSW    =      0    number of steps for IOM
   NBLOCK =      1;   KBLOCK =      1    inner block; outer block 
   IBRION =     -1    ionic relax: 0-MD 1-quasi-New 2-CG
   NFREE  =      1    steps in history (QN), initial steepest desc. (CG)
   ISIF   =      2    stress and relaxation
   IWAVPR =     10    prediction:  0-non 1-charg 2-wave 3-comb
   ISYM   =      2    0-nonsym 1-usesym 2-fastsym
   LCORR  =      T    Harris-Foulkes like correction to forces

   POTIM  = 0.5000    time-step for ionic-motion
   TEIN   =    0.0    initial temperature
   TEBEG  =    0.0;   TEEND  =   0.0 temperature during run
   SMASS  =  -3.00    Nose mass-parameter (am)
   estimated Nose-frequenzy (Omega)   =  0.10E-29 period in steps = 0.13E+47 mass=  -0.177E-26a.u.
   SCALEE = 1.0000    scale energy and forces
   NPACO  =    256;   APACO  = 16.0  distance and # of slots for P.C.
   PSTRESS=    0.0 pullay stress

  Mass of Ions in am
   POMASS = 107.87 58.69 14.00
  Ionic Valenz
   ZVAL   =  11.00 10.00  5.00
  Atomic Wigner-Seitz radii
   RWIGS  =  -1.00 -1.00 -1.00
  virtual crystal weights 
   VCA    =   1.00  1.00  1.00
   NELECT =     405.0000    total number of electrons
   NUPDOWN=      -1.0000    fix difference up-down

 DOS related values:
   EMIN   =  10.00;   EMAX   =-10.00  energy-range for DOS
   EFERMI =   0.00
   ISMEAR =    -5;   SIGMA  =   0.10  broadening in eV -4-tet -1-fermi 0-gaus

 Electronic relaxation 2 (details)
   IALGO  =     68    algorithm
   LDIAG  =      T    sub-space diagonalisation (order eigenvalues)
   LSUBROT=      F    optimize rotation matrix (better conditioning)
   TURBO    =      0    0=normal 1=particle mesh
   IRESTART =      0    0=no restart 2=restart with 2 vectors
   NREBOOT  =      0    no. of reboots
   NMIN     =      0    reboot dimension
   EREF     =   0.00    reference energy to select bands
   IMIX   =      4    mixing-type and parameters
     AMIX     =   0.40;   BMIX     =  1.00
     AMIX_MAG =   1.60;   BMIX_MAG =  1.00
     AMIN     =   0.10
     WC   =   100.;   INIMIX=   1;  MIXPRE=   1;  MAXMIX= -45

 Intra band minimization:
   WEIMIN = 0.0000     energy-eigenvalue tresh-hold
   EBREAK =  0.99E-08  absolut break condition
   DEPER  =   0.30     relativ break condition  

   TIME   =   0.40     timestep for ELM

  volume/ion in A,a.u.               =      39.06       263.62
  Fermi-wavevector in a.u.,A,eV,Ry     =   1.061786  2.006485 15.339074  1.127390
  Thomas-Fermi vector in A             =   2.197214
 
 Write flags
   LWAVE        =      F    write WAVECAR
   LDOWNSAMPLE  =      F    k-point downsampling of WAVECAR
   LCHARG       =      F    write CHGCAR
   LVTOT        =      F    write LOCPOT, total local potential
   LVHAR        =      F    write LOCPOT, Hartree potential only
   LELF         =      F    write electronic localiz. function (ELF)
   LORBIT       =     10    0 simple, 1 ext, 2 COOP (PROOUT), +10 PAW based schemes


 Dipole corrections
   LMONO  =      F    monopole corrections only (constant potential shift)
   LDIPOL =      F    correct potential (dipole corrections)
   IDIPOL =      0    1-x, 2-y, 3-z, 4-all directions 
   EPSILON=  1.0000000 bulk dielectric constant

 Exchange correlation treatment:
   GGA     =    --    GGA type
   LEXCH   =     8    internal setting for exchange type
   VOSKOWN=      0    Vosko Wilk Nusair interpolation
   LHFCALC =     F    Hartree Fock is set to
   LHFONE  =     F    Hartree Fock one center treatment
   AEXX    =    0.0000 exact exchange contribution

 Linear response parameters
   LEPSILON=     F    determine dielectric tensor
   LRPA    =     F    only Hartree local field effects (RPA)
   LNABLA  =     F    use nabla operator in PAW spheres
   LVEL    =     F    velocity operator in full k-point grid
   LINTERFAST=   F  fast interpolation
   KINTER  =     0    interpolate to denser k-point grid
   CSHIFT  =0.1000    complex shift for real part using Kramers Kronig
   OMEGAMAX=  -1.0    maximum frequency
   DEG_THRESHOLD= 0.2000000E-02 threshold for treating states as degnerate
   RTIME   =   -0.100 relaxation time in fs
  (WPLASMAI=    0.000 imaginary part of plasma frequency in eV, 0.658/RTIME)
   DFIELD  = 0.0000000 0.0000000 0.0000000 field for delta impulse in time
 
 Orbital magnetization related:
   ORBITALMAG=     F  switch on orbital magnetization
   LCHIMAG   =     F  perturbation theory with respect to B field
   DQ        =  0.001000  dq finite difference perturbation B field
   LLRAUG    =     F  two centre corrections for induced B field



--------------------------------------------------------------------------------------------------------


 Static calculation
 charge density and potential remain constant during run
 non-spin polarized calculation
 RMM-DIIS sequential band-by-band and
  variant of blocked Davidson during initial phase
 perform sub-space diagonalisation
    before iterative eigenvector-optimisation
 no mixing
 using additional bands           49
 real space projection scheme for non local part
 use partial core corrections
 calculate Harris-corrections to forces 
   (improved forces if not selfconsistent)
 use gradient corrections 
 WARNING: stress and forces are not correct
  (second derivative of E(xc) not defined)
 use of overlap-Matrix (Vanderbilt PP)
 Fermi weights with tetrahedron method with Bloechl corrections


--------------------------------------------------------------------------------------------------------


  energy-cutoff  :      500.00
  volume of cell :     1484.46
      direct lattice vectors                 reciprocal lattice vectors
     8.791366577  0.000000000  0.000000000     0.113747958 -0.065672414  0.000000000
     4.395683289  7.613546790  0.000000000     0.000000000  0.131344829  0.000000000
     0.000000000  0.000000000 22.178121567     0.000000000  0.000000000  0.045089481

  length of vectors
     8.791366577  8.791366577 22.178121567     0.131344829  0.131344829  0.045089481


 
 k-points in units of 2pi/SCALE and weight: Automatic mesh                          
   0.00000000  0.00000000  0.00000000       0.016
   0.01421849 -0.00820905  0.00000000       0.062
   0.00000000  0.01641810  0.00000000       0.031
   0.02843699 -0.01641810  0.00000000       0.062
   0.00000000  0.03283621  0.00000000       0.031
   0.04265548 -0.02462716  0.00000000       0.062
   0.00000000  0.04925431  0.00000000       0.031
   0.05687398 -0.03283621  0.00000000       0.031
   0.00000000  0.06567241  0.00000000       0.016
   0.02843699 -0.00000000  0.00000000       0.031
   0.01421849  0.02462716  0.00000000       0.062
   0.04265548 -0.00820905  0.00000000       0.062
   0.02843699  0.03283621  0.00000000       0.062
  -0.01421849  0.04104526  0.00000000       0.062
   0.05687398 -0.01641810  0.00000000       0.062
   0.04265548  0.04104526  0.00000000       0.062
  -0.01421849  0.05746336  0.00000000       0.062
   0.05687398 -0.00000000  0.00000000       0.031
   0.02843699  0.04925431  0.00000000       0.062
  -0.04265548  0.05746336  0.00000000       0.062
  -0.02843699  0.06567241  0.00000000       0.031
 
 k-points in reciprocal lattice and weights: Automatic mesh                          
   0.00000000  0.00000000  0.00000000       0.016
   0.12500000 -0.00000000  0.00000000       0.062
   0.00000000  0.12500000  0.00000000       0.031
   0.25000000 -0.00000000  0.00000000       0.062
   0.00000000  0.25000000  0.00000000       0.031
   0.37500000 -0.00000000  0.00000000       0.062
   0.00000000  0.37500000  0.00000000       0.031
   0.50000000 -0.00000000  0.00000000       0.031
   0.00000000  0.50000000  0.00000000       0.016
   0.25000000  0.12500000  0.00000000       0.031
   0.12500000  0.25000000  0.00000000       0.062
   0.37500000  0.12500000  0.00000000       0.062
   0.25000000  0.37500000  0.00000000       0.062
  -0.12500000  0.25000000  0.00000000       0.062
   0.50000000  0.12500000  0.00000000       0.062
   0.37500000  0.50000000  0.00000000       0.062
  -0.12500000  0.37500000  0.00000000       0.062
   0.50000000  0.25000000  0.00000000       0.031
   0.25000000  0.50000000  0.00000000       0.062
  -0.37500000  0.25000000  0.00000000       0.062
  -0.25000000  0.37500000  0.00000000       0.031
 
 position of ions in fractional coordinates (direct lattice) 
   0.00000000  0.00000000  0.23817112
   0.33333331  0.00000000  0.23817112
   0.66666663  0.00000000  0.23817112
   0.00000000  0.33333334  0.23817112
   0.33333331  0.33333334  0.23817112
   0.66666669  0.33333334  0.23817112
   0.00000000  0.66666669  0.23817112
   0.33333331  0.66666669  0.23817112
   0.66666663  0.66666669  0.23817112
   0.11111110  0.11111111  0.34605705
   0.44444445  0.11111111  0.34605705
   0.77777779  0.11111111  0.34605705
   0.11111110  0.44444445  0.34605705
   0.44444442  0.44444445  0.34605705
   0.77777779  0.44444445  0.34605705
   0.11111110  0.77777779  0.34605705
   0.44444445  0.77777779  0.34605705
   0.77777779  0.77777779  0.34605705
   0.88866389  0.22267223  0.45351822
   0.22279837  0.22279839  0.45280289
   0.55440320  0.22279839  0.45280289
   0.88853244  0.55573381  0.45298419
   0.22279839  0.55440326  0.45280289
   0.55573381  0.55573381  0.45298419
   0.88866389  0.88866389  0.45351822
   0.22267220  0.88866389  0.45351822
   0.55573375  0.88853244  0.45298419
   0.00000000  0.00000000  0.56016832
   0.33335348  0.00723034  0.55992956
   0.65941612  0.00723034  0.55992956
   0.00723034  0.33335351  0.55992956
   0.65941618  0.33335351  0.55992956
   0.00723034  0.65941618  0.55992956
   0.33335348  0.65941618  0.55992956
   0.66666663  0.66666669  0.56002474
   0.33333331  0.33333334  0.54733907
   0.27772153  0.31787251  0.74024163
   0.40440593  0.31787251  0.74024163
 
 position of ions in cartesian coordinates  (Angst):
   0.00000000  0.00000000  5.28218814
   2.93045535  0.00000000  5.28218814
   5.86091070  0.00000000  5.28218814
   1.46522781  2.53784900  5.28218814
   4.39568315  2.53784900  5.28218814
   7.32613904  2.53784900  5.28218814
   2.93045562  5.07569801  5.28218814
   5.86091096  5.07569801  5.28218814
   8.79136632  5.07569801  5.28218814
   1.46522770  0.84594965  7.67489535
   4.39568332  0.84594965  7.67489535
   7.32613893  0.84594965  7.67489535
   2.93045542  3.38379860  7.67489535
   5.86091083  3.38379860  7.67489535
   8.79136671  3.38379860  7.67489535
   4.39568328  5.92164760  7.67489535
   7.32613890  5.92164760  7.67489535
  10.25659451  5.92164760  7.67489535
   8.79136665  1.69532543 10.05818211
   2.93805330  1.69628594 10.04231745
   5.85331288  1.69628594 10.04231745
  10.25424420  4.23110538 10.04633842
   4.39568342  4.22097513 10.04231745
   7.32848949  4.23110538 10.04633842
  11.71885508  6.76588413 10.05818211
   5.86387795  6.76588413 10.05818211
   8.79136631  6.76488328 10.04633842
   0.00000000  0.00000000 12.42348112
   2.96241490  0.05504851 12.41818588
   5.82895115  0.05504851 12.41818588
   1.52888099  2.53800253 12.41818588
   7.26248585  2.53800253 12.41818588
   2.96214925  5.02049598 12.41818588
   5.82921732  5.02049598 12.41818588
   8.79136632  5.07569801 12.42029685
   4.39568315  2.53784900 12.13895243
   3.83881868  2.42013721 16.41716889
   4.95254762  2.42013721 16.41716889
 


--------------------------------------------------------------------------------------------------------


 k-point   1 :   0.0000 0.0000 0.0000  plane waves:   37683
 k-point   2 :   0.1250-0.0000 0.0000  plane waves:   37658
 k-point   3 :   0.0000 0.1250 0.0000  plane waves:   37658
 k-point   4 :   0.2500-0.0000 0.0000  plane waves:   37682
 k-point   5 :   0.0000 0.2500 0.0000  plane waves:   37682
 k-point   6 :   0.3750-0.0000 0.0000  plane waves:   37686
 k-point   7 :   0.0000 0.3750 0.0000  plane waves:   37686
 k-point   8 :   0.5000-0.0000 0.0000  plane waves:   37668
 k-point   9 :   0.0000 0.5000 0.0000  plane waves:   37668
 k-point  10 :   0.2500 0.1250 0.0000  plane waves:   37666
 k-point  11 :   0.1250 0.2500 0.0000  plane waves:   37666
 k-point  12 :   0.3750 0.1250 0.0000  plane waves:   37708
 k-point  13 :   0.2500 0.3750 0.0000  plane waves:   37708
 k-point  14 :  -0.1250 0.2500 0.0000  plane waves:   37708
 k-point  15 :   0.5000 0.1250 0.0000  plane waves:   37726
 k-point  16 :   0.3750 0.5000 0.0000  plane waves:   37726
 k-point  17 :  -0.1250 0.3750 0.0000  plane waves:   37726
 k-point  18 :   0.5000 0.2500 0.0000  plane waves:   37706
 k-point  19 :   0.2500 0.5000 0.0000  plane waves:   37706
 k-point  20 :  -0.3750 0.2500 0.0000  plane waves:   37686
 k-point  21 :  -0.2500 0.3750 0.0000  plane waves:   37686

 maximum and minimum number of plane-waves per node :     37726    37658

 maximum number of plane-waves:     37726
 maximum index in each direction: 
   IXMAX=   16   IYMAX=   16   IZMAX=   40
   IXMIN=  -16   IYMIN=  -16   IZMIN=  -40


 serial   3D FFT for wavefunctions
 parallel 3D FFT for charge:
    minimum data exchange during FFTs selected (reduces bandwidth)


 total amount of memory used by VASP MPI-rank0   184002. kBytes
=======================================================================

   base      :      30000. kBytes
   nonlr-proj:      15034. kBytes
   fftplans  :       4330. kBytes
   grid      :      17879. kBytes
   one-center:        590. kBytes
   wavefun   :     116169. kBytes
 
     INWAV:  cpu time    0.0000: real time    0.0000
 initial charge density was supplied:
 number of electron     404.9999898 magnetization 
 keeping initial charge density in first step


--------------------------------------------------------------------------------------------------------


 Maximum index for non-local projection operator         2356
 Maximum index for augmentation-charges          702 (set IRDMAX)


--------------------------------------------------------------------------------------------------------


 First call to EWALD:  gamma=   0.155
 Maximum number of real-space cells 4x 4x 2
 Maximum number of reciprocal cells 2x 2x 5

    FEWALD:  cpu time    0.0013: real time    0.0013


--------------------------------------- Iteration      1(   1)  ---------------------------------------


    POTLOK:  cpu time    0.0546: real time    0.0549
    SETDIJ:  cpu time    0.0047: real time    0.0047
     EDDAV:  cpu time   15.1268: real time   15.1322
 BZINTS: Fermi energy:    9.735054;  405.000000 electrons
         Band energy: 0.130850E+04;  BLOECHL correction:   -0.013848
       DOS:  cpu time    0.0312: real time    0.0312
    --------------------------------------------
      LOOP:  cpu time   15.2173: real time   15.2231

 eigenvalue-minimisations  : 10584
 total energy-change (2. order) : 0.2511744E+04  (-0.1872574E+05)
 number of electron     404.9999898 magnetization 
 augmentation part      404.9999898 magnetization 

 Free energy of the ion-electron system (eV)
  ---------------------------------------------------
  alpha Z        PSCENC =       764.04638493
  Ewald energy   TEWEN  =     94342.88100377
  -Hartree energ DENC   =   -132962.48070832
  -exchange      EXHF   =         0.00000000
  -V(xc)+E(xc)   XCENC  =      -319.74089368
  PAW double counting   =     40302.18357350   -38834.57071053
  entropy T*S    EENTRO =         0.00000000
  eigenvalues    EBANDS =      1308.50398398
  atomic energy  EATOM  =     37910.92143469
  Solvation  Ediel_sol  =         0.00000000
  ---------------------------------------------------
  free energy    TOTEN  =      2511.74406834 eV

  energy without entropy =     2511.74406834  energy(sigma->0) =     2511.74406834


--------------------------------------------------------------------------------------------------------




--------------------------------------- Iteration      1(   2)  ---------------------------------------


     EDDAV:  cpu time   15.7956: real time   15.8003
 BZINTS: Fermi energy:    1.444666;  405.000000 electrons
         Band energy:-0.120942E+04;  BLOECHL correction:   -0.035164
       DOS:  cpu time    0.0283: real time    0.0283
    --------------------------------------------
      LOOP:  cpu time   15.8239: real time   15.8286

 eigenvalue-minimisations  : 11172
 total energy-change (2. order) :-0.2517924E+04  (-0.2401339E+04)
 number of electron     404.9999898 magnetization 
 augmentation part      404.9999898 magnetization 

 Free energy of the ion-electron system (eV)
  ---------------------------------------------------
  alpha Z        PSCENC =       764.04638493
  Ewald energy   TEWEN  =     94342.88100377
  -Hartree energ DENC   =   -132962.48070832
  -exchange      EXHF   =         0.00000000
  -V(xc)+E(xc)   XCENC  =      -319.74089368
  PAW double counting   =     40302.18357350   -38834.57071053
  entropy T*S    EENTRO =         0.00000000
  eigenvalues    EBANDS =     -1209.42047510
  atomic energy  EATOM  =     37910.92143469
  Solvation  Ediel_sol  =         0.00000000
  ---------------------------------------------------
  free energy    TOTEN  =        -6.18039074 eV

  energy without entropy =       -6.18039074  energy(sigma->0) =       -6.18039074


--------------------------------------------------------------------------------------------------------




--------------------------------------- Iteration      1(   3)  ---------------------------------------


     EDDAV:  cpu time   17.2437: real time   17.2485
 BZINTS: Fermi energy:    0.912804;  405.000000 electrons
         Band energy:-0.131183E+04;  BLOECHL correction:   -0.075590
       DOS:  cpu time    0.0285: real time    0.0285
    --------------------------------------------
      LOOP:  cpu time   17.2722: real time   17.2770

 eigenvalue-minimisations  : 12432
 total energy-change (2. order) :-0.1024063E+03  (-0.1008116E+03)
 number of electron     404.9999898 magnetization 
 augmentation part      404.9999898 magnetization 

 Free energy of the ion-electron system (eV)
  ---------------------------------------------------
  alpha Z        PSCENC =       764.04638493
  Ewald energy   TEWEN  =     94342.88100377
  -Hartree energ DENC   =   -132962.48070832
  -exchange      EXHF   =         0.00000000
  -V(xc)+E(xc)   XCENC  =      -319.74089368
  PAW double counting   =     40302.18357350   -38834.57071053
  entropy T*S    EENTRO =         0.00000000
  eigenvalues    EBANDS =     -1311.82673178
  atomic energy  EATOM  =     37910.92143469
  Solvation  Ediel_sol  =         0.00000000
  ---------------------------------------------------
  free energy    TOTEN  =      -108.58664742 eV

  energy without entropy =     -108.58664742  energy(sigma->0) =     -108.58664742


--------------------------------------------------------------------------------------------------------




--------------------------------------- Iteration      1(   4)  ---------------------------------------


     EDDAV:  cpu time   16.1104: real time   16.1153
 BZINTS: Fermi energy:    0.903855;  405.000000 electrons
         Band energy:-0.131332E+04;  BLOECHL correction:   -0.075908
       DOS:  cpu time    0.0301: real time    0.0301
    --------------------------------------------
      LOOP:  cpu time   16.1405: real time   16.1454

 eigenvalue-minimisations  : 11452
 total energy-change (2. order) :-0.1493144E+01  (-0.1490265E+01)
 number of electron     404.9999898 magnetization 
 augmentation part      404.9999898 magnetization 

 Free energy of the ion-electron system (eV)
  ---------------------------------------------------
  alpha Z        PSCENC =       764.04638493
  Ewald energy   TEWEN  =     94342.88100377
  -Hartree energ DENC   =   -132962.48070832
  -exchange      EXHF   =         0.00000000
  -V(xc)+E(xc)   XCENC  =      -319.74089368
  PAW double counting   =     40302.18357350   -38834.57071053
  entropy T*S    EENTRO =         0.00000000
  eigenvalues    EBANDS =     -1313.31987593
  atomic energy  EATOM  =     37910.92143469
  Solvation  Ediel_sol  =         0.00000000
  ---------------------------------------------------
  free energy    TOTEN  =      -110.07979157 eV

  energy without entropy =     -110.07979157  energy(sigma->0) =     -110.07979157


--------------------------------------------------------------------------------------------------------




--------------------------------------- Iteration      1(   5)  ---------------------------------------


     EDDAV:  cpu time   18.4299: real time   18.4349
 BZINTS: Fermi energy:    0.903667;  405.000000 electrons
         Band energy:-0.131336E+04;  BLOECHL correction:   -0.075889
       DOS:  cpu time    0.0302: real time    0.0302
    --------------------------------------------
      LOOP:  cpu time   18.4601: real time   18.4651

 eigenvalue-minimisations  : 13468
 total energy-change (2. order) :-0.3521844E-01  (-0.3522966E-01)
 number of electron     404.9999898 magnetization 
 augmentation part      404.9999898 magnetization 

 Free energy of the ion-electron system (eV)
  ---------------------------------------------------
  alpha Z        PSCENC =       764.04638493
  Ewald energy   TEWEN  =     94342.88100377
  -Hartree energ DENC   =   -132962.48070832
  -exchange      EXHF   =         0.00000000
  -V(xc)+E(xc)   XCENC  =      -319.74089368
  PAW double counting   =     40302.18357350   -38834.57071053
  entropy T*S    EENTRO =         0.00000000
  eigenvalues    EBANDS =     -1313.35509438
  atomic energy  EATOM  =     37910.92143469
  Solvation  Ediel_sol  =         0.00000000
  ---------------------------------------------------
  free energy    TOTEN  =      -110.11501002 eV

  energy without entropy =     -110.11501002  energy(sigma->0) =     -110.11501002


--------------------------------------------------------------------------------------------------------




--------------------------------------- Iteration      1(   6)  ---------------------------------------


    EDDIAG:  cpu time    2.9616: real time    2.9627
  RMM-DIIS:  cpu time    8.2452: real time    8.2475
    ORTHCH:  cpu time    0.5489: real time    0.5492
 BZINTS: Fermi energy:    0.903663;  405.000000 electrons
         Band energy:-0.131336E+04;  BLOECHL correction:   -0.075888
       DOS:  cpu time    0.0269: real time    0.0269
    --------------------------------------------
      LOOP:  cpu time   11.7826: real time   11.7863

 eigenvalue-minimisations  : 10666
 total energy-change (2. order) :-0.6560936E-03  (-0.6560894E-03)
 number of electron     404.9999898 magnetization 
 augmentation part      404.9999898 magnetization 

 Free energy of the ion-electron system (eV)
  ---------------------------------------------------
  alpha Z        PSCENC =       764.04638493
  Ewald energy   TEWEN  =     94342.88100377
  -Hartree energ DENC   =   -132962.48070832
  -exchange      EXHF   =         0.00000000
  -V(xc)+E(xc)   XCENC  =      -319.74089368
  PAW double counting   =     40302.18357350   -38834.57071053
  entropy T*S    EENTRO =         0.00000000
  eigenvalues    EBANDS =     -1313.35575047
  atomic energy  EATOM  =     37910.92143469
  Solvation  Ediel_sol  =         0.00000000
  ---------------------------------------------------
  free energy    TOTEN  =      -110.11566611 eV

  energy without entropy =     -110.11566611  energy(sigma->0) =     -110.11566611


--------------------------------------------------------------------------------------------------------




--------------------------------------- Iteration      1(   7)  ---------------------------------------


    EDDIAG:  cpu time    2.9619: real time    2.9627
  RMM-DIIS:  cpu time   11.6613: real time   11.6645
    ORTHCH:  cpu time    0.5477: real time    0.5480
 BZINTS: Fermi energy:    0.903662;  405.000000 electrons
         Band energy:-0.131336E+04;  BLOECHL correction:   -0.075888
       DOS:  cpu time    0.0283: real time    0.0283
    --------------------------------------------
      LOOP:  cpu time   15.1992: real time   15.2035

 eigenvalue-minimisations  : 14937
 total energy-change (2. order) :-0.2488292E-03  (-0.2451460E-03)
 number of electron     404.9999898 magnetization 
 augmentation part      404.9999898 magnetization 

 Free energy of the ion-electron system (eV)
  ---------------------------------------------------
  alpha Z        PSCENC =       764.04638493
  Ewald energy   TEWEN  =     94342.88100377
  -Hartree energ DENC   =   -132962.48070832
  -exchange      EXHF   =         0.00000000
  -V(xc)+E(xc)   XCENC  =      -319.74089368
  PAW double counting   =     40302.18357350   -38834.57071053
  entropy T*S    EENTRO =         0.00000000
  eigenvalues    EBANDS =     -1313.35599930
  atomic energy  EATOM  =     37910.92143469
  Solvation  Ediel_sol  =         0.00000000
  ---------------------------------------------------
  free energy    TOTEN  =      -110.11591494 eV

  energy without entropy =     -110.11591494  energy(sigma->0) =     -110.11591494


--------------------------------------------------------------------------------------------------------




--------------------------------------- Iteration      1(   8)  ---------------------------------------


    EDDIAG:  cpu time    2.9619: real time    2.9630
  RMM-DIIS:  cpu time    8.8137: real time    8.8160
    ORTHCH:  cpu time    0.5481: real time    0.5481
 BZINTS: Fermi energy:    0.903662;  405.000000 electrons
         Band energy:-0.131336E+04;  BLOECHL correction:   -0.075888
       DOS:  cpu time    0.0302: real time    0.0302
    --------------------------------------------
      LOOP:  cpu time   12.3539: real time   12.3573

 eigenvalue-minimisations  : 10385
 total energy-change (2. order) :-0.1928405E-04  (-0.1925396E-04)
 number of electron     404.9999898 magnetization 
 augmentation part      404.9999898 magnetization 

 Free energy of the ion-electron system (eV)
  ---------------------------------------------------
  alpha Z        PSCENC =       764.04638493
  Ewald energy   TEWEN  =     94342.88100377
  -Hartree energ DENC   =   -132962.48070832
  -exchange      EXHF   =         0.00000000
  -V(xc)+E(xc)   XCENC  =      -319.74089368
  PAW double counting   =     40302.18357350   -38834.57071053
  entropy T*S    EENTRO =         0.00000000
  eigenvalues    EBANDS =     -1313.35601858
  atomic energy  EATOM  =     37910.92143469
  Solvation  Ediel_sol  =         0.00000000
  ---------------------------------------------------
  free energy    TOTEN  =      -110.11593422 eV

  energy without entropy =     -110.11593422  energy(sigma->0) =     -110.11593422


--------------------------------------------------------------------------------------------------------




--------------------------------------- Iteration      1(   9)  ---------------------------------------


    EDDIAG:  cpu time    2.9589: real time    2.9598
  RMM-DIIS:  cpu time    6.7858: real time    6.7878
    ORTHCH:  cpu time    0.5487: real time    0.5489
 BZINTS: Fermi energy:    0.903662;  405.000000 electrons
         Band energy:-0.131336E+04;  BLOECHL correction:   -0.075888
       DOS:  cpu time    0.0289: real time    0.0289
    --------------------------------------------
      LOOP:  cpu time   10.3223: real time   10.3253

 eigenvalue-minimisations  :  7332
 total energy-change (2. order) :-0.3607594E-05  (-0.3614354E-05)
 number of electron     404.9999898 magnetization 
 augmentation part      404.9999898 magnetization 

 Free energy of the ion-electron system (eV)
  ---------------------------------------------------
  alpha Z        PSCENC =       764.04638493
  Ewald energy   TEWEN  =     94342.88100377
  -Hartree energ DENC   =   -132962.48070832
  -exchange      EXHF   =         0.00000000
  -V(xc)+E(xc)   XCENC  =      -319.74089368
  PAW double counting   =     40302.18357350   -38834.57071053
  entropy T*S    EENTRO =         0.00000000
  eigenvalues    EBANDS =     -1313.35602219
  atomic energy  EATOM  =     37910.92143469
  Solvation  Ediel_sol  =         0.00000000
  ---------------------------------------------------
  free energy    TOTEN  =      -110.11593783 eV

  energy without entropy =     -110.11593783  energy(sigma->0) =     -110.11593783


--------------------------------------------------------------------------------------------------------




 average (electrostatic) potential at core
  the test charge radii are     1.1249  0.9791  0.7089
  (the norm of the test charge is              1.0000)
       1 -77.9690       2 -77.9572       3 -77.9572       4 -77.9573       5 -77.9579
       6 -77.9570       7 -77.9571       8 -77.9569       9 -77.9660      10 -78.1941
      11 -78.1944      12 -78.1938      13 -78.1945      14 -78.1941      15 -78.1948
      16 -78.1937      17 -78.1946      18 -78.1947      19 -78.1748      20 -78.1773
      21 -78.1769      22 -78.1896      23 -78.1770      24 -78.1891      25 -78.1747
      26 -78.1747      27 -78.1893      28 -77.9370      29 -77.9037      30 -77.9036
      31 -77.9017      32 -77.9012      33 -77.9036      34 -77.9033      35 -77.9284
      36 -89.3928      37 -70.7488      38 -70.7492
 
 
 
 E-fermi :   0.9037     XC(G=0):  -6.1027     alpha+bet : -5.6496

 Fermi energy:         0.9036621162

 k-point     1 :       0.0000    0.0000    0.0000
  band No.  band energies     occupation 
      1     -22.7589      2.00000
      2      -8.1263      2.00000
      3      -6.2016      2.00000
      4      -6.1244      2.00000
      5      -6.1230      2.00000
      6      -5.3255      2.00000
      7      -5.0347      2.00000
      8      -4.9247      2.00000
      9      -4.9178      2.00000
     10      -4.9155      2.00000
     11      -4.9155      2.00000
     12      -4.9066      2.00000
     13      -4.9065      2.00000
     14      -4.8884      2.00000
     15      -4.8734      2.00000
     16      -4.8689      2.00000
     17      -4.8688      2.00000
     18      -4.8598      2.00000
     19      -4.8597      2.00000
     20      -4.8258      2.00000
     21      -4.7551      2.00000
     22      -4.7082      2.00000
     23      -4.6998      2.00000
     24      -4.6983      2.00000
     25      -4.6982      2.00000
     26      -4.6952      2.00000
     27      -4.6951      2.00000
     28      -4.5147      2.00000
     29      -4.5084      2.00000
     30      -4.5084      2.00000
     31      -4.5028      2.00000
     32      -4.4842      2.00000
     33      -4.4718      2.00000
     34      -4.4698      2.00000
     35      -4.4698      2.00000
     36      -4.4585      2.00000
     37      -4.4585      2.00000
     38      -4.4427      2.00000
     39      -4.4427      2.00000
     40      -4.3521      2.00000
     41      -4.3386      2.00000
     42      -4.3384      2.00000
     43      -4.3222      2.00000
     44      -4.1875      2.00000
     45      -4.1874      2.00000
     46      -4.1313      2.00000
     47      -4.1312      2.00000
     48      -4.1159      2.00000
     49      -4.1125      2.00000
     50      -4.1125      2.00000
     51      -4.0960      2.00000
     52      -4.0824      2.00000
     53      -4.0823      2.00000
     54      -4.0309      2.00000
     55      -4.0308      2.00000
     56      -3.9635      2.00000
     57      -3.9628      2.00000
     58      -3.9437      2.00000
     59      -3.9301      2.00000
     60      -3.7293      2.00000
     61      -3.7231      2.00000
     62      -3.7185      2.00000
     63      -3.7184      2.00000
     64      -3.7107      2.00000
     65      -3.7107      2.00000
     66      -3.6897      2.00000
     67      -3.6836      2.00000
     68      -3.6836      2.00000
     69      -3.6606      2.00000
     70      -3.6606      2.00000
     71      -3.5607      2.00000
     72      -3.5607      2.00000
     73      -3.5524      2.00000
     74      -3.5458      2.00000
     75      -3.5455      2.00000
     76      -3.5372      2.00000
     77      -3.5308      2.00000
     78      -3.5308      2.00000
     79      -3.5115      2.00000
     80      -3.5114      2.00000
     81      -3.5005      2.00000
     82      -3.4831      2.00000
     83      -3.4830      2.00000
     84      -3.4803      2.00000
     85      -3.4520      2.00000
     86      -3.4445      2.00000
     87      -3.4444      2.00000
     88      -3.4080      2.00000
     89      -3.4080      2.00000
     90      -3.3403      2.00000
     91      -3.3400      2.00000
     92      -3.3396      2.00000
     93      -3.3076      2.00000
     94      -3.3074      2.00000
     95      -3.2650      2.00000
     96      -3.2649      2.00000
     97      -3.2587      2.00000
     98      -3.2585      2.00000
     99      -3.2352      2.00000
    100      -3.2351      2.00000
    101      -3.2137      2.00000
    102      -3.1455      2.00000
    103      -3.1451      2.00000
    104      -3.0166      2.00000
    105      -3.0135      2.00000
    106      -3.0135      2.00000
    107      -2.9958      2.00000
    108      -2.9791      2.00000
    109      -2.9790      2.00000
    110      -2.9470      2.00000
    111      -2.9365      2.00000
    112      -2.9362      2.00000
    113      -2.9305      2.00000
    114      -2.9301      2.00000
    115      -2.8845      2.00000
    116      -2.8789      2.00000
    117      -2.8010      2.00000
    118      -2.8009      2.00000
    119      -2.7928      2.00000
    120      -2.7432      2.00000
    121      -2.7432      2.00000
    122      -2.7217      2.00000
    123      -2.7216      2.00000
    124      -2.6683      2.00000
    125      -2.6682      2.00000
    126      -2.6550      2.00000
    127      -2.6422      2.00000
    128      -2.6419      2.00000
    129      -2.6338      2.00000
    130      -2.6337      2.00000
    131      -2.6165      2.00000
    132      -2.6164      2.00000
    133      -2.6138      2.00000
    134      -2.6084      2.00000
    135      -2.6057      2.00000
    136      -2.5983      2.00000
    137      -2.5981      2.00000
    138      -2.4700      2.00000
    139      -2.4699      2.00000
    140      -2.4262      2.00000
    141      -2.4168      2.00000
    142      -2.4166      2.00000
    143      -2.4076      2.00000
    144      -2.4074      2.00000
    145      -2.4027      2.00000
    146      -2.4026      2.00000
    147      -2.4024      2.00000
    148      -2.3954      2.00000
    149      -2.3895      2.00000
    150      -2.3688      2.00000
    151      -2.3685      2.00000
    152      -2.3271      2.00000
    153      -2.3130      2.00000
    154      -2.3106      2.00000
    155      -2.3106      2.00000
    156      -2.3038      2.00000
    157      -2.3030      2.00000
    158      -2.3029      2.00000
    159      -2.2874      2.00000
    160      -2.2508      2.00000
    161      -2.2508      2.00000
    162      -2.2385      2.00000
    163      -2.2317      2.00000
    164      -2.2316      2.00000
    165      -2.2123      2.00000
    166      -2.2118      2.00000
    167      -2.2118      2.00000
    168      -2.2107      2.00000
    169      -2.1749      2.00000
    170      -2.1626      2.00000
    171      -2.1626      2.00000
    172      -2.1545      2.00000
    173      -2.1447      2.00000
    174      -2.1447      2.00000
    175      -2.1268      2.00000
    176      -2.0954      2.00000
    177      -2.0954      2.00000
    178      -2.0478      2.00000
    179      -2.0477      2.00000
    180      -2.0178      2.00000
    181      -2.0177      2.00000
    182      -1.9945      2.00000
    183      -1.9855      2.00000
    184      -1.9583      2.00000
    185      -1.9145      2.00000
    186      -1.9144      2.00000
    187      -1.9082      2.00000
    188      -1.9037      2.00000
    189      -1.9036      2.00000
    190      -1.1671      2.00000
    191      -1.1670      2.00000
    192      -1.1393      2.00000
    193      -1.1381      2.00000
    194      -1.1379      2.00000
    195      -1.1102      2.00000
    196       0.0676      2.00000
    197       0.1997      2.00000
    198       0.2551      2.00000
    199       0.2552      2.00000
    200       0.3310      2.00000
    201       0.3312      2.00000
    202       0.5918      2.00000
    203       0.6371      2.00000
    204       0.6383      2.00000
    205       0.6933      2.19160
    206       0.6934      2.09202
    207       0.8242      0.37511
    208       1.3393      0.00000
    209       2.8152      0.00000
    210       2.8430      0.00000
    211       2.8540      0.00000
    212       2.8558      0.00000
    213       2.8896      0.00000
    214       2.8909      0.00000
    215       3.2687      0.00000
    216       3.3096      0.00000
    217       4.1569      0.00000
    218       4.1915      0.00000
    219       4.3416      0.00000
    220       4.3419      0.00000
    221       4.3509      0.00000
    222       4.3512      0.00000
    223       5.0231      0.00000
    224       5.0487      0.00000
    225       5.0931      0.00000
    226       5.1045      0.00000
    227       5.1516      0.00000
    228       5.1541      0.00000
    229       5.1594      0.00000
    230       5.1826      0.00000
    231       5.2132      0.00000
    232       5.2164      0.00000
    233       5.2250      0.00000
    234       5.2994      0.00000
    235       5.4508      0.00000
    236       5.4855      0.00000
    237       6.3931      0.00000
    238       6.6840      0.00000
    239       6.7521      0.00000
    240       6.7527      0.00000
    241       6.7867      0.00000
    242       6.7901      0.00000
    243       6.9112      0.00000
    244       6.9749      0.00000
    245       7.0137      0.00000
    246       7.0468      0.00000
    247       7.1029      0.00000
    248       7.1133      0.00000
    249       7.1439      0.00000
    250       7.2868      0.00000
    251       7.3519      0.00000
    252       7.3999      0.00000

 k-point     2 :       0.1250   -0.0000    0.0000
  band No.  band energies     occupation 
      1     -22.7589      2.00000
      2      -8.1263      2.00000
      3      -6.1571      2.00000
      4      -6.1232      2.00000
      5      -6.1228      2.00000
      6      -5.2850      2.00000
      7      -5.0031      2.00000
      8      -4.9706      2.00000
      9      -4.9420      2.00000
     10      -4.9184      2.00000
     11      -4.9107      2.00000
     12      -4.9095      2.00000
     13      -4.8901      2.00000
     14      -4.8851      2.00000
     15      -4.8800      2.00000
     16      -4.8698      2.00000
     17      -4.8209      2.00000
     18      -4.8071      2.00000
     19      -4.7948      2.00000
     20      -4.7894      2.00000
     21      -4.7755      2.00000
     22      -4.7548      2.00000
     23      -4.7446      2.00000
     24      -4.7419      2.00000
     25      -4.6409      2.00000
     26      -4.6339      2.00000
     27      -4.5898      2.00000
     28      -4.5808      2.00000
     29      -4.5685      2.00000
     30      -4.5620      2.00000
     31      -4.5126      2.00000
     32      -4.5071      2.00000
     33      -4.4756      2.00000
     34      -4.4647      2.00000
     35      -4.4357      2.00000
     36      -4.4265      2.00000
     37      -4.4211      2.00000
     38      -4.3872      2.00000
     39      -4.3620      2.00000
     40      -4.3607      2.00000
     41      -4.3221      2.00000
     42      -4.3161      2.00000
     43      -4.2658      2.00000
     44      -4.1978      2.00000
     45      -4.1958      2.00000
     46      -4.1808      2.00000
     47      -4.1729      2.00000
     48      -4.1634      2.00000
     49      -4.1298      2.00000
     50      -4.1213      2.00000
     51      -4.1170      2.00000
     52      -4.1019      2.00000
     53      -4.0613      2.00000
     54      -4.0275      2.00000
     55      -4.0129      2.00000
     56      -3.9504      2.00000
     57      -3.9413      2.00000
     58      -3.9211      2.00000
     59      -3.9088      2.00000
     60      -3.7505      2.00000
     61      -3.7444      2.00000
     62      -3.7393      2.00000
     63      -3.7246      2.00000
     64      -3.7190      2.00000
     65      -3.7166      2.00000
     66      -3.7024      2.00000
     67      -3.6894      2.00000
     68      -3.6804      2.00000
     69      -3.6744      2.00000
     70      -3.6434      2.00000
     71      -3.5991      2.00000
     72      -3.5741      2.00000
     73      -3.5734      2.00000
     74      -3.5667      2.00000
     75      -3.5664      2.00000
     76      -3.5391      2.00000
     77      -3.5308      2.00000
     78      -3.5247      2.00000
     79      -3.5210      2.00000
     80      -3.5159      2.00000
     81      -3.5048      2.00000
     82      -3.4908      2.00000
     83      -3.4839      2.00000
     84      -3.4695      2.00000
     85      -3.4686      2.00000
     86      -3.4480      2.00000
     87      -3.4478      2.00000
     88      -3.4258      2.00000
     89      -3.4057      2.00000
     90      -3.3945      2.00000
     91      -3.3880      2.00000
     92      -3.3830      2.00000
     93      -3.3400      2.00000
     94      -3.3389      2.00000
     95      -3.2906      2.00000
     96      -3.2742      2.00000
     97      -3.2454      2.00000
     98      -3.2327      2.00000
     99      -3.1562      2.00000
    100      -3.1489      2.00000
    101      -3.1396      2.00000
[...]
  0.000   0.000   0.000   0.000   0.000   0.000   0.000   0.000   0.000   0.000   0.000   0.000   0.000   0.000   0.000   0.000
  0.000   0.000   0.000   0.000   0.000   0.000   0.000   0.000   0.000   0.000   0.000   0.000   0.000   0.000   0.000   0.000
  0.000   0.000   0.000   0.000   0.000   0.000   0.000   0.000   0.000   0.000   1.000   0.000   0.000   0.000   0.000   0.000
  0.000   0.000   0.000   0.000   0.000   0.000   0.000   0.000   0.000   0.000   0.000   0.000   0.000   0.000   0.000   0.000
  0.000   0.000   0.000   0.000   0.000   0.000   0.000   0.000   0.000   0.000   0.000   0.000   0.000   0.000   0.000   0.000
  0.000   0.000   0.000   0.000   0.000   0.000   0.000   0.000   0.000   0.000   0.000   0.000   0.000   0.000   0.000   0.000
  0.000   0.000   0.000   0.000   0.000   0.000   0.000   0.000   0.000   0.000   0.000   0.000   0.000   0.000   0.000   0.000
  0.000   0.000   0.000   0.000   0.000   0.000   0.000   0.000   0.000   0.000   0.000   0.000   0.000   0.000   0.000   0.000
  0.000   0.000   0.000   0.000   0.000   0.000   0.000   0.000   0.000   0.000   0.000   0.000   0.000   0.000   0.000   0.000
  0.000   0.000   0.000   0.000   0.000   0.000   0.000   0.000   0.000   0.000   0.000   0.000   0.000   0.000   0.000   0.000


------------------------ aborting loop because EDIFF is reached ----------------------------------------





 total charge

# of ion       s       p       d       tot
------------------------------------------
    1        0.415   0.204   9.177   9.796
    2        0.417   0.203   9.177   9.797
    3        0.417   0.203   9.177   9.797
    4        0.417   0.203   9.177   9.797
    5        0.414   0.203   9.178   9.795
    6        0.417   0.203   9.177   9.797
    7        0.417   0.203   9.177   9.797
    8        0.417   0.203   9.177   9.797
    9        0.417   0.203   9.177   9.798
   10        0.406   0.269   9.164   9.839
   11        0.406   0.269   9.166   9.842
   12        0.406   0.269   9.164   9.839
   13        0.406   0.269   9.166   9.842
   14        0.406   0.269   9.166   9.842
   15        0.405   0.269   9.166   9.840
   16        0.406   0.269   9.164   9.839
   17        0.405   0.270   9.166   9.840
   18        0.405   0.270   9.166   9.840
   19        0.403   0.267   9.167   9.837
   20        0.415   0.287   9.156   9.858
   21        0.415   0.287   9.156   9.858
   22        0.402   0.273   9.166   9.841
   23        0.415   0.287   9.156   9.858
   24        0.402   0.273   9.166   9.841
   25        0.403   0.267   9.167   9.837
   26        0.403   0.267   9.167   9.837
   27        0.402   0.273   9.166   9.841
   28        0.412   0.194   9.180   9.787
   29        0.417   0.203   9.175   9.795
   30        0.417   0.203   9.175   9.795
   31        0.416   0.203   9.175   9.794
   32        0.416   0.203   9.175   9.794
   33        0.417   0.203   9.175   9.794
   34        0.417   0.203   9.175   9.794
   35        0.411   0.195   9.181   9.787
   36        0.378   0.200   8.413   8.991
   37        1.373   2.469   0.000   3.842
   38        1.373   2.469   0.000   3.842
--------------------------------------------------
tot         17.507  13.472 329.379 360.357
 
    CHARGE:  cpu time    0.6793: real time    0.6794
    FORLOC:  cpu time    0.0103: real time    0.0105
    FORNL :  cpu time    3.0594: real time    3.0604
    STRESS:  cpu time    9.1874: real time    9.1900
    FORCOR:  cpu time    0.0543: real time    0.0544
    FORHAR:  cpu time    0.0168: real time    0.0169
    OFIELD:  cpu time    0.0002: real time    0.0002

  FORCE on cell =-STRESS in cart. coord.  units (eV):
  Direction    XX          YY          ZZ          XY          YZ          ZX
  --------------------------------------------------------------------------------------
  Alpha Z   764.04638   764.04638   764.04638
  Ewald  117403.29920117081.67176************     0.00003     0.93927     0.00001
  Hartree127828.11476127713.26157************     0.00002     0.64338     0.00000
  E(xc)   -2125.24386 -2126.48487 -2131.98304    -0.00004     0.00028     0.00000
  Local  ************************255966.61142     0.00110    -1.58251    -0.00010
  n-local  -362.76213  -350.22759  -355.15459     2.43522     0.00057     0.17861
  augment  3398.40162  3398.10333  3407.53285    -0.00038     0.00083    -0.00002
  Kinetic  5020.32992  5038.41293  5064.75128     1.08289     0.00073     0.05812
  Fock        0.00000     0.00000     0.00000     0.00000     0.00000     0.00000
  -------------------------------------------------------------------------------------
  Total      -9.49517    -9.48838    -0.78627    -0.00000     0.00254     0.00000
  in kB     -10.24815   -10.24082    -0.84863    -0.00000     0.00274     0.00000
  external pressure =       -7.11 kB  Pullay stress =        0.00 kB


 VOLUME and BASIS-vectors are now :
 -----------------------------------------------------------------------------
  energy-cutoff  :      500.00
  volume of cell :     1484.46
      direct lattice vectors                 reciprocal lattice vectors
     8.791366577  0.000000000  0.000000000     0.113747958 -0.065672414  0.000000000
     4.395683289  7.613546790  0.000000000     0.000000000  0.131344829  0.000000000
     0.000000000  0.000000000 22.178121567     0.000000000  0.000000000  0.045089481

  length of vectors
     8.791366577  8.791366577 22.178121567     0.131344829  0.131344829  0.045089481


 FORCES acting on ions
    electron-ion (+dipol)            ewald-force                    non-local-force                 convergence-correction
 -----------------------------------------------------------------------------------------------
   0.459E-04 0.875E-02 0.251E+04   -.954E-04 -.847E-02 -.250E+04   -.626E-14 -.953E-03 -.192E+01   -.131E-03 0.475E-03 -.138E+00
   0.482E+00 0.546E+00 0.251E+04   -.579E+00 -.548E+00 -.250E+04   0.430E-01 -.112E-01 -.165E+01   0.506E-01 0.139E-01 -.980E-01
   -.482E+00 0.546E+00 0.251E+04   0.579E+00 -.548E+00 -.250E+04   -.430E-01 -.112E-01 -.165E+01   -.511E-01 0.159E-01 -.973E-01
   0.704E+00 0.133E+00 0.251E+04   -.757E+00 -.223E+00 -.250E+04   0.134E-01 0.426E-01 -.165E+01   0.387E-01 0.430E-01 -.979E-01
   -.746E-05 -.168E-01 0.251E+04   0.981E-04 0.897E-02 -.251E+04   -.110E-13 -.168E-02 -.165E+01   0.631E-02 0.963E-02 -.152E+00
   -.704E+00 0.133E+00 0.251E+04   0.757E+00 -.223E+00 -.250E+04   -.134E-01 0.426E-01 -.165E+01   -.402E-01 0.439E-01 -.970E-01
   0.227E+00 -.679E+00 0.251E+04   -.178E+00 0.771E+00 -.250E+04   -.314E-01 -.316E-01 -.165E+01   -.140E-01 -.576E-01 -.945E-01
   -.227E+00 -.679E+00 0.251E+04   0.178E+00 0.771E+00 -.250E+04   0.314E-01 -.316E-01 -.165E+01   0.156E-01 -.587E-01 -.942E-01
   0.359E-04 0.836E-02 0.251E+04   0.792E-04 -.448E-03 -.250E+04   0.139E-13 0.212E-02 -.172E+01   -.670E-02 -.100E-01 -.748E-01
   0.484E+01 0.280E+01 0.868E+03   -.466E+01 -.270E+01 -.867E+03   -.133E+00 -.764E-01 -.649E+00   -.347E-01 -.152E-01 0.486E-01
   -.300E-04 0.548E+01 0.877E+03   0.418E-04 -.553E+01 -.877E+03   0.792E-13 0.121E-01 -.506E+00   0.643E-02 0.227E-01 0.659E-01
   -.484E+01 0.280E+01 0.868E+03   0.466E+01 -.270E+01 -.867E+03   0.133E+00 -.764E-01 -.649E+00   0.328E-01 -.137E-01 0.492E-01
   0.474E+01 -.278E+01 0.877E+03   -.478E+01 0.279E+01 -.877E+03   0.113E-01 -.832E-02 -.506E+00   0.162E-01 0.409E-03 0.671E-01
   -.474E+01 -.278E+01 0.877E+03   0.478E+01 0.279E+01 -.877E+03   -.113E-01 -.832E-02 -.506E+00   -.518E-02 -.337E-03 0.673E-01
   0.161E-04 0.135E+01 0.869E+03   -.109E-03 -.134E+01 -.869E+03   0.336E-13 0.511E-02 -.613E+00   -.206E-02 -.281E-01 0.523E-01
   -.836E-05 -.556E+01 0.868E+03   0.208E-04 0.536E+01 -.867E+03   0.101E-11 0.154E+00 -.646E+00   0.333E-03 0.316E-01 0.496E-01
   0.120E+01 -.661E+00 0.869E+03   -.119E+01 0.661E+00 -.869E+03   0.502E-02 -.254E-02 -.608E+00   -.273E-01 0.603E-02 0.533E-01
   -.120E+01 -.661E+00 0.869E+03   0.119E+01 0.661E+00 -.869E+03   -.502E-02 -.254E-02 -.608E+00   0.272E-01 0.831E-02 0.537E-01
   0.433E-04 0.325E+01 -.804E+03   -.129E-03 -.324E+01 0.804E+03   -.627E-13 -.955E-02 0.536E+00   -.209E-02 -.596E-02 0.137E+00
   0.326E+02 0.187E+02 -.758E+03   -.321E+02 -.184E+02 0.759E+03   -.567E+00 -.327E+00 -.473E+00   0.250E-01 0.222E-01 0.603E-01
   -.326E+02 0.187E+02 -.758E+03   0.321E+02 -.184E+02 0.759E+03   0.567E+00 -.327E+00 -.473E+00   -.140E-01 0.234E-01 0.603E-01
   0.119E+02 -.701E+01 -.791E+03   -.121E+02 0.712E+01 0.791E+03   0.154E+00 -.912E-01 0.485E+00   0.104E-01 -.759E-02 0.137E+00
   -.618E-04 -.378E+02 -.759E+03   0.468E-04 0.372E+02 0.759E+03   0.427E-11 0.651E+00 -.472E+00   0.682E-02 -.216E-01 0.565E-01
   -.119E+02 -.701E+01 -.791E+03   0.121E+02 0.712E+01 0.791E+03   -.154E+00 -.912E-01 0.485E+00   -.121E-01 -.851E-02 0.138E+00
   -.290E+01 -.143E+01 -.804E+03   0.288E+01 0.142E+01 0.804E+03   0.968E-02 0.616E-02 0.535E+00   0.106E-01 0.296E-02 0.136E+00
   0.290E+01 -.143E+01 -.804E+03   -.288E+01 0.142E+01 0.804E+03   -.968E-02 0.616E-02 0.535E+00   -.108E-01 0.367E-03 0.136E+00
   0.204E-04 0.140E+02 -.791E+03   0.110E-03 -.142E+02 0.791E+03   0.117E-11 0.179E+00 0.486E+00   -.598E-03 0.756E-02 0.141E+00
   0.551E-04 0.124E+01 -.245E+04   -.115E-03 -.125E+01 0.244E+04   0.952E-14 0.145E-02 0.201E+01   -.126E-02 0.379E-02 0.154E+00
   0.228E+02 0.394E+02 -.244E+04   -.223E+02 -.386E+02 0.244E+04   -.453E+00 -.721E+00 0.186E+01   -.388E-01 -.112E+00 0.847E-01
   -.228E+02 0.394E+02 -.244E+04   0.223E+02 -.386E+02 0.244E+04   0.453E+00 -.721E+00 0.186E+01   0.489E-01 -.110E+00 0.844E-01
   0.445E+02 -.569E+00 -.244E+04   -.435E+02 0.585E+00 0.244E+04   -.848E+00 -.266E-01 0.189E+01   -.124E+00 0.121E-01 0.834E-01
   -.445E+02 -.569E+00 -.244E+04   0.435E+02 0.585E+00 0.244E+04   0.848E+00 -.266E-01 0.189E+01   0.123E+00 0.129E-01 0.822E-01
   0.211E+02 -.386E+02 -.244E+04   -.207E+02 0.378E+02 0.244E+04   -.403E+00 0.748E+00 0.186E+01   -.766E-01 0.999E-01 0.820E-01
   -.211E+02 -.386E+02 -.244E+04   0.207E+02 0.378E+02 0.244E+04   0.403E+00 0.748E+00 0.186E+01   0.886E-01 0.982E-01 0.811E-01
   0.236E-04 -.838E-02 -.245E+04   0.106E-03 0.151E-01 0.244E+04   0.223E-14 0.339E-03 0.203E+01   -.792E-02 -.624E-02 0.718E-01
   -.504E-04 -.134E+01 -.211E+04   0.957E-04 0.134E+01 0.211E+04   -.279E-13 -.425E-02 0.221E+01   0.985E-02 0.581E-02 0.175E+00
   0.241E+03 -.161E+00 -.843E+03   -.286E+03 0.165E+00 0.843E+03   0.456E+02 0.179E-04 0.136E-01   -.222E-02 -.322E-02 -.182E-01
   -.241E+03 -.161E+00 -.843E+03   0.286E+03 0.165E+00 0.843E+03   -.456E+02 0.179E-04 0.136E-01   0.119E-03 -.320E-02 -.183E-01
 -----------------------------------------------------------------------------------------------
   0.512E-03 -.932E-02 -.474E-01   0.000E+00 -.111E-12 -.216E-11   -.853E-13 -.117E-01 -.132E+01   0.450E-01 0.230E-01 0.143E+01
 
 
 POSITION                                       TOTAL-FORCE (eV/Angst)
 -----------------------------------------------------------------------------------
      0.00000      0.00000      5.28219        -0.000000     -0.000257      0.041678
      2.93046      0.00000      5.28219        -0.003477      0.001298      0.033063
      5.86091      0.00000      5.28219         0.003477      0.001298      0.033063
      1.46523      2.53785      5.28219        -0.000499     -0.003911      0.032838
      4.39568      2.53785      5.28219         0.000000      0.000061      0.026614
      7.32614      2.53785      5.28219         0.000499     -0.003911      0.032838
      2.93046      5.07570      5.28219         0.003241      0.002469      0.032970
      5.86091      5.07570      5.28219        -0.003241      0.002469      0.032970
      8.79137      5.07570      5.28219        -0.000000     -0.000045      0.033548
      1.46523      0.84595      7.67490         0.015712      0.009035     -0.011134
      4.39568      0.84595      7.67490        -0.000000     -0.013423     -0.058028
      7.32614      0.84595      7.67490        -0.015712      0.009035     -0.011134
      2.93046      3.38380      7.67490        -0.011644      0.007007     -0.058053
      5.86091      3.38380      7.67490         0.011644      0.007007     -0.058053
      8.79137      3.38380      7.67490        -0.000000     -0.010348     -0.018740
      4.39568      5.92165      7.67490        -0.000000     -0.018398     -0.010873
      7.32614      5.92165      7.67490        -0.009034      0.005124     -0.018243
     10.25659      5.92165      7.67490         0.009034      0.005124     -0.018243
      8.79137      1.69533     10.05818        -0.000000     -0.002320      0.001709
      2.93805      1.69629     10.04232         0.000984      0.000407      0.002299
      5.85331      1.69629     10.04232        -0.000984      0.000407      0.002299
     10.25424      4.23111     10.04634        -0.008500      0.004630     -0.000469
      4.39568      4.22098     10.04232        -0.000000     -0.001137      0.002236
      7.32849      4.23111     10.04634         0.008500      0.004630     -0.000469
     11.71886      6.76588     10.05818         0.001980      0.001265      0.000321
      5.86388      6.76588     10.05818        -0.001980      0.001265      0.000321
      8.79137      6.76488     10.04634        -0.000000     -0.009487     -0.001307
      0.00000      0.00000     12.42348        -0.000000     -0.001186     -0.001013
      2.96241      0.05505     12.41819         0.002826      0.000785     -0.010324
      5.82895      0.05505     12.41819        -0.002826      0.000785     -0.010324
      1.52888      2.53800     12.41819         0.003360      0.001352     -0.007915
      7.26249      2.53800     12.41819        -0.003360      0.001352     -0.007915
      2.96215      5.02050     12.41819         0.000379     -0.002409     -0.009880
      5.82922      5.02050     12.41819        -0.000379     -0.002409     -0.009880
      8.79137      5.07570     12.42030         0.000000      0.000802      0.001834
      4.39568      2.53785     12.13895         0.000000      0.000383      0.010501
      3.83882      2.42014     16.41717         0.000924      0.000626      0.000447
      4.95255      2.42014     16.41717        -0.000924      0.000626      0.000447
 -----------------------------------------------------------------------------------
    total drift:                                0.045562      0.002033      0.059649


--------------------------------------------------------------------------------------------------------



  FREE ENERGIE OF THE ION-ELECTRON SYSTEM (eV)
  ---------------------------------------------------
  free  energy   TOTEN  =      -110.11593783 eV

  energy  without entropy=     -110.11593783  energy(sigma->0) =     -110.11593783
 


--------------------------------------------------------------------------------------------------------


    POTLOK:  cpu time    0.0446: real time    0.0446


--------------------------------------------------------------------------------------------------------


 stress matrix after NEB project (eV)
     -9.49517     -0.00000      0.00000
     -0.00000     -9.48838      0.00254
      0.00000      0.00254     -0.78627
  FORCES: max atom, RMS     0.001202    0.000276
  FORCE total and by dimension    0.001700    0.000924
  Stress total and by dimension   13.446411    9.495175
     LOOP+:  cpu time  145.7077: real time  145.7591
 -----------------------------------------------------------------------------
|                                                                             |
|           W    W    AA    RRRRR   N    N  II  N    N   GGGG   !!!           |
|           W    W   A  A   R    R  NN   N  II  NN   N  G    G  !!!           |
|           W    W  A    A  R    R  N N  N  II  N N  N  G       !!!           |
|           W WW W  AAAAAA  RRRRR   N  N N  II  N  N N  G  GGG   !            |
|           WW  WW  A    A  R   R   N   NN  II  N   NN  G    G                |
|           W    W  A    A  R    R  N    N  II  N    N   GGGG   !!!           |
|                                                                             |
|     Tetrahedron method does not include variations of the Fermi             |
|     occupations, so forces and stress will be inaccurate. We suggest        |
|     using a different smearing scheme ISMEAR = 1 or 2 for metals in         |
|     relaxations.                                                            |
|                                                                             |
 -----------------------------------------------------------------------------

    4ORBIT:  cpu time    0.0000: real time    0.0000



 total charge

# of ion       s       p       d       tot
------------------------------------------
    1        0.415   0.204   9.177   9.796
    2        0.417   0.203   9.177   9.797
    3        0.417   0.203   9.177   9.797
    4        0.417   0.203   9.177   9.797
    5        0.414   0.203   9.178   9.795
    6        0.417   0.203   9.177   9.797
    7        0.417   0.203   9.177   9.797
    8        0.417   0.203   9.177   9.797
    9        0.417   0.203   9.177   9.798
   10        0.406   0.269   9.164   9.839
   11        0.406   0.269   9.166   9.842
   12        0.406   0.269   9.164   9.839
   13        0.406   0.269   9.166   9.842
   14        0.406   0.269   9.166   9.842
   15        0.405   0.269   9.166   9.840
   16        0.406   0.269   9.164   9.839
   17        0.405   0.270   9.166   9.840
   18        0.405   0.270   9.166   9.840
   19        0.403   0.267   9.167   9.837
   20        0.415   0.287   9.156   9.858
   21        0.415   0.287   9.156   9.858
   22        0.402   0.273   9.166   9.841
   23        0.415   0.287   9.156   9.858
   24        0.402   0.273   9.166   9.841
   25        0.403   0.267   9.167   9.837
   26        0.403   0.267   9.167   9.837
   27        0.402   0.273   9.166   9.841
   28        0.412   0.194   9.180   9.787
   29        0.417   0.203   9.175   9.795
   30        0.417   0.203   9.175   9.795
   31        0.416   0.203   9.175   9.794
   32        0.416   0.203   9.175   9.794
   33        0.417   0.203   9.175   9.794
   34        0.417   0.203   9.175   9.794
   35        0.411   0.195   9.181   9.787
   36        0.378   0.200   8.413   8.991
   37        1.373   2.469   0.000   3.842
   38        1.373   2.469   0.000   3.842
--------------------------------------------------
tot         17.507  13.472 329.379 360.357
 
 BZINTS: Fermi energy:    0.903662;  405.000000 electrons
         Band energy:-0.131336E+04;  BLOECHL correction:   -0.075888

 total amount of memory used by VASP MPI-rank0   184002. kBytes
=======================================================================

   base      :      30000. kBytes
   nonlr-proj:      15034. kBytes
   fftplans  :       4330. kBytes
   grid      :      17879. kBytes
   one-center:        590. kBytes
   wavefun   :     116169. kBytes
 
  
  
 General timing and accounting informations for this job:
 ========================================================
  
                  Total CPU time used (sec):      159.427
                            User time (sec):      153.756
                          System time (sec):        5.671
                         Elapsed time (sec):      159.907
  
                   Maximum memory used (kb):      457436.
                   Average memory used (kb):          N/A
  
                          Minor page faults:       104998
                          Major page faults:            0
                 Voluntary context switches:        12288
