 vasp.6.2.0 18Jan21 (build Jun 12 2021 23:27:24) complex                        
  
 executed on             LinuxIFC date 2022.05.27  05:10:17
 running on   28 total cores
 distrk:  each k-point on   28 cores,    1 groups
 distr:  one band on NCORE=   1 cores,   28 groups


--------------------------------------------------------------------------------------------------------


 INCAR:
   ISMEAR = -5
   SIGMA = 0.1
   ISPIN = 1
   EDIFF = 1.d-5
   EDIFFG = -0.01
   NSW = 0
   NELM = 150
   ENCUT = 500
   ISIF = 2
   IBRION = 2
   LREAL = Auto
   ALGO = Fast
   ICHARG = 11
   LORBIT = 10
   LCHARG = .F.
   LWAVE = .F.

 POTCAR:    PAW_PBE Au 04Oct2007                  
 POTCAR:    PAW_PBE Ru 04Feb2005                  
 POTCAR:    PAW_PBE O 08Apr2002                   
 POTCAR:    PAW_PBE H 15Jun2001                   
 -----------------------------------------------------------------------------
|                                                                             |
|           W    W    AA    RRRRR   N    N  II  N    N   GGGG   !!!           |
|           W    W   A  A   R    R  NN   N  II  NN   N  G    G  !!!           |
|           W    W  A    A  R    R  N N  N  II  N N  N  G       !!!           |
|           W WW W  AAAAAA  RRRRR   N  N N  II  N  N N  G  GGG   !            |
|           WW  WW  A    A  R   R   N   NN  II  N   NN  G    G                |
|           W    W  A    A  R    R  N    N  II  N    N   GGGG   !!!           |
|                                                                             |
|     For optimal performance we recommend to set                             |
|       NCORE = 2 up to number-of-cores-per-socket                            |
|     NCORE specifies how many cores store one orbital (NPAR=cpu/NCORE).      |
|     This setting can greatly improve the performance of VASP for DFT.       |
|     The default, NCORE=1 might be grossly inefficient on modern             |
|     multi-core architectures or massively parallel machines. Do your        |
|     own testing! More info at https://www.vasp.at/wiki/index.php/NCORE      |
|     Unfortunately you need to use the default for GW and RPA                |
|     calculations (for HF NCORE is supported but not extensively tested      |
|     yet).                                                                   |
|                                                                             |
 -----------------------------------------------------------------------------

 POTCAR:    PAW_PBE Au 04Oct2007                  
   VRHFIN =Au: s1d10                                                                                
   LEXCH  = PE                                                                                      
   EATOM  =   926.0867 eV,   68.0654 Ry                                                             
                                                                                                    
   TITEL  = PAW_PBE Au 04Oct2007                                                                    
   LULTRA =        F    use ultrasoft PP ?                                                          
   IUNSCR =        1    unscreen: 0-lin 1-nonlin 2-no                                               
   RPACOR =    2.330    partial core radius                                                         
   POMASS =  196.966; ZVAL   =   11.000    mass and valenz                                          
   RCORE  =    2.500    outmost cutoff radius                                                       
   RWIGS  =    2.840; RWIGS  =    1.503    wigner-seitz radius (au A)                               
   ENMAX  =  229.943; ENMIN  =  172.457 eV                                                          
   ICORE  =        3    local potential                                                             
   LCOR   =        T    correct aug charges                                                         
   LPAW   =        T    paw PP                                                                      
   EAUG   =  356.670                                                                                
   DEXC   =    0.000                                                                                
   RMAX   =    2.562    core radius for proj-oper                                                   
   RAUG   =    1.300    factor for augmentation sphere                                              
   RDEP   =    2.598    radius for radial grids                                                     
   RDEPT  =    2.193    core radius for aug-charge                                                  
                                                                                                    
   Atomic configuration                                                                             
   16 entries                                                                                       
     n  l   j            E        occ.                                                              
     1  0  0.50    -80748.5001   2.0000                                                             
     2  0  0.50    -14244.7466   2.0000                                                             
     2  1  1.50    -12310.9591   6.0000                                                             
     3  0  0.50     -3362.1768   2.0000                                                             
     3  1  1.50     -2801.5463   6.0000                                                             
     3  2  2.50     -2203.8206  10.0000                                                             
     4  0  0.50      -729.8168   2.0000                                                             
     4  1  1.50      -546.0527   6.0000                                                             
     4  2  2.50      -325.7302  10.0000                                                             
     4  3  3.50       -81.1472  14.0000                                                             
     5  0  0.50      -108.3201   2.0000                                                             
     5  1  1.50       -59.7479   6.0000                                                             
     5  2  2.50        -6.8783  10.0000                                                             
     6  0  0.50        -5.7602   1.0000                                                             
     6  1  1.50        -6.8029   0.0000                                                             
     5  3  2.50        -1.3606   0.0000                                                             
   Description                                                                                      
     l       E           TYP  RCUT    TYP  RCUT                                                     
     2     -6.8782861     23  2.500                                                                 
     2     -8.2388687     23  2.500                                                                 
     0     -5.7601759     23  2.500                                                                 
     0     -0.8493231     23  2.500                                                                 
     1     -2.7211652     23  2.500                                                                 
     1     27.2116520     23  2.500                                                                 
     3     -1.3605826     23  2.500                                                                 
  local pseudopotential read in
  partial core-charges read in
  partial kinetic energy density read in
  atomic valenz-charges read in
  non local Contribution for L=           2  read in
    real space projection operators read in
  non local Contribution for L=           2  read in
    real space projection operators read in
  non local Contribution for L=           0  read in
    real space projection operators read in
  non local Contribution for L=           0  read in
    real space projection operators read in
  non local Contribution for L=           1  read in
    real space projection operators read in
  non local Contribution for L=           1  read in
    real space projection operators read in
    PAW grid and wavefunctions read in
 
   number of l-projection  operators is LMAX  =           6
   number of lm-projection operators is LMMAX =          18
 
 POTCAR:    PAW_PBE Ru 04Feb2005                  
   VRHFIN =Ru: s1 d7                                                                                
   LEXCH  = PE                                                                                      
   EATOM  =   454.8837 eV,   33.4330 Ry                                                             
                                                                                                    
   TITEL  = PAW_PBE Ru 04Feb2005                                                                    
   LULTRA =        F    use ultrasoft PP ?                                                          
   IUNSCR =        1    unscreen: 0-lin 1-nonlin 2-no                                               
   RPACOR =    2.170    partial core radius                                                         
   POMASS =  101.070; ZVAL   =    8.000    mass and valenz                                          
   RCORE  =    2.700    outmost cutoff radius                                                       
   RWIGS  =    2.650; RWIGS  =    1.402    wigner-seitz radius (au A)                               
   ENMAX  =  213.271; ENMIN  =  159.953 eV                                                          
   ICORE  =        3    local potential                                                             
   LCOR   =        T    correct aug charges                                                         
   LPAW   =        T    paw PP                                                                      
   EAUG   =  333.494                                                                                
   DEXC   =    0.000                                                                                
   RMAX   =    2.758    core radius for proj-oper                                                   
   RAUG   =    1.300    factor for augmentation sphere                                              
   RDEP   =    2.865    radius for radial grids                                                     
   RDEPT  =    2.250    core radius for aug-charge                                                  
                                                                                                    
   Atomic configuration                                                                             
   12 entries                                                                                       
     n  l   j            E        occ.                                                              
     1  0  0.50    -21933.2693   2.0000                                                             
     2  0  0.50     -3153.4097   2.0000                                                             
     2  1  1.50     -2823.9548   6.0000                                                             
     3  0  0.50      -555.3323   2.0000                                                             
     3  1  1.50      -447.1024   6.0000                                                             
     3  2  2.50      -273.0570  10.0000                                                             
     4  0  0.50       -76.3589   2.0000                                                             
     4  1  1.50       -46.4050   6.0000                                                             
     4  2  2.50        -5.2029   7.0000                                                             
     5  0  0.50        -4.2392   1.0000                                                             
     5  1  0.50        -1.3606   0.0000                                                             
     4  3  2.50        -1.3606   0.0000                                                             
   Description                                                                                      
     l       E           TYP  RCUT    TYP  RCUT                                                     
     2     -5.2028939     23  2.600                                                                 
     2     -6.5634765     23  2.600                                                                 
     0     -4.2392259     23  2.700                                                                 
     0     27.2116520     23  2.700                                                                 
     1     -4.0817478     23  2.700                                                                 
     1     27.2116520     23  2.700                                                                 
     3     -5.4423304     23  2.600                                                                 
  local pseudopotential read in
  partial core-charges read in
  partial kinetic energy density read in
  atomic valenz-charges read in
  non local Contribution for L=           2  read in
    real space projection operators read in
  non local Contribution for L=           2  read in
    real space projection operators read in
  non local Contribution for L=           0  read in
    real space projection operators read in
  non local Contribution for L=           0  read in
    real space projection operators read in
  non local Contribution for L=           1  read in
    real space projection operators read in
  non local Contribution for L=           1  read in
    real space projection operators read in
    PAW grid and wavefunctions read in
 
   number of l-projection  operators is LMAX  =           6
   number of lm-projection operators is LMMAX =          18
 
 POTCAR:    PAW_PBE O 08Apr2002                   
   VRHFIN =O: s2p4                                                                                  
   LEXCH  = PE                                                                                      
   EATOM  =   432.3788 eV,   31.7789 Ry                                                             
                                                                                                    
   TITEL  = PAW_PBE O 08Apr2002                                                                     
   LULTRA =        F    use ultrasoft PP ?                                                          
   IUNSCR =        1    unscreen: 0-lin 1-nonlin 2-no                                               
   RPACOR =    1.200    partial core radius                                                         
   POMASS =   16.000; ZVAL   =    6.000    mass and valenz                                          
   RCORE  =    1.520    outmost cutoff radius                                                       
   RWIGS  =    1.550; RWIGS  =    0.820    wigner-seitz radius (au A)                               
   ENMAX  =  400.000; ENMIN  =  300.000 eV                                                          
   ICORE  =        2    local potential                                                             
   LCOR   =        T    correct aug charges                                                         
   LPAW   =        T    paw PP                                                                      
   EAUG   =  605.392                                                                                
   DEXC   =    0.000                                                                                
   RMAX   =    1.553    core radius for proj-oper                                                   
   RAUG   =    1.300    factor for augmentation sphere                                              
   RDEP   =    1.550    radius for radial grids                                                     
   RDEPT  =    1.329    core radius for aug-charge                                                  
                                                                                                    
   Atomic configuration                                                                             
    4 entries                                                                                       
     n  l   j            E        occ.                                                              
     1  0  0.50      -514.6923   2.0000                                                             
     2  0  0.50       -23.9615   2.0000                                                             
     2  1  0.50        -9.0305   4.0000                                                             
     3  2  1.50        -9.5241   0.0000                                                             
   Description                                                                                      
     l       E           TYP  RCUT    TYP  RCUT                                                     
     0    -23.9615318     23  1.200                                                                 
     0     -9.5240782     23  1.200                                                                 
     1     -9.0304911     23  1.520                                                                 
     1      8.1634956     23  1.520                                                                 
     2     -9.5240782      7  1.500                                                                 
  local pseudopotential read in
  partial core-charges read in
  partial kinetic energy density read in
  kinetic energy density of atom read in
  atomic valenz-charges read in
  non local Contribution for L=           0  read in
    real space projection operators read in
  non local Contribution for L=           0  read in
    real space projection operators read in
  non local Contribution for L=           1  read in
    real space projection operators read in
  non local Contribution for L=           1  read in
    real space projection operators read in
    PAW grid and wavefunctions read in
 
   number of l-projection  operators is LMAX  =           4
   number of lm-projection operators is LMMAX =           8
 
 POTCAR:    PAW_PBE H 15Jun2001                   
   VRHFIN =H: ultrasoft test                                                                        
   LEXCH  = PE                                                                                      
   EATOM  =    12.4884 eV,    0.9179 Ry                                                             
                                                                                                    
   TITEL  = PAW_PBE H 15Jun2001                                                                     
   LULTRA =        F    use ultrasoft PP ?                                                          
   IUNSCR =        0    unscreen: 0-lin 1-nonlin 2-no                                               
   RPACOR =    0.000    partial core radius                                                         
   POMASS =    1.000; ZVAL   =    1.000    mass and valenz                                          
   RCORE  =    1.100    outmost cutoff radius                                                       
   RWIGS  =    0.700; RWIGS  =    0.370    wigner-seitz radius (au A)                               
   ENMAX  =  250.000; ENMIN  =  200.000 eV                                                          
   RCLOC  =    0.701    cutoff for local pot                                                        
   LCOR   =        T    correct aug charges                                                         
   LPAW   =        T    paw PP                                                                      
   EAUG   =  400.000                                                                                
   RMAX   =    1.123    core radius for proj-oper                                                   
   RAUG   =    1.200    factor for augmentation sphere                                              
   RDEP   =    1.112    radius for radial grids                                                     
   RDEPT  =    0.926    core radius for aug-charge                                                  
                                                                                                    
   Atomic configuration                                                                             
    2 entries                                                                                       
     n  l   j            E        occ.                                                              
     1  0  0.50        -6.4927   1.0000                                                             
     2  1  0.50        -3.4015   0.0000                                                             
   Description                                                                                      
     l       E           TYP  RCUT    TYP  RCUT                                                     
     0     -6.4927494     23  1.100                                                                 
     0      6.8029130     23  1.100                                                                 
     1     -4.0817478     23  1.100                                                                 
  local pseudopotential read in
  atomic valenz-charges read in
  non local Contribution for L=           0  read in
    real space projection operators read in
  non local Contribution for L=           0  read in
    real space projection operators read in
  non local Contribution for L=           1  read in
    real space projection operators read in
    PAW grid and wavefunctions read in
 
   number of l-projection  operators is LMAX  =           3
   number of lm-projection operators is LMMAX =           5
 
 Optimization of the real space projectors (new method)

 maximal supplied QI-value         = 15.12
 optimisation between [QCUT,QGAM] = [ 11.34, 22.83] = [ 36.00,145.93] Ry 
 Optimized for a Real-space Cutoff    1.39 Angstroem

   l    n(q)    QCUT    max X(q) W(low)/X(q) W(high)/X(q)  e(spline) 
   2      9    11.338    60.898    0.39E-03    0.42E-03    0.21E-06
   2      9    11.338    58.894    0.40E-03    0.42E-03    0.22E-06
   0      9    11.338   109.617    0.13E-03    0.20E-04    0.13E-06
   0      9    11.338    75.026    0.13E-03    0.20E-04    0.13E-06
   1      9    11.338    16.344    0.33E-04    0.24E-03    0.18E-06
   1      9    11.338    10.160    0.26E-04    0.19E-03    0.15E-06
 Optimization of the real space projectors (new method)

 maximal supplied QI-value         = 13.98
 optimisation between [QCUT,QGAM] = [ 11.33, 22.79] = [ 35.93,145.49] Ry 
 Optimized for a Real-space Cutoff    1.52 Angstroem

   l    n(q)    QCUT    max X(q) W(low)/X(q) W(high)/X(q)  e(spline) 
   2      9    11.327    61.733    0.26E-03    0.14E-03    0.16E-06
   2      9    11.327    59.886    0.26E-03    0.14E-03    0.17E-06
   0     10    11.327    23.358    0.19E-03    0.14E-04    0.46E-06
   0     10    11.327    11.320    0.15E-03    0.11E-04    0.37E-06
   1     10    11.327    14.765    0.49E-04    0.26E-03    0.24E-06
   1     10    11.327     8.283    0.37E-04    0.20E-03    0.18E-06
 Optimization of the real space projectors (new method)

 maximal supplied QI-value         = 24.76
 optimisation between [QCUT,QGAM] = [ 11.39, 22.77] = [ 36.31,145.25] Ry 
 Optimized for a Real-space Cutoff    1.00 Angstroem

   l    n(q)    QCUT    max X(q) W(low)/X(q) W(high)/X(q)  e(spline) 
   0      7    11.387    20.381    0.39E-03    0.13E-02    0.15E-06
   0      7    11.387    15.268    0.42E-03    0.14E-02    0.17E-06
   1      6    11.387     5.964    0.41E-03    0.11E-02    0.17E-06
   1      6    11.387     5.382    0.39E-03    0.87E-03    0.15E-06
 Optimization of the real space projectors (new method)

 maximal supplied QI-value         = 34.20
 optimisation between [QCUT,QGAM] = [ 11.29, 22.57] = [ 35.68,142.71] Ry 
 Optimized for a Real-space Cutoff    1.16 Angstroem

   l    n(q)    QCUT    max X(q) W(low)/X(q) W(high)/X(q)  e(spline) 
   0      8    11.287    19.460    0.40E-03    0.73E-03    0.16E-06
   0      8    11.287    12.209    0.38E-03    0.70E-03    0.15E-06
   1      7    11.287     4.655    0.22E-03    0.25E-04    0.22E-06
  PAW_PBE Au 04Oct2007                  :
 energy of atom  1       EATOM= -926.0867
 kinetic energy error for atom=    0.0042 (will be added to EATOM!!)
  PAW_PBE Ru 04Feb2005                  :
 energy of atom  2       EATOM= -454.8837
 kinetic energy error for atom=    0.0015 (will be added to EATOM!!)
  PAW_PBE O 08Apr2002                   :
 energy of atom  3       EATOM= -432.3788
 kinetic energy error for atom=    0.0224 (will be added to EATOM!!)
  PAW_PBE H 15Jun2001                   :
 energy of atom  4       EATOM=  -12.4884
 kinetic energy error for atom=    0.0020 (will be added to EATOM!!)
 
 
 POSCAR: Au-Ru-OH
  positions in direct lattice
  velocities in cartesian coordinates
 exchange correlation table for  LEXCH =        8
   RHO(1)=    0.500       N(1)  =     2000
   RHO(2)=  100.500       N(2)  =     4000

 VTST: version 3.2, (02/03/18)

 CHAIN: initializing optimizer
 
 OPT: Using VASP Conjugate-Gradient optimizer
 CHAIN: Read ICHAIN            0
 
 POSCAR: Au-Ru-OH
  positions in direct lattice
  velocities in cartesian coordinates
 


--------------------------------------------------------------------------------------------------------


 ion  position               nearest neighbor table
   1  0.000  0.000  0.238-  16 2.94  12 2.94   6 2.94   8 2.94   7 2.94   3 2.94  10 2.94   4 2.94
                             2 2.94
   2  0.333  0.000  0.238-   9 2.94  11 2.94  17 2.94  10 2.94   8 2.94   4 2.94   5 2.94   1 2.94
                             3 2.94
   3  0.667  0.000  0.238-   7 2.94  18 2.94  12 2.94   1 2.94  11 2.94   5 2.94   6 2.94   9 2.94
                             2 2.94
   4  0.000  0.333  0.238-  10 2.94   6 2.94   5 2.94  13 2.94   2 2.94  15 2.94   9 2.94   1 2.94
                             7 2.94
   5  0.333  0.333  0.238-  13 2.94   7 2.94  11 2.94   4 2.94   2 2.94  14 2.94   3 2.94   8 2.94
                             6 2.94
   6  0.667  0.333  0.238-  15 2.94  14 2.94   1 2.94  12 2.94   4 2.94   9 2.94   8 2.94   3 2.94
                             5 2.94
   7  0.000  0.667  0.238-  18 2.94   3 2.94  16 2.94   5 2.94   1 2.94  13 2.94   8 2.94   4 2.94
                             9 2.94
   8  0.333  0.667  0.238-   9 2.94  17 2.94   1 2.94   2 2.94  14 2.94  16 2.94   6 2.94   7 2.94
                             5 2.94
   9  0.667  0.667  0.238-   2 2.94   8 2.94  17 2.94   6 2.94  15 2.94   4 2.94   3 2.94  18 2.94
                             7 2.94
  10  0.111  0.111  0.346-  20 2.91  26 2.94  19 2.94  11 2.94  17 2.94   2 2.94   4 2.94   1 2.94
                            12 2.94  16 2.94  13 2.94  15 2.94
  11  0.444  0.111  0.346-  20 2.91  21 2.91  27 2.94  13 2.94   2 2.94  10 2.94  17 2.94   5 2.94
                             3 2.94  18 2.94  14 2.94  12 2.94
  12  0.778  0.111  0.346-  21 2.91  25 2.94  19 2.94  16 2.94  18 2.94   1 2.94  14 2.94  15 2.94
                             3 2.94   6 2.94  10 2.94  11 2.94
  13  0.111  0.444  0.346-  23 2.91  20 2.91  22 2.94   5 2.94  18 2.94  11 2.94   7 2.94   4 2.94
                            16 2.94  10 2.94  14 2.94  15 2.94
  14  0.444  0.444  0.346-  21 2.91  23 2.91  24 2.94  15 2.94   6 2.94  12 2.94   8 2.94  17 2.94
                             5 2.94  16 2.94  13 2.94  11 2.94
  15  0.778  0.444  0.346-  24 2.92  22 2.92  19 2.94  14 2.94   6 2.94  17 2.94  12 2.94   9 2.94
                             4 2.94  10 2.94  13 2.94  18 2.94
  16  0.111  0.778  0.346-  23 2.91  25 2.94  26 2.94  18 2.94  12 2.94   7 2.94   1 2.94   8 2.94
                            13 2.94  10 2.94  14 2.94  17 2.94
  17  0.444  0.778  0.346-  27 2.92  24 2.92  26 2.94   9 2.94  15 2.94   2 2.94  10 2.94  11 2.94
                             8 2.94  14 2.94  16 2.94  18 2.94
  18  0.778  0.778  0.346-  22 2.92  27 2.92  25 2.94  16 2.94   7 2.94  13 2.94  12 2.94   3 2.94
                            11 2.94   9 2.94  15 2.94  17 2.94
  19  0.889  0.222  0.454-  15 2.94  10 2.94  12 2.94  24 2.94  22 2.94  26 2.94  25 2.94  21 2.94
                            20 2.94  28 2.95  32 2.97  31 2.97
  20  0.223  0.223  0.452-  36 2.78  11 2.91  13 2.91  10 2.91  23 2.93  21 2.93  29 2.94  31 2.94
                            26 2.94  19 2.94  27 2.95  22 2.95
  21  0.555  0.223  0.452-  36 2.78  14 2.91  11 2.91  12 2.91  20 2.93  23 2.93  30 2.94  32 2.94
                            25 2.94  19 2.94  27 2.95  24 2.95
  22  0.887  0.557  0.453-  24 2.91  27 2.91  18 2.92  15 2.92  13 2.94  25 2.94  19 2.94  23 2.95
                            20 2.95  35 2.96  33 2.96  31 2.96
  23  0.223  0.555  0.452-  36 2.78  13 2.91  14 2.91  16 2.91  20 2.93  21 2.93  33 2.94  34 2.94
                            25 2.94  26 2.94  22 2.95  24 2.95
  24  0.557  0.557  0.453-  27 2.91  22 2.91  15 2.92  17 2.92  14 2.94  26 2.94  19 2.94  21 2.95
                            23 2.95  35 2.96  32 2.96  34 2.96
  25  0.889  0.889  0.454-  18 2.94  16 2.94  12 2.94  22 2.94  27 2.94  19 2.94  26 2.94  23 2.94
                            21 2.94  28 2.95  33 2.97  30 2.97
  26  0.222  0.889  0.454-  17 2.94  10 2.94  16 2.94  27 2.94  24 2.94  19 2.94  25 2.94  20 2.94
                            23 2.94  28 2.95  29 2.97  34 2.97
  27  0.557  0.887  0.453-  24 2.91  22 2.91  17 2.92  18 2.92  11 2.94  26 2.94  25 2.94  20 2.95
                            21 2.95  35 2.96  29 2.96  30 2.96
  28  0.000  0.000  0.563-  25 2.95  19 2.95  26 2.95  34 2.97  32 2.97  33 2.97  30 2.97  31 2.97
                            29 2.97
  29  0.333  0.007  0.562-  31 2.88  30 2.88  36 2.89  20 2.94  27 2.96  28 2.97  35 2.97  26 2.97
                            34 3.05
  30  0.660  0.007  0.562-  32 2.88  29 2.88  36 2.89  21 2.94  27 2.96  28 2.97  35 2.97  25 2.97
                            33 3.05
  31  0.007  0.333  0.562-  29 2.88  33 2.88  36 2.89  20 2.94  22 2.96  28 2.97  35 2.97  19 2.97
                            32 3.05
  32  0.660  0.333  0.562-  30 2.88  34 2.88  36 2.89  21 2.94  24 2.96  28 2.97  35 2.97  19 2.97
                            31 3.05
  33  0.007  0.660  0.562-  34 2.88  31 2.88  36 2.89  23 2.94  22 2.96  28 2.97  35 2.97  25 2.97
                            30 3.05
  34  0.333  0.660  0.562-  33 2.88  32 2.88  36 2.89  23 2.94  24 2.96  28 2.97  35 2.97  26 2.97
                            29 3.05
  35  0.667  0.667  0.563-  24 2.96  27 2.96  22 2.96  29 2.97  34 2.97  32 2.97  31 2.97  30 2.97
                            33 2.97
  36  0.333  0.333  0.552-  37 1.89  20 2.78  23 2.78  21 2.78  33 2.89  31 2.89  29 2.89  30 2.89
                            34 2.89  32 2.89
  37  0.333  0.333  0.637-  38 0.97  36 1.89
  38  0.333  0.333  0.680-  37 0.97
 
  LATTYP: Found a hexagonal cell.
 ALAT       =     8.8135128021
 C/A-ratio  =     2.5184286595
  
  Lattice vectors:
  
 A1 = (  -4.4067569092,  -7.6327256898,   0.0000000000)
 A2 = (   8.8135128021,   0.0000000000,   0.0000000000)
 A3 = (   0.0000000000,   0.0000000000,  22.1962032318)


Analysis of symmetry for initial positions (statically):
=====================================================================
 Subroutine PRICEL returns:
 Original cell was already a primitive cell.
 

 Routine SETGRP: Setting up the symmetry group for a 
 hexagonal supercell.


 Subroutine GETGRP returns: Found  6 space group operations
 (whereof  6 operations were pure point group operations)
 out of a pool of 24 trial point group operations.


The static configuration has the point symmetry C_3v.


Analysis of symmetry for dynamics (positions and initial velocities):
=====================================================================
 Subroutine PRICEL returns:
 Original cell was already a primitive cell.
 

 Routine SETGRP: Setting up the symmetry group for a 
 hexagonal supercell.


 Subroutine GETGRP returns: Found  6 space group operations
 (whereof  6 operations were pure point group operations)
 out of a pool of 24 trial point group operations.


The dynamic configuration has the point symmetry C_3v.


Analysis of constrained symmetry for selective dynamics:
=====================================================================
 Subroutine PRICEL returns:
 Original cell was already a primitive cell.
 

 Routine SETGRP: Setting up the symmetry group for a 
 hexagonal supercell.


 Subroutine GETGRP returns: Found  6 space group operations
 (whereof  6 operations were pure point group operations)
 out of a pool of 24 trial point group operations.


The constrained configuration has the point symmetry C_3v.


 Subroutine INISYM returns: Found  6 space group operations
 (whereof  6 operations are pure point group operations),
 and found     1 'primitive' translations


----------------------------------------------------------------------------------------

                                     Primitive cell                                     

  volume of cell :    1493.1636

  direct lattice vectors                    reciprocal lattice vectors
     8.813512802  0.000000000  0.000000000     0.113462137 -0.065507406  0.000000000
     4.406756909  7.632725690  0.000000000     0.000000000  0.131014796  0.000000000
     0.000000000  0.000000000 22.196203232     0.000000000  0.000000000  0.045052750

  length of vectors
     8.813512802  8.813512802 22.196203232     0.131014796  0.131014796  0.045052750

  position of ions in fractional coordinates (direct lattice)
     0.000000000  0.000000000  0.237895638
     0.333333343  0.000000000  0.237895638
     0.666666687  0.000000000  0.237895638
     1.000000000  0.333333343  0.237895638
     0.333333313  0.333333343  0.237895638
     0.666666687  0.333333343  0.237895638
     1.000000000  0.666666687  0.237895638
     0.333333343  0.666666687  0.237895638
     0.666666627  0.666666687  0.237895638
     0.111111119  0.111111112  0.345965207
     0.444444418  0.111111112  0.345965207
     0.777777791  0.111111112  0.345965207
     0.111111127  0.444444448  0.345965207
     0.444444478  0.444444448  0.345965207
     0.777777731  0.444444448  0.345965207
     0.111111090  0.777777791  0.345965207
     0.444444448  0.777777791  0.345965207
     0.777777851  0.777777791  0.345965207
     0.888846350  0.222307315  0.453936556
     0.222561074  0.222561059  0.452383712
     0.554877911  0.222561059  0.452383712
     0.886631682  0.556684189  0.453363714
     0.222561029  0.554877911  0.452383712
     0.556684189  0.556684189  0.453363714
     0.888846350  0.888846350  0.453936556
     0.222307345  0.888846350  0.453936556
     0.556684129  0.886631682  0.453363714
     0.000000000  0.000000000  0.562915825
     0.333249581  0.006611377  0.562185077
     0.660139073  0.006611377  0.562185077
     0.006611377  0.333249581  0.562185077
     0.660139073  0.333249581  0.562185077
     0.006611377  0.660139073  0.562185077
     0.333249581  0.660139073  0.562185077
     0.666666627  0.666666687  0.562958745
     0.333333313  0.333333343  0.551535054
     0.333333313  0.333333343  0.636876974
     0.333333313  0.333333343  0.680387820

  ion indices of the primitive-cell ions
   primitive index   ion index
                 1           1
                 2           2
                 3           3
                 4           4
                 5           5
                 6           6
                 7           7
                 8           8
                 9           9
                10          10
                11          11
                12          12
                13          13
                14          14
                15          15
                16          16
                17          17
                18          18
                19          19
                20          20
                21          21
                22          22
                23          23
                24          24
                25          25
                26          26
                27          27
                28          28
                29          29
                30          30
                31          31
                32          32
                33          33
                34          34
                35          35
                36          36
                37          37
                38          38

----------------------------------------------------------------------------------------

 
 
 KPOINTS: Automatic mesh                          

Automatic generation of k-mesh.
 Grid dimensions read from file:
 generate k-points for:    8    8    1

 Generating k-lattice:

  Cartesian coordinates                     Fractional coordinates (reciprocal lattice)
     0.014182767 -0.008188426  0.000000000     0.125000000 -0.000000000  0.000000000
     0.000000000  0.016376850  0.000000000     0.000000000  0.125000000  0.000000000
     0.000000000  0.000000000  0.045052750     0.000000000  0.000000000  1.000000000

  Length of vectors
     0.016376850  0.016376850  0.045052750

  Shift w.r.t. Gamma in fractional coordinates (k-lattice)
     0.000000000  0.000000000  0.000000000

 TETIRR: Found     36 inequivalent tetrahedra from      384
 
 Subroutine IBZKPT returns following result:
 ===========================================
 
 Found     10 irreducible k-points:
 
 Following reciprocal coordinates:
            Coordinates               Weight
  0.000000  0.000000  0.000000      1.000000
  0.125000 -0.000000  0.000000      6.000000
  0.250000 -0.000000  0.000000      6.000000
  0.375000  0.000000  0.000000      6.000000
  0.500000 -0.000000  0.000000      3.000000
  0.250000  0.125000  0.000000      6.000000
  0.375000  0.125000  0.000000     12.000000
  0.500000  0.125000  0.000000     12.000000
  0.500000  0.250000  0.000000      6.000000
 -0.375000  0.250000  0.000000      6.000000
 
 Following cartesian coordinates:
            Coordinates               Weight
  0.000000  0.000000  0.000000      1.000000
  0.014183 -0.008188  0.000000      6.000000
  0.028366 -0.016377  0.000000      6.000000
  0.042548 -0.024565  0.000000      6.000000
  0.056731 -0.032754  0.000000      3.000000
  0.028366 -0.000000  0.000000      6.000000
  0.042548 -0.008188  0.000000     12.000000
  0.056731 -0.016377  0.000000     12.000000
  0.056731 -0.000000  0.000000      6.000000
 -0.042548  0.057319  0.000000      6.000000
 


--------------------------------------------------------------------------------------------------------




 Dimension of arrays:
   k-points           NKPTS =     10   k-points in BZ     NKDIM =     10   number of bands    NBANDS=    252
   number of dos      NEDOS =    301   number of ions     NIONS =     38
   non local maximal  LDIM  =      6   non local SUM 2l+1 LMDIM =     18
   total plane-waves  NPLWV = 290304
   max r-space proj   IRMAX =   2902   max aug-charges    IRDMAX=  13348
   dimension x,y,z NGX =    48 NGY =   48 NGZ =  126
   dimension x,y,z NGXF=    96 NGYF=   96 NGZF=  252
   support grid    NGXF=    96 NGYF=   96 NGZF=  252
   ions per type =              35   1   1   1
   NGX,Y,Z   is equivalent  to a cutoff of   9.05,  9.05,  9.44 a.u.
   NGXF,Y,Z  is equivalent  to a cutoff of  18.11, 18.11, 18.87 a.u.

 SYSTEM =  unknown system                          
 POSCAR =  Au-Ru-OH                                

 Startparameter for this run:
   NWRITE =      2    write-flag & timer
   PREC   = normal    normal or accurate (medium, high low for compatibility)
   ISTART =      0    job   : 0-new  1-cont  2-samecut
   ICHARG =     11    charge: 1-file 2-atom 10-const
   ISPIN  =      1    spin polarized calculation?
   LNONCOLLINEAR =      F non collinear calculations
   LSORBIT =      F    spin-orbit coupling
   INIWAV =      1    electr: 0-lowe 1-rand  2-diag
   LASPH  =      F    aspherical Exc in radial PAW
   METAGGA=      F    non-selfconsistent MetaGGA calc.

 Electronic Relaxation 1
   ENCUT  =  500.0 eV  36.75 Ry    6.06 a.u.  16.07 16.07 40.47*2*pi/ulx,y,z
   ENINI  =  500.0     initial cutoff
   ENAUG  =  605.4 eV  augmentation charge cutoff
   NELM   =    150;   NELMIN=  2; NELMDL= -5     # of ELM steps 
   EDIFF  = 0.1E-04   stopping-criterion for ELM
   LREAL  =      T    real-space projection
   NLSPLINE    = F    spline interpolate recip. space projectors
   LCOMPAT=      F    compatible to vasp.4.4
   GGA_COMPAT  = T    GGA compatible to vasp.4.4-vasp.4.6
   LMAXPAW     = -100 max onsite density
   LMAXMIX     =    2 max onsite mixed and CHGCAR
   VOSKOWN=      0    Vosko Wilk Nusair interpolation
   ROPT   =   -0.00050  -0.00050  -0.00050  -0.00050
 Ionic relaxation
   EDIFFG = -.1E-01   stopping-criterion for IOM
   NSW    =      0    number of steps for IOM
   NBLOCK =      1;   KBLOCK =      1    inner block; outer block 
   IBRION =     -1    ionic relax: 0-MD 1-quasi-New 2-CG
   NFREE  =      1    steps in history (QN), initial steepest desc. (CG)
   ISIF   =      2    stress and relaxation
   IWAVPR =     10    prediction:  0-non 1-charg 2-wave 3-comb
   ISYM   =      2    0-nonsym 1-usesym 2-fastsym
   LCORR  =      T    Harris-Foulkes like correction to forces

   POTIM  = 0.5000    time-step for ionic-motion
   TEIN   =    0.0    initial temperature
   TEBEG  =    0.0;   TEEND  =   0.0 temperature during run
   SMASS  =  -3.00    Nose mass-parameter (am)
   estimated Nose-frequenzy (Omega)   =  0.10E-29 period in steps = 0.13E+47 mass=  -0.178E-26a.u.
   SCALEE = 1.0000    scale energy and forces
   NPACO  =    256;   APACO  = 16.0  distance and # of slots for P.C.
   PSTRESS=    0.0 pullay stress

  Mass of Ions in am
   POMASS = 196.97101.07 16.00  1.00
  Ionic Valenz
   ZVAL   =  11.00  8.00  6.00  1.00
  Atomic Wigner-Seitz radii
   RWIGS  =  -1.00 -1.00 -1.00 -1.00
  virtual crystal weights 
   VCA    =   1.00  1.00  1.00  1.00
   NELECT =     400.0000    total number of electrons
   NUPDOWN=      -1.0000    fix difference up-down

 DOS related values:
   EMIN   =  10.00;   EMAX   =-10.00  energy-range for DOS
   EFERMI =   0.00
   ISMEAR =    -5;   SIGMA  =   0.10  broadening in eV -4-tet -1-fermi 0-gaus

 Electronic relaxation 2 (details)
   IALGO  =     68    algorithm
   LDIAG  =      T    sub-space diagonalisation (order eigenvalues)
   LSUBROT=      F    optimize rotation matrix (better conditioning)
   TURBO    =      0    0=normal 1=particle mesh
   IRESTART =      0    0=no restart 2=restart with 2 vectors
   NREBOOT  =      0    no. of reboots
   NMIN     =      0    reboot dimension
   EREF     =   0.00    reference energy to select bands
   IMIX   =      4    mixing-type and parameters
     AMIX     =   0.40;   BMIX     =  1.00
     AMIX_MAG =   1.60;   BMIX_MAG =  1.00
     AMIN     =   0.10
     WC   =   100.;   INIMIX=   1;  MIXPRE=   1;  MAXMIX= -45

 Intra band minimization:
   WEIMIN = 0.0000     energy-eigenvalue tresh-hold
   EBREAK =  0.99E-08  absolut break condition
   DEPER  =   0.30     relativ break condition  

   TIME   =   0.40     timestep for ELM

  volume/ion in A,a.u.               =      39.29       265.17
  Fermi-wavevector in a.u.,A,eV,Ry     =   1.055340  1.994303 15.153385  1.113742
  Thomas-Fermi vector in A             =   2.190534
 
 Write flags
   LWAVE        =      F    write WAVECAR
   LDOWNSAMPLE  =      F    k-point downsampling of WAVECAR
   LCHARG       =      F    write CHGCAR
   LVTOT        =      F    write LOCPOT, total local potential
   LVHAR        =      F    write LOCPOT, Hartree potential only
   LELF         =      F    write electronic localiz. function (ELF)
   LORBIT       =     10    0 simple, 1 ext, 2 COOP (PROOUT), +10 PAW based schemes


 Dipole corrections
   LMONO  =      F    monopole corrections only (constant potential shift)
   LDIPOL =      F    correct potential (dipole corrections)
   IDIPOL =      0    1-x, 2-y, 3-z, 4-all directions 
   EPSILON=  1.0000000 bulk dielectric constant

 Exchange correlation treatment:
   GGA     =    --    GGA type
   LEXCH   =     8    internal setting for exchange type
   VOSKOWN=      0    Vosko Wilk Nusair interpolation
   LHFCALC =     F    Hartree Fock is set to
   LHFONE  =     F    Hartree Fock one center treatment
   AEXX    =    0.0000 exact exchange contribution

 Linear response parameters
   LEPSILON=     F    determine dielectric tensor
   LRPA    =     F    only Hartree local field effects (RPA)
   LNABLA  =     F    use nabla operator in PAW spheres
   LVEL    =     F    velocity operator in full k-point grid
   LINTERFAST=   F  fast interpolation
   KINTER  =     0    interpolate to denser k-point grid
   CSHIFT  =0.1000    complex shift for real part using Kramers Kronig
   OMEGAMAX=  -1.0    maximum frequency
   DEG_THRESHOLD= 0.2000000E-02 threshold for treating states as degnerate
   RTIME   =   -0.100 relaxation time in fs
  (WPLASMAI=    0.000 imaginary part of plasma frequency in eV, 0.658/RTIME)
   DFIELD  = 0.0000000 0.0000000 0.0000000 field for delta impulse in time
 
 Orbital magnetization related:
   ORBITALMAG=     F  switch on orbital magnetization
   LCHIMAG   =     F  perturbation theory with respect to B field
   DQ        =  0.001000  dq finite difference perturbation B field
   LLRAUG    =     F  two centre corrections for induced B field



--------------------------------------------------------------------------------------------------------


 Static calculation
 charge density and potential remain constant during run
 non-spin polarized calculation
 RMM-DIIS sequential band-by-band and
  variant of blocked Davidson during initial phase
 perform sub-space diagonalisation
    before iterative eigenvector-optimisation
 no mixing
 using additional bands           52
 real space projection scheme for non local part
 use partial core corrections
 calculate Harris-corrections to forces 
   (improved forces if not selfconsistent)
 use gradient corrections 
 WARNING: stress and forces are not correct
  (second derivative of E(xc) not defined)
 use of overlap-Matrix (Vanderbilt PP)
 Fermi weights with tetrahedron method with Bloechl corrections


--------------------------------------------------------------------------------------------------------


  energy-cutoff  :      500.00
  volume of cell :     1493.16
      direct lattice vectors                 reciprocal lattice vectors
     8.813512802  0.000000000  0.000000000     0.113462137 -0.065507406  0.000000000
     4.406756909  7.632725690  0.000000000     0.000000000  0.131014796  0.000000000
     0.000000000  0.000000000 22.196203232     0.000000000  0.000000000  0.045052750

  length of vectors
     8.813512802  8.813512802 22.196203232     0.131014796  0.131014796  0.045052750


 
 k-points in units of 2pi/SCALE and weight: Automatic mesh                          
   0.00000000  0.00000000  0.00000000       0.016
   0.01418277 -0.00818843  0.00000000       0.094
   0.02836553 -0.01637685  0.00000000       0.094
   0.04254830 -0.02456528  0.00000000       0.094
   0.05673107 -0.03275370  0.00000000       0.047
   0.02836553 -0.00000000  0.00000000       0.094
   0.04254830 -0.00818843  0.00000000       0.188
   0.05673107 -0.01637685  0.00000000       0.188
   0.05673107 -0.00000000  0.00000000       0.094
  -0.04254830  0.05731898  0.00000000       0.094
 
 k-points in reciprocal lattice and weights: Automatic mesh                          
   0.00000000  0.00000000  0.00000000       0.016
   0.12500000 -0.00000000  0.00000000       0.094
   0.25000000 -0.00000000  0.00000000       0.094
   0.37500000  0.00000000  0.00000000       0.094
   0.50000000 -0.00000000  0.00000000       0.047
   0.25000000  0.12500000  0.00000000       0.094
   0.37500000  0.12500000  0.00000000       0.188
   0.50000000  0.12500000  0.00000000       0.188
   0.50000000  0.25000000  0.00000000       0.094
  -0.37500000  0.25000000  0.00000000       0.094
 
 position of ions in fractional coordinates (direct lattice) 
   0.00000000  0.00000000  0.23789564
   0.33333334  0.00000000  0.23789564
   0.66666669  0.00000000  0.23789564
   0.00000000  0.33333334  0.23789564
   0.33333331  0.33333334  0.23789564
   0.66666669  0.33333334  0.23789564
   0.00000000  0.66666669  0.23789564
   0.33333334  0.66666669  0.23789564
   0.66666663  0.66666669  0.23789564
   0.11111112  0.11111111  0.34596521
   0.44444442  0.11111111  0.34596521
   0.77777779  0.11111111  0.34596521
   0.11111113  0.44444445  0.34596521
   0.44444448  0.44444445  0.34596521
   0.77777773  0.44444445  0.34596521
   0.11111109  0.77777779  0.34596521
   0.44444445  0.77777779  0.34596521
   0.77777785  0.77777779  0.34596521
   0.88884635  0.22230732  0.45393656
   0.22256107  0.22256106  0.45238371
   0.55487791  0.22256106  0.45238371
   0.88663168  0.55668419  0.45336371
   0.22256103  0.55487791  0.45238371
   0.55668419  0.55668419  0.45336371
   0.88884635  0.88884635  0.45393656
   0.22230735  0.88884635  0.45393656
   0.55668413  0.88663168  0.45336371
   0.00000000  0.00000000  0.56291582
   0.33324958  0.00661138  0.56218508
   0.66013907  0.00661138  0.56218508
   0.00661138  0.33324958  0.56218508
   0.66013907  0.33324958  0.56218508
   0.00661138  0.66013907  0.56218508
   0.33324958  0.66013907  0.56218508
   0.66666663  0.66666669  0.56295875
   0.33333331  0.33333334  0.55153505
   0.33333331  0.33333334  0.63687697
   0.33333331  0.33333334  0.68038782
 
 position of ions in cartesian coordinates  (Angst):
   0.00000000  0.00000000  5.28037993
   2.93783769  0.00000000  5.28037993
   5.87567538  0.00000000  5.28037993
   1.46891901  2.54424197  5.28037993
   4.40675643  2.54424197  5.28037993
   7.34459439  2.54424197  5.28037993
   2.93783803  5.08848395  5.28037993
   5.87567571  5.08848395  5.28037993
   8.81351288  5.08848395  5.28037993
   1.46891893  0.84808064  7.67911405
   4.40675623  0.84808064  7.67911405
   7.34459418  0.84808064  7.67911405
   2.93783798  3.39232256  7.67911405
   5.87567574  3.39232256  7.67911405
   8.81351263  3.39232256  7.67911405
   4.40675667  5.93656453  7.67911405
   7.34459449  5.93656453  7.67911405
  10.28243270  5.93656453  7.67911405
   8.81351299  1.69681076 10.07566805
   2.94231737  1.69874752 10.04120080
   5.87119606  1.69874752 10.04120080
  10.26751158  4.24901771 10.06295314
   4.40675655  4.23523089 10.04120080
   7.35951512  4.24901771 10.06295314
  11.75078848  6.78432037 10.07566805
   5.87623843  6.78432037 10.07566805
   8.81351299  6.76741642 10.06295314
   0.00000000  0.00000000 12.49459404
   2.96623417  0.05046282 12.47837422
   5.84727890  0.05046282 12.47837422
   1.52681934  2.54360264 12.47837422
   7.28669406  2.54360264 12.47837422
   2.96734187  5.03866046 12.47837422
   5.84617187  5.03866046 12.47837422
   8.81351288  5.08848395 12.49554672
   4.40675643  2.54424197 12.24198414
   4.40675643  2.54424197 14.13625075
   4.40675643  2.54424197 15.10202633
 


--------------------------------------------------------------------------------------------------------


 k-point   1 :   0.0000 0.0000 0.0000  plane waves:   37827
 k-point   2 :   0.1250-0.0000 0.0000  plane waves:   37876
 k-point   3 :   0.2500-0.0000 0.0000  plane waves:   37924
 k-point   4 :   0.3750 0.0000 0.0000  plane waves:   37904
 k-point   5 :   0.5000-0.0000 0.0000  plane waves:   37912
 k-point   6 :   0.2500 0.1250 0.0000  plane waves:   37858
 k-point   7 :   0.3750 0.1250 0.0000  plane waves:   37928
 k-point   8 :   0.5000 0.1250 0.0000  plane waves:   37924
 k-point   9 :   0.5000 0.2500 0.0000  plane waves:   37926
 k-point  10 :  -0.3750 0.2500 0.0000  plane waves:   37916

 maximum and minimum number of plane-waves per node :     37928    37827

 maximum number of plane-waves:     37928
 maximum index in each direction: 
   IXMAX=   16   IYMAX=   16   IZMAX=   40
   IXMIN=  -16   IYMIN=  -16   IZMIN=  -40


 serial   3D FFT for wavefunctions
 parallel 3D FFT for charge:
    minimum data exchange during FFTs selected (reduces bandwidth)


 total amount of memory used by VASP MPI-rank0   123293. kBytes
=======================================================================

   base      :      30000. kBytes
   nonlr-proj:      14113. kBytes
   fftplans  :       4330. kBytes
   grid      :      18659. kBytes
   one-center:        590. kBytes
   wavefun   :      55601. kBytes
 
     INWAV:  cpu time    0.0000: real time    0.0000
 initial charge density was supplied:
 number of electron     399.9999950 magnetization 
 keeping initial charge density in first step


--------------------------------------------------------------------------------------------------------


 Maximum index for non-local projection operator         2778
 Maximum index for augmentation-charges          858 (set IRDMAX)


--------------------------------------------------------------------------------------------------------


 First call to EWALD:  gamma=   0.155
 Maximum number of real-space cells 4x 4x 2
 Maximum number of reciprocal cells 2x 2x 5

    FEWALD:  cpu time    0.0013: real time    0.0013


--------------------------------------- Iteration      1(   1)  ---------------------------------------


    POTLOK:  cpu time    0.0457: real time    0.0461
    SETDIJ:  cpu time    0.0052: real time    0.0053
     EDDAV:  cpu time    7.1519: real time    7.1531
 BZINTS: Fermi energy:   11.467037;  400.000000 electrons
         Band energy: 0.159791E+04;  BLOECHL correction:   -0.010803
       DOS:  cpu time    0.0107: real time    0.0108
    --------------------------------------------
      LOOP:  cpu time    7.2135: real time    7.2152

 eigenvalue-minimisations  :  5040
 total energy-change (2. order) : 0.2628695E+04  (-0.1818551E+05)
 number of electron     399.9999950 magnetization 
 augmentation part      399.9999950 magnetization 

 Free energy of the ion-electron system (eV)
  ---------------------------------------------------
  alpha Z        PSCENC =      1015.05739272
  Ewald energy   TEWEN  =     96340.86095277
  -Hartree energ DENC   =   -130927.89221940
  -exchange      EXHF   =         0.00000000
  -V(xc)+E(xc)   XCENC  =       516.25702709
  PAW double counting   =     36301.78884211   -35527.89632401
  entropy T*S    EENTRO =         0.00000000
  eigenvalues    EBANDS =      1597.90786035
  atomic energy  EATOM  =     33312.61122380
  Solvation  Ediel_sol  =         0.00000000
  ---------------------------------------------------
  free energy    TOTEN  =      2628.69475544 eV

  energy without entropy =     2628.69475544  energy(sigma->0) =     2628.69475544


--------------------------------------------------------------------------------------------------------




--------------------------------------- Iteration      1(   2)  ---------------------------------------


     EDDAV:  cpu time    7.7479: real time    7.7480
 BZINTS: Fermi energy:    1.635099;  400.000000 electrons
         Band energy:-0.102168E+04;  BLOECHL correction:   -0.051182
       DOS:  cpu time    0.0102: real time    0.0102
    --------------------------------------------
      LOOP:  cpu time    7.7580: real time    7.7582

 eigenvalue-minimisations  :  5600
 total energy-change (2. order) :-0.2619589E+04  (-0.2426069E+04)
 number of electron     399.9999950 magnetization 
 augmentation part      399.9999950 magnetization 

 Free energy of the ion-electron system (eV)
  ---------------------------------------------------
  alpha Z        PSCENC =      1015.05739272
  Ewald energy   TEWEN  =     96340.86095277
  -Hartree energ DENC   =   -130927.89221940
  -exchange      EXHF   =         0.00000000
  -V(xc)+E(xc)   XCENC  =       516.25702709
  PAW double counting   =     36301.78884211   -35527.89632401
  entropy T*S    EENTRO =         0.00000000
  eigenvalues    EBANDS =     -1021.68115535
  atomic energy  EATOM  =     33312.61122380
  Solvation  Ediel_sol  =         0.00000000
  ---------------------------------------------------
  free energy    TOTEN  =         9.10573973 eV

  energy without entropy =        9.10573973  energy(sigma->0) =        9.10573973


--------------------------------------------------------------------------------------------------------




--------------------------------------- Iteration      1(   3)  ---------------------------------------


     EDDAV:  cpu time    8.0807: real time    8.0810
 BZINTS: Fermi energy:    0.916571;  400.000000 electrons
         Band energy:-0.115204E+04;  BLOECHL correction:   -0.062763
       DOS:  cpu time    0.0100: real time    0.0100
    --------------------------------------------
      LOOP:  cpu time    8.0907: real time    8.0909

 eigenvalue-minimisations  :  5880
 total energy-change (2. order) :-0.1303558E+03  (-0.1259987E+03)
 number of electron     399.9999950 magnetization 
 augmentation part      399.9999950 magnetization 

 Free energy of the ion-electron system (eV)
  ---------------------------------------------------
  alpha Z        PSCENC =      1015.05739272
  Ewald energy   TEWEN  =     96340.86095277
  -Hartree energ DENC   =   -130927.89221940
  -exchange      EXHF   =         0.00000000
  -V(xc)+E(xc)   XCENC  =       516.25702709
  PAW double counting   =     36301.78884211   -35527.89632401
  entropy T*S    EENTRO =         0.00000000
  eigenvalues    EBANDS =     -1152.03692950
  atomic energy  EATOM  =     33312.61122380
  Solvation  Ediel_sol  =         0.00000000
  ---------------------------------------------------
  free energy    TOTEN  =      -121.25003441 eV

  energy without entropy =     -121.25003441  energy(sigma->0) =     -121.25003441


--------------------------------------------------------------------------------------------------------




--------------------------------------- Iteration      1(   4)  ---------------------------------------


     EDDAV:  cpu time    7.6658: real time    7.6658
 BZINTS: Fermi energy:    0.900147;  400.000000 electrons
         Band energy:-0.115470E+04;  BLOECHL correction:   -0.063509
       DOS:  cpu time    0.0102: real time    0.0102
    --------------------------------------------
      LOOP:  cpu time    7.6760: real time    7.6761

 eigenvalue-minimisations  :  5516
 total energy-change (2. order) :-0.2666698E+01  (-0.2662033E+01)
 number of electron     399.9999950 magnetization 
 augmentation part      399.9999950 magnetization 

 Free energy of the ion-electron system (eV)
  ---------------------------------------------------
  alpha Z        PSCENC =      1015.05739272
  Ewald energy   TEWEN  =     96340.86095277
  -Hartree energ DENC   =   -130927.89221940
  -exchange      EXHF   =         0.00000000
  -V(xc)+E(xc)   XCENC  =       516.25702709
  PAW double counting   =     36301.78884211   -35527.89632401
  entropy T*S    EENTRO =         0.00000000
  eigenvalues    EBANDS =     -1154.70362777
  atomic energy  EATOM  =     33312.61122380
  Solvation  Ediel_sol  =         0.00000000
  ---------------------------------------------------
  free energy    TOTEN  =      -123.91673269 eV

  energy without entropy =     -123.91673269  energy(sigma->0) =     -123.91673269


--------------------------------------------------------------------------------------------------------




--------------------------------------- Iteration      1(   5)  ---------------------------------------


     EDDAV:  cpu time    8.5306: real time    8.5307
 BZINTS: Fermi energy:    0.899819;  400.000000 electrons
         Band energy:-0.115478E+04;  BLOECHL correction:   -0.063532
       DOS:  cpu time    0.0102: real time    0.0102
    --------------------------------------------
      LOOP:  cpu time    8.5408: real time    8.5409

 eigenvalue-minimisations  :  6272
 total energy-change (2. order) :-0.8124779E-01  (-0.8122553E-01)
 number of electron     399.9999950 magnetization 
 augmentation part      399.9999950 magnetization 

 Free energy of the ion-electron system (eV)
  ---------------------------------------------------
  alpha Z        PSCENC =      1015.05739272
  Ewald energy   TEWEN  =     96340.86095277
  -Hartree energ DENC   =   -130927.89221940
  -exchange      EXHF   =         0.00000000
  -V(xc)+E(xc)   XCENC  =       516.25702709
  PAW double counting   =     36301.78884211   -35527.89632401
  entropy T*S    EENTRO =         0.00000000
  eigenvalues    EBANDS =     -1154.78487556
  atomic energy  EATOM  =     33312.61122380
  Solvation  Ediel_sol  =         0.00000000
  ---------------------------------------------------
  free energy    TOTEN  =      -123.99798048 eV

  energy without entropy =     -123.99798048  energy(sigma->0) =     -123.99798048


--------------------------------------------------------------------------------------------------------




--------------------------------------- Iteration      1(   6)  ---------------------------------------


    EDDIAG:  cpu time    1.4062: real time    1.4065
  RMM-DIIS:  cpu time    3.9328: real time    3.9329
    ORTHCH:  cpu time    0.2607: real time    0.2607
 BZINTS: Fermi energy:    0.899818;  400.000000 electrons
         Band energy:-0.115479E+04;  BLOECHL correction:   -0.063532
       DOS:  cpu time    0.0095: real time    0.0095
    --------------------------------------------
      LOOP:  cpu time    5.6092: real time    5.6096

 eigenvalue-minimisations  :  5097
 total energy-change (2. order) :-0.1711474E-02  (-0.1711408E-02)
 number of electron     399.9999950 magnetization 
 augmentation part      399.9999950 magnetization 

 Free energy of the ion-electron system (eV)
  ---------------------------------------------------
  alpha Z        PSCENC =      1015.05739272
  Ewald energy   TEWEN  =     96340.86095277
  -Hartree energ DENC   =   -130927.89221940
  -exchange      EXHF   =         0.00000000
  -V(xc)+E(xc)   XCENC  =       516.25702709
  PAW double counting   =     36301.78884211   -35527.89632401
  entropy T*S    EENTRO =         0.00000000
  eigenvalues    EBANDS =     -1154.78658703
  atomic energy  EATOM  =     33312.61122380
  Solvation  Ediel_sol  =         0.00000000
  ---------------------------------------------------
  free energy    TOTEN  =      -123.99969195 eV

  energy without entropy =     -123.99969195  energy(sigma->0) =     -123.99969195


--------------------------------------------------------------------------------------------------------




--------------------------------------- Iteration      1(   7)  ---------------------------------------


    EDDIAG:  cpu time    1.4069: real time    1.4071
  RMM-DIIS:  cpu time    5.1283: real time    5.1283
    ORTHCH:  cpu time    0.2604: real time    0.2604
 BZINTS: Fermi energy:    0.899818;  400.000000 electrons
         Band energy:-0.115479E+04;  BLOECHL correction:   -0.063532
       DOS:  cpu time    0.0102: real time    0.0102
    --------------------------------------------
      LOOP:  cpu time    6.8057: real time    6.8060

 eigenvalue-minimisations  :  6626
 total energy-change (2. order) :-0.5098447E-03  (-0.5080653E-03)
 number of electron     399.9999950 magnetization 
 augmentation part      399.9999950 magnetization 

 Free energy of the ion-electron system (eV)
  ---------------------------------------------------
  alpha Z        PSCENC =      1015.05739272
  Ewald energy   TEWEN  =     96340.86095277
  -Hartree energ DENC   =   -130927.89221940
  -exchange      EXHF   =         0.00000000
  -V(xc)+E(xc)   XCENC  =       516.25702709
  PAW double counting   =     36301.78884211   -35527.89632401
  entropy T*S    EENTRO =         0.00000000
  eigenvalues    EBANDS =     -1154.78709688
  atomic energy  EATOM  =     33312.61122380
  Solvation  Ediel_sol  =         0.00000000
  ---------------------------------------------------
  free energy    TOTEN  =      -124.00020180 eV

  energy without entropy =     -124.00020180  energy(sigma->0) =     -124.00020180


--------------------------------------------------------------------------------------------------------




--------------------------------------- Iteration      1(   8)  ---------------------------------------


    EDDIAG:  cpu time    1.4083: real time    1.4084
  RMM-DIIS:  cpu time    4.6729: real time    4.6730
    ORTHCH:  cpu time    0.2606: real time    0.2606
 BZINTS: Fermi energy:    0.899818;  400.000000 electrons
         Band energy:-0.115479E+04;  BLOECHL correction:   -0.063532
       DOS:  cpu time    0.0102: real time    0.0102
    --------------------------------------------
      LOOP:  cpu time    6.3521: real time    6.3522

 eigenvalue-minimisations  :  5948
 total energy-change (2. order) :-0.4891615E-04  (-0.4894560E-04)
 number of electron     399.9999950 magnetization 
 augmentation part      399.9999950 magnetization 

 Free energy of the ion-electron system (eV)
  ---------------------------------------------------
  alpha Z        PSCENC =      1015.05739272
  Ewald energy   TEWEN  =     96340.86095277
  -Hartree energ DENC   =   -130927.89221940
  -exchange      EXHF   =         0.00000000
  -V(xc)+E(xc)   XCENC  =       516.25702709
  PAW double counting   =     36301.78884211   -35527.89632401
  entropy T*S    EENTRO =         0.00000000
  eigenvalues    EBANDS =     -1154.78714580
  atomic energy  EATOM  =     33312.61122380
  Solvation  Ediel_sol  =         0.00000000
  ---------------------------------------------------
  free energy    TOTEN  =      -124.00025071 eV

  energy without entropy =     -124.00025071  energy(sigma->0) =     -124.00025071


--------------------------------------------------------------------------------------------------------




--------------------------------------- Iteration      1(   9)  ---------------------------------------


    EDDIAG:  cpu time    1.4077: real time    1.4105
  RMM-DIIS:  cpu time    3.1440: real time    3.1440
    ORTHCH:  cpu time    0.2606: real time    0.2607
 BZINTS: Fermi energy:    0.899818;  400.000000 electrons
         Band energy:-0.115479E+04;  BLOECHL correction:   -0.063532
       DOS:  cpu time    0.0094: real time    0.0094
    --------------------------------------------
      LOOP:  cpu time    4.8217: real time    4.8246

 eigenvalue-minimisations  :  3431
 total energy-change (2. order) :-0.3594381E-05  (-0.3549554E-05)
 number of electron     399.9999950 magnetization 
 augmentation part      399.9999950 magnetization 

 Free energy of the ion-electron system (eV)
  ---------------------------------------------------
  alpha Z        PSCENC =      1015.05739272
  Ewald energy   TEWEN  =     96340.86095277
  -Hartree energ DENC   =   -130927.89221940
  -exchange      EXHF   =         0.00000000
  -V(xc)+E(xc)   XCENC  =       516.25702709
  PAW double counting   =     36301.78884211   -35527.89632401
  entropy T*S    EENTRO =         0.00000000
  eigenvalues    EBANDS =     -1154.78714939
  atomic energy  EATOM  =     33312.61122380
  Solvation  Ediel_sol  =         0.00000000
  ---------------------------------------------------
  free energy    TOTEN  =      -124.00025431 eV

  energy without entropy =     -124.00025431  energy(sigma->0) =     -124.00025431


--------------------------------------------------------------------------------------------------------




 average (electrostatic) potential at core
  the test charge radii are     1.2098  1.2511  0.7215  0.5201
  (the norm of the test charge is              1.0000)
       1 -72.1805       2 -72.1408       3 -72.1408       4 -72.1408       5 -72.1483
       6 -72.1405       7 -72.1408       8 -72.1405       9 -72.1659      10 -72.4961
      11 -72.4494      12 -72.4960      13 -72.4494      14 -72.4491      15 -72.4860
      16 -72.4960      17 -72.4860      18 -72.4862      19 -72.4076      20 -72.5237
      21 -72.5238      22 -72.4535      23 -72.5238      24 -72.4533      25 -72.4078
      26 -72.4076      27 -72.4535      28 -72.0473      29 -72.0786      30 -72.0787
      31 -72.0786      32 -72.0784      33 -72.0787      34 -72.0784      35 -72.0390
      36 -67.3446      37 -75.0110      38 -39.4924
 
 
 
 E-fermi :   0.8998     XC(G=0):  -6.1764     alpha+bet : -5.8139

 Fermi energy:         0.8998179486

 k-point     1 :       0.0000    0.0000    0.0000
  band No.  band energies     occupation 
      1     -18.5569      2.00000
      2      -7.9326      2.00000
      3      -7.2941      2.00000
      4      -6.6981      2.00000
      5      -5.8062      2.00000
      6      -5.7682      2.00000
      7      -5.7682      2.00000
      8      -5.7609      2.00000
      9      -5.7472      2.00000
     10      -5.7430      2.00000
     11      -5.7430      2.00000
     12      -5.6394      2.00000
     13      -5.2908      2.00000
     14      -5.2753      2.00000
     15      -5.2753      2.00000
     16      -5.2522      2.00000
     17      -5.2522      2.00000
     18      -5.2262      2.00000
     19      -4.8985      2.00000
     20      -4.8985      2.00000
     21      -4.8904      2.00000
     22      -4.8801      2.00000
     23      -4.8665      2.00000
     24      -4.8665      2.00000
     25      -4.7239      2.00000
     26      -4.7239      2.00000
     27      -4.7210      2.00000
     28      -4.6981      2.00000
     29      -4.6981      2.00000
     30      -4.6556      2.00000
     31      -4.5616      2.00000
     32      -4.5616      2.00000
     33      -4.5463      2.00000
     34      -4.5463      2.00000
     35      -4.5378      2.00000
     36      -4.5218      2.00000
     37      -4.5218      2.00000
     38      -4.5127      2.00000
     39      -4.5060      2.00000
     40      -4.4293      2.00000
     41      -4.4293      2.00000
     42      -4.3822      2.00000
     43      -4.0513      2.00000
     44      -4.0513      2.00000
     45      -4.0026      2.00000
     46      -4.0026      2.00000
     47      -4.0020      2.00000
     48      -3.9808      2.00000
     49      -3.9808      2.00000
     50      -3.9790      2.00000
     51      -3.9644      2.00000
     52      -3.9644      2.00000
     53      -3.8973      2.00000
     54      -3.8829      2.00000
     55      -3.8104      2.00000
     56      -3.7957      2.00000
     57      -3.4886      2.00000
     58      -3.4886      2.00000
     59      -3.4598      2.00000
     60      -3.4570      2.00000
     61      -3.4350      2.00000
     62      -3.4264      2.00000
     63      -3.4264      2.00000
     64      -3.3923      2.00000
     65      -3.3923      2.00000
     66      -3.3350      2.00000
     67      -3.3350      2.00000
     68      -3.3036      2.00000
     69      -3.3036      2.00000
     70      -3.2895      2.00000
     71      -3.2491      2.00000
     72      -3.2491      2.00000
     73      -3.2166      2.00000
     74      -3.2089      2.00000
     75      -3.2089      2.00000
     76      -3.1944      2.00000
     77      -3.1879      2.00000
     78      -3.1879      2.00000
     79      -3.1820      2.00000
     80      -3.1767      2.00000
     81      -3.1767      2.00000
     82      -3.1600      2.00000
     83      -3.1600      2.00000
     84      -3.0982      2.00000
     85      -3.0982      2.00000
     86      -3.0947      2.00000
     87      -3.0622      2.00000
     88      -3.0621      2.00000
     89      -3.0477      2.00000
     90      -3.0358      2.00000
     91      -3.0048      2.00000
     92      -3.0048      2.00000
     93      -2.9758      2.00000
     94      -2.9758      2.00000
     95      -2.8218      2.00000
     96      -2.8217      2.00000
     97      -2.7902      2.00000
     98      -2.7902      2.00000
     99      -2.7804      2.00000
    100      -2.7804      2.00000
    101      -2.6038      2.00000
    102      -2.6037      2.00000
    103      -2.5956      2.00000
    104      -2.5854      2.00000
    105      -2.5853      2.00000
    106      -2.5507      2.00000
    107      -2.4473      2.00000
    108      -2.4473      2.00000
    109      -2.3967      2.00000
    110      -2.3967      2.00000
    111      -2.3786      2.00000
    112      -2.3657      2.00000
    113      -2.3656      2.00000
    114      -2.3456      2.00000
    115      -2.3442      2.00000
    116      -2.2597      2.00000
    117      -2.2479      2.00000
    118      -2.2386      2.00000
    119      -2.2385      2.00000
    120      -2.1258      2.00000
    121      -2.0835      2.00000
    122      -2.0835      2.00000
    123      -2.0670      2.00000
    124      -2.0286      2.00000
    125      -2.0286      2.00000
    126      -2.0124      2.00000
    127      -2.0123      2.00000
    128      -1.9904      2.00000
    129      -1.9904      2.00000
    130      -1.9288      2.00000
    131      -1.9288      2.00000
    132      -1.8257      2.00000
    133      -1.8257      2.00000
    134      -1.8242      2.00000
    135      -1.8101      2.00000
    136      -1.8101      2.00000
    137      -1.8075      2.00000
    138      -1.8048      2.00000
    139      -1.7780      2.00000
    140      -1.7779      2.00000
    141      -1.7174      2.00000
    142      -1.7174      2.00000
    143      -1.6677      2.00000
    144      -1.6106      2.00000
    145      -1.6106      2.00000
    146      -1.5629      2.00000
    147      -1.5598      2.00000
    148      -1.5598      2.00000
    149      -1.5330      2.00000
    150      -1.5330      2.00000
    151      -1.5203      2.00000
    152      -1.5078      2.00000
    153      -1.5078      2.00000
    154      -1.4913      2.00000
    155      -1.4911      2.00000
    156      -1.4498      2.00000
    157      -1.4498      2.00000
    158      -1.3887      2.00000
    159      -1.3686      2.00000
    160      -1.3620      2.00000
    161      -1.3620      2.00000
    162      -1.3594      2.00000
    163      -1.3520      2.00000
    164      -1.3458      2.00000
    165      -1.3458      2.00000
    166      -1.3016      2.00000
    167      -1.3016      2.00000
    168      -1.2930      2.00000
    169      -1.2930      2.00000
    170      -1.2691      2.00000
    171      -1.2691      2.00000
    172      -1.2492      2.00000
    173      -1.2454      2.00000
    174      -1.2428      2.00000
    175      -1.2428      2.00000
    176      -1.2418      2.00000
    177      -1.2087      2.00000
    178      -1.1957      2.00000
    179      -1.1956      2.00000
    180      -1.1765      2.00000
    181      -1.1500      2.00000
    182      -1.1500      2.00000
    183      -1.1354      2.00000
    184      -1.1354      2.00000
    185      -1.1256      2.00000
    186      -1.1190      2.00000
    187      -1.0127      2.00000
    188      -1.0127      2.00000
    189      -0.9720      2.00000
    190      -0.9720      2.00000
    191      -0.9311      2.00000
    192      -0.9311      2.00000
    193      -0.9177      2.00000
    194      -0.9048      2.00000
    195      -0.1647      2.00000
    196       0.0550      2.00000
    197       0.2593      2.00000
    198       0.2593      2.00000
    199       0.3362      2.00000
    200       0.4315      2.00000
    201       0.4315      2.00000
    202       0.4971      2.00000
    203       0.4971      2.00000
    204       0.8391      2.00000
    205       0.8391      1.90867
    206       1.2396      0.00000
    207       1.7137      0.00000
    208       2.4573      0.00000
    209       2.5069      0.00000
    210       2.5069      0.00000
    211       2.6451      0.00000
    212       2.6452      0.00000
    213       3.4104      0.00000
    214       3.6885      0.00000
    215       3.6885      0.00000
    216       3.7357      0.00000
    217       3.7734      0.00000
    218       3.7734      0.00000
    219       3.8860      0.00000
    220       4.3193      0.00000
    221       4.9200      0.00000
    222       5.3575      0.00000
    223       5.5255      0.00000
    224       5.5382      0.00000
    225       5.5530      0.00000
    226       5.5530      0.00000
    227       5.5733      0.00000
    228       5.5733      0.00000
    229       5.7409      0.00000
    230       5.7409      0.00000
    231       5.7782      0.00000
    232       5.7782      0.00000
    233       5.8641      0.00000
    234       6.3580      0.00000
    235       6.5343      0.00000
    236       6.9343      0.00000
    237       7.0068      0.00000
    238       7.1804      0.00000
    239       7.1812      0.00000
    240       7.2533      0.00000
    241       7.2549      0.00000
    242       7.2550      0.00000
    243       7.2908      0.00000
    244       7.3504      0.00000
    245       7.3559      0.00000
    246       7.4569      0.00000
    247       7.4737      0.00000
    248       7.5225      0.00000
    249       7.5855      0.00000
    250       7.5920      0.00000
    251       7.6488      0.00000
    252       7.7033      0.00000

 k-point     2 :       0.1250   -0.0000    0.0000
  band No.  band energies     occupation 
      1     -18.5569      2.00000
      2      -7.8828      2.00000
      3      -7.2914      2.00000
      4      -6.6509      2.00000
      5      -6.0071      2.00000
      6      -5.8320      2.00000
      7      -5.8311      2.00000
      8      -5.7523      2.00000
      9      -5.6489      2.00000
     10      -5.6410      2.00000
     11      -5.6271      2.00000
     12      -5.5904      2.00000
     13      -5.3138      2.00000
     14      -5.2812      2.00000
     15      -5.2588      2.00000
     16      -5.2518      2.00000
     17      -5.2279      2.00000
     18      -5.2047      2.00000
     19      -4.9486      2.00000
     20      -4.8940      2.00000
     21      -4.8930      2.00000
     22      -4.8556      2.00000
     23      -4.8385      2.00000
     24      -4.8381      2.00000
     25      -4.7906      2.00000
     26      -4.7381      2.00000
     27      -4.7269      2.00000
[...]
  0.000   0.000   0.000   0.000   0.000   0.000   0.000   0.000   0.000   0.000   0.000   0.000   0.000   0.000   0.000   0.000
  0.000   0.000   0.000   0.000   0.000   0.000   0.000   0.000   0.000   0.000   0.000   0.000   0.000   0.000   0.000   0.000
  0.000   0.000   0.000   0.000   0.000   0.000   0.000   0.000   0.000   0.000   1.000   0.000   0.000   0.000   0.000   0.000
  0.000   0.000   0.000   0.000   0.000   0.000   0.000   0.000   0.000   0.000   0.000   0.000   0.000   0.000   0.000   0.000
  0.000   0.000   0.000   0.000   0.000   0.000   0.000   0.000   0.000   0.000   0.000   0.000   0.000   0.000   0.000   0.000
  0.000   0.000   0.000   0.000   0.000   0.000   0.000   0.000   0.000   0.000   0.000   0.000   0.000   0.000   0.000   0.000
  0.000   0.000   0.000   0.000   0.000   0.000   0.000   0.000   0.000   0.000   0.000   0.000   0.000   0.000   0.000   0.000
  0.000   0.000   0.000   0.000   0.000   0.000   0.000   0.000   0.000   0.000   0.000   0.000   0.000   0.000   0.000   0.000
  0.000   0.000   0.000   0.000   0.000   0.000   0.000   0.000   0.000   0.000   0.000   0.000   0.000   0.000   0.000   0.000
  0.000   0.000   0.000   0.000   0.000   0.000   0.000   0.000   0.000   0.000   0.000   0.000   0.000   0.000   0.000   0.000


------------------------ aborting loop because EDIFF is reached ----------------------------------------





 total charge

# of ion       s       p       d       tot
------------------------------------------
    1        0.547   0.238   8.769   9.553
    2        0.545   0.241   8.763   9.549
    3        0.545   0.241   8.763   9.549
    4        0.545   0.241   8.763   9.549
    5        0.543   0.242   8.760   9.545
    6        0.545   0.241   8.763   9.549
    7        0.545   0.241   8.763   9.549
    8        0.545   0.241   8.763   9.549
    9        0.541   0.240   8.765   9.546
   10        0.525   0.309   8.767   9.601
   11        0.520   0.309   8.777   9.606
   12        0.525   0.309   8.767   9.601
   13        0.520   0.309   8.777   9.606
   14        0.520   0.309   8.777   9.606
   15        0.515   0.308   8.778   9.601
   16        0.525   0.309   8.767   9.601
   17        0.515   0.308   8.778   9.601
   18        0.515   0.308   8.778   9.601
   19        0.515   0.301   8.777   9.592
   20        0.551   0.334   8.744   9.629
   21        0.551   0.334   8.744   9.629
   22        0.508   0.308   8.777   9.592
   23        0.551   0.334   8.744   9.629
   24        0.508   0.308   8.777   9.592
   25        0.515   0.301   8.777   9.592
   26        0.515   0.301   8.777   9.592
   27        0.508   0.308   8.777   9.592
   28        0.543   0.227   8.764   9.534
   29        0.546   0.240   8.760   9.546
   30        0.546   0.240   8.760   9.546
   31        0.546   0.240   8.760   9.546
   32        0.546   0.240   8.760   9.546
   33        0.546   0.240   8.760   9.546
   34        0.546   0.240   8.760   9.546
   35        0.534   0.229   8.766   9.529
   36        0.465   0.577   6.479   7.521
   37        1.545   3.528   0.000   5.073
   38        0.601   0.127   0.000   0.728
--------------------------------------------------
tot         21.263  13.897 313.305 348.465
 
    CHARGE:  cpu time    0.3402: real time    0.3404
    FORLOC:  cpu time    0.0110: real time    0.0110
    FORNL :  cpu time    1.4546: real time    1.4548
    STRESS:  cpu time    4.3486: real time    4.3489
    FORCOR:  cpu time    0.0517: real time    0.0519
    FORHAR:  cpu time    0.0176: real time    0.0177
    OFIELD:  cpu time    0.0002: real time    0.0002

  FORCE on cell =-STRESS in cart. coord.  units (eV):
  Direction    XX          YY          ZZ          XY          YZ          ZX
  --------------------------------------------------------------------------------------
  Alpha Z  1015.05739  1015.05739  1015.05739
  Ewald  118984.91841118984.91884************    -0.00032    -0.00009    -0.00013
  Hartree127846.63232127846.63233************     0.00001    -0.00002    -0.00003
  E(xc)   -1798.51200 -1798.51202 -1804.21699     0.00002    -0.00000    -0.00000
  Local  ************************259176.47857     0.00208     0.00001    -0.00002
  n-local  -102.97926   -48.12185   -46.78690    26.17366    -1.22391     1.55382
  augment  2421.30469  2421.30625  2430.62492    -0.00135     0.00003     0.00004
  Kinetic  5584.80305  5600.25491  5604.84890     7.70816    -0.15719     0.58476
  Fock        0.00000     0.00000     0.00000     0.00000     0.00000     0.00000
  -------------------------------------------------------------------------------------
  Total     -20.37834   -20.37833     2.70953    -0.00000     0.00000     0.00000
  in kB     -21.86613   -21.86613     2.90735    -0.00000     0.00000     0.00000
  external pressure =      -13.61 kB  Pullay stress =        0.00 kB


 VOLUME and BASIS-vectors are now :
 -----------------------------------------------------------------------------
  energy-cutoff  :      500.00
  volume of cell :     1493.16
      direct lattice vectors                 reciprocal lattice vectors
     8.813512802  0.000000000  0.000000000     0.113462137 -0.065507406  0.000000000
     4.406756909  7.632725690  0.000000000     0.000000000  0.131014796  0.000000000
     0.000000000  0.000000000 22.196203232     0.000000000  0.000000000  0.045052750

  length of vectors
     8.813512802  8.813512802 22.196203232     0.131014796  0.131014796  0.045052750


 FORCES acting on ions
    electron-ion (+dipol)            ewald-force                    non-local-force                 convergence-correction
 -----------------------------------------------------------------------------------------------
   -.195E-04 -.161E-04 0.249E+04   0.519E-04 0.434E-04 -.249E+04   -.439E-18 0.198E-17 -.988E+00   -.182E-03 -.118E-03 -.409E+00
   0.303E+00 0.275E+00 0.249E+04   -.487E+00 -.362E+00 -.249E+04   0.566E-01 0.929E-01 -.258E+00   0.116E+00 0.754E-02 -.501E+00
   -.303E+00 0.275E+00 0.249E+04   0.487E+00 -.362E+00 -.249E+04   -.566E-01 0.929E-01 -.258E+00   -.116E+00 0.947E-02 -.500E+00
   0.389E+00 0.125E+00 0.249E+04   -.557E+00 -.241E+00 -.249E+04   0.109E+00 0.260E-02 -.258E+00   0.647E-01 0.968E-01 -.501E+00
   0.914E-05 -.230E-04 0.249E+04   0.951E-04 0.173E-05 -.249E+04   -.931E-18 0.343E-18 -.166E+00   0.424E-02 0.258E-02 -.452E+00
   -.389E+00 0.125E+00 0.249E+04   0.557E+00 -.241E+00 -.249E+04   -.109E+00 0.260E-02 -.258E+00   -.662E-01 0.977E-01 -.500E+00
   0.863E-01 -.400E+00 0.249E+04   -.696E-01 0.603E+00 -.249E+04   0.521E-01 -.955E-01 -.258E+00   -.497E-01 -.105E+00 -.500E+00
   -.863E-01 -.400E+00 0.249E+04   0.694E-01 0.603E+00 -.249E+04   -.521E-01 -.955E-01 -.258E+00   0.515E-01 -.106E+00 -.500E+00
   0.192E-04 -.417E-04 0.249E+04   0.166E-03 -.201E-04 -.249E+04   0.579E-17 0.301E-17 -.551E+00   -.461E-02 -.238E-02 -.447E+00
   0.498E+01 0.287E+01 0.850E+03   -.446E+01 -.257E+01 -.849E+03   -.434E+00 -.250E+00 -.779E+00   -.288E-01 -.167E-01 -.191E+00
   0.143E-04 0.476E+01 0.856E+03   0.148E-03 -.485E+01 -.856E+03   0.446E-08 0.670E-01 -.229E+00   0.364E-02 -.482E-01 -.240E+00
   -.498E+01 0.287E+01 0.850E+03   0.446E+01 -.257E+01 -.849E+03   0.434E+00 -.250E+00 -.779E+00   0.277E-01 -.157E-01 -.192E+00
   0.413E+01 -.238E+01 0.856E+03   -.420E+01 0.242E+01 -.856E+03   0.580E-01 -.335E-01 -.229E+00   -.397E-01 0.275E-01 -.240E+00
   -.413E+01 -.238E+01 0.856E+03   0.420E+01 0.242E+01 -.856E+03   -.580E-01 -.335E-01 -.229E+00   0.471E-01 0.270E-01 -.241E+00
   0.310E-04 0.261E+01 0.852E+03   0.236E-03 -.276E+01 -.851E+03   0.109E-08 0.164E-01 -.515E+00   -.209E-02 0.104E+00 -.182E+00
   -.214E-04 -.575E+01 0.850E+03   0.163E-03 0.515E+01 -.849E+03   0.333E-07 0.501E+00 -.779E+00   0.382E-04 0.318E-01 -.192E+00
   0.226E+01 -.130E+01 0.852E+03   -.239E+01 0.138E+01 -.851E+03   0.142E-01 -.820E-02 -.515E+00   0.891E-01 -.533E-01 -.182E+00
   -.226E+01 -.130E+01 0.852E+03   0.239E+01 0.138E+01 -.851E+03   -.142E-01 -.820E-02 -.515E+00   -.891E-01 -.517E-01 -.182E+00
   -.409E-04 0.226E+01 -.823E+03   0.536E-04 -.255E+01 0.822E+03   0.707E-08 0.106E+00 0.617E+00   0.343E-02 0.140E+00 0.358E+00
   0.137E+02 0.794E+01 -.786E+03   -.125E+02 -.722E+01 0.787E+03   -.107E+01 -.617E+00 -.101E+01   -.131E+00 -.760E-01 0.261E+00
   -.137E+02 0.794E+01 -.786E+03   0.125E+02 -.722E+01 0.787E+03   0.107E+01 -.617E+00 -.101E+01   0.131E+00 -.749E-01 0.261E+00
   -.253E-01 0.146E-01 -.812E+03   -.208E+00 0.120E+00 0.811E+03   0.411E+00 -.237E+00 0.628E+00   -.123E+00 0.696E-01 0.342E+00
   -.110E-04 -.159E+02 -.786E+03   0.142E-03 0.144E+02 0.787E+03   0.822E-07 0.123E+01 -.101E+01   0.265E-03 0.151E+00 0.261E+00
   0.252E-01 0.146E-01 -.812E+03   0.208E+00 0.120E+00 0.811E+03   -.411E+00 -.237E+00 0.628E+00   0.123E+00 0.708E-01 0.342E+00
   -.196E+01 -.113E+01 -.823E+03   0.221E+01 0.127E+01 0.822E+03   -.920E-01 -.531E-01 0.617E+00   -.116E+00 -.671E-01 0.358E+00
   0.196E+01 -.113E+01 -.823E+03   -.221E+01 0.127E+01 0.822E+03   0.920E-01 -.531E-01 0.617E+00   0.123E+00 -.670E-01 0.358E+00
   0.994E-05 -.292E-01 -.812E+03   0.199E-03 -.240E+00 0.811E+03   0.316E-07 0.475E+00 0.628E+00   -.175E-02 -.141E+00 0.342E+00
   -.120E-04 -.127E-04 -.245E+04   0.289E-04 0.341E-04 0.245E+04   0.420E-17 -.322E-17 0.379E+00   0.229E-03 0.114E-03 0.462E+00
   0.252E+02 0.427E+02 -.242E+04   -.248E+02 -.424E+02 0.242E+04   -.410E+00 -.450E+00 0.456E+00   -.828E-01 -.159E+00 0.380E+00
   -.252E+02 0.427E+02 -.242E+04   0.248E+02 -.424E+02 0.242E+04   0.410E+00 -.450E+00 0.456E+00   0.826E-01 -.157E+00 0.381E+00
   0.496E+02 0.435E+00 -.242E+04   -.491E+02 -.278E+00 0.242E+04   -.595E+00 -.130E+00 0.456E+00   -.179E+00 0.750E-02 0.381E+00
   -.496E+02 0.435E+00 -.242E+04   0.491E+02 -.278E+00 0.242E+04   0.595E+00 -.130E+00 0.456E+00   0.178E+00 0.869E-02 0.381E+00
   0.244E+02 -.431E+02 -.242E+04   -.243E+02 0.427E+02 0.242E+04   -.185E+00 0.580E+00 0.456E+00   -.945E-01 0.150E+00 0.381E+00
   -.244E+02 -.431E+02 -.242E+04   0.243E+02 0.427E+02 0.242E+04   0.185E+00 0.580E+00 0.456E+00   0.964E-01 0.150E+00 0.381E+00
   0.318E-04 -.284E-04 -.246E+04   0.144E-03 -.493E-04 0.245E+04   0.547E-17 -.194E-17 0.589E+00   -.461E-02 -.237E-02 0.314E+00
   0.147E-05 -.441E-05 -.153E+04   0.824E-04 0.740E-05 0.154E+04   0.262E-18 -.370E-19 -.103E+01   0.196E-02 0.120E-02 0.316E+00
   0.197E-03 -.960E-04 -.155E+04   0.202E-04 0.133E-05 0.153E+04   0.109E-16 -.190E-17 0.196E+02   0.366E-02 0.224E-02 0.169E+00
   0.786E-05 -.133E-04 -.311E+03   0.109E-05 0.991E-07 0.320E+03   0.795E-19 -.406E-19 -.842E+01   0.201E-03 0.123E-03 0.321E-01
 -----------------------------------------------------------------------------------------------
   -.518E-03 -.854E-03 -.671E+01   0.388E-13 -.407E-13 -.625E-11   -.233E-15 -.448E-15 0.673E+01   0.180E-01 0.111E-01 0.306E+00
 
 
 POSITION                                       TOTAL-FORCE (eV/Angst)
 -----------------------------------------------------------------------------------
      0.00000      0.00000      5.28038        -0.000000     -0.000000     -0.133185
      2.93784      0.00000      5.28038        -0.011154      0.014361     -0.060376
      5.87568      0.00000      5.28038         0.011154      0.014361     -0.060376
      1.46892      2.54424      5.28038         0.006860     -0.016840     -0.060376
      4.40676      2.54424      5.28038        -0.000000      0.000000     -0.097313
      7.34459      2.54424      5.28038        -0.006860     -0.016840     -0.060376
      2.93784      5.08848      5.28038         0.018014      0.002479     -0.060376
      5.87568      5.08848      5.28038        -0.018014      0.002479     -0.060376
      8.81351      5.08848      5.28038        -0.000000     -0.000000     -0.086734
      1.46892      0.84808      7.67911         0.060361      0.034850      0.149712
      4.40676      0.84808      7.67911        -0.000000     -0.066060      0.045492
      7.34459      0.84808      7.67911        -0.060361      0.034850      0.149712
      2.93784      3.39232      7.67911        -0.057209      0.033030      0.045492
      5.87568      3.39232      7.67911         0.057209      0.033030      0.045492
      8.81351      3.39232      7.67911        -0.000000     -0.037260      0.109964
      4.40676      5.93656      7.67911        -0.000000     -0.069699      0.149712
      7.34459      5.93656      7.67911        -0.032268      0.018630      0.109964
     10.28243      5.93656      7.67911         0.032268      0.018630      0.109964
      8.81351      1.69681     10.07567        -0.000000     -0.042607     -0.040019
      2.94232      1.69875     10.04120         0.045560      0.026304     -0.034184
      5.87120      1.69875     10.04120        -0.045560      0.026304     -0.034184
     10.26751      4.24902     10.06295         0.055297     -0.031926     -0.020549
      4.40676      4.23523     10.04120        -0.000000     -0.052608     -0.034184
      7.35952      4.24902     10.06295        -0.055297     -0.031926     -0.020549
     11.75079      6.78432     10.07567         0.036898      0.021303     -0.040019
      5.87624      6.78432     10.07567        -0.036898      0.021303     -0.040019
      8.81351      6.76742     10.06295         0.000000      0.063852     -0.020549
      0.00000      0.00000     12.49459        -0.000000      0.000000     -0.006098
      2.96623      0.05046     12.47837        -0.138562     -0.309983     -0.135575
      5.84728      0.05046     12.47837         0.138562     -0.309983     -0.135575
      1.52682      2.54360     12.47837        -0.337734      0.034993     -0.135575
      7.28669      2.54360     12.47837         0.337734      0.034993     -0.135575
      2.96734      5.03866     12.47837        -0.199172      0.274989     -0.135575
      5.84617      5.03866     12.47837         0.199172      0.274989     -0.135575
      8.81351      5.08848     12.49555        -0.000000      0.000000      0.056328
      4.40676      2.54424     12.24198        -0.000000      0.000000      0.797389
      4.40676      2.54424     14.13625        -0.000000     -0.000000      0.067526
      4.40676      2.54424     15.10203        -0.000000      0.000000     -0.053457
 -----------------------------------------------------------------------------------
    total drift:                                0.017526      0.010284      0.330630


--------------------------------------------------------------------------------------------------------



  FREE ENERGIE OF THE ION-ELECTRON SYSTEM (eV)
  ---------------------------------------------------
  free  energy   TOTEN  =      -124.00025431 eV

  energy  without entropy=     -124.00025431  energy(sigma->0) =     -124.00025431
 


--------------------------------------------------------------------------------------------------------


    POTLOK:  cpu time    0.0450: real time    0.0450


--------------------------------------------------------------------------------------------------------


 stress matrix after NEB project (eV)
    -20.37834     -0.00000      0.00000
     -0.00000    -20.37833     -0.00000
     -0.00000      0.00000      2.70953
  FORCES: max atom, RMS     0.067526    0.013971
  FORCE total and by dimension    0.086124    0.067526
  Stress total and by dimension   28.946409   20.378335
     LOOP+:  cpu time   69.1843: real time   69.1952
 -----------------------------------------------------------------------------
|                                                                             |
|           W    W    AA    RRRRR   N    N  II  N    N   GGGG   !!!           |
|           W    W   A  A   R    R  NN   N  II  NN   N  G    G  !!!           |
|           W    W  A    A  R    R  N N  N  II  N N  N  G       !!!           |
|           W WW W  AAAAAA  RRRRR   N  N N  II  N  N N  G  GGG   !            |
|           WW  WW  A    A  R   R   N   NN  II  N   NN  G    G                |
|           W    W  A    A  R    R  N    N  II  N    N   GGGG   !!!           |
|                                                                             |
|     Tetrahedron method does not include variations of the Fermi             |
|     occupations, so forces and stress will be inaccurate. We suggest        |
|     using a different smearing scheme ISMEAR = 1 or 2 for metals in         |
|     relaxations.                                                            |
|                                                                             |
 -----------------------------------------------------------------------------

    4ORBIT:  cpu time    0.0000: real time    0.0000



 total charge

# of ion       s       p       d       tot
------------------------------------------
    1        0.547   0.238   8.769   9.553
    2        0.545   0.241   8.763   9.549
    3        0.545   0.241   8.763   9.549
    4        0.545   0.241   8.763   9.549
    5        0.543   0.242   8.760   9.545
    6        0.545   0.241   8.763   9.549
    7        0.545   0.241   8.763   9.549
    8        0.545   0.241   8.763   9.549
    9        0.541   0.240   8.765   9.546
   10        0.525   0.309   8.767   9.601
   11        0.520   0.309   8.777   9.606
   12        0.525   0.309   8.767   9.601
   13        0.520   0.309   8.777   9.606
   14        0.520   0.309   8.777   9.606
   15        0.515   0.308   8.778   9.601
   16        0.525   0.309   8.767   9.601
   17        0.515   0.308   8.778   9.601
   18        0.515   0.308   8.778   9.601
   19        0.515   0.301   8.777   9.592
   20        0.551   0.334   8.744   9.629
   21        0.551   0.334   8.744   9.629
   22        0.508   0.308   8.777   9.592
   23        0.551   0.334   8.744   9.629
   24        0.508   0.308   8.777   9.592
   25        0.515   0.301   8.777   9.592
   26        0.515   0.301   8.777   9.592
   27        0.508   0.308   8.777   9.592
   28        0.543   0.227   8.764   9.534
   29        0.546   0.240   8.760   9.546
   30        0.546   0.240   8.760   9.546
   31        0.546   0.240   8.760   9.546
   32        0.546   0.240   8.760   9.546
   33        0.546   0.240   8.760   9.546
   34        0.546   0.240   8.760   9.546
   35        0.534   0.229   8.766   9.529
   36        0.465   0.577   6.479   7.521
   37        1.545   3.528   0.000   5.073
   38        0.601   0.127   0.000   0.728
--------------------------------------------------
tot         21.263  13.897 313.305 348.465
 
 BZINTS: Fermi energy:    0.899818;  400.000000 electrons
         Band energy:-0.115479E+04;  BLOECHL correction:   -0.063532

 total amount of memory used by VASP MPI-rank0   123293. kBytes
=======================================================================

   base      :      30000. kBytes
   nonlr-proj:      14113. kBytes
   fftplans  :       4330. kBytes
   grid      :      18659. kBytes
   one-center:        590. kBytes
   wavefun   :      55601. kBytes
 
  
  
 General timing and accounting informations for this job:
 ========================================================
  
                  Total CPU time used (sec):       76.572
                            User time (sec):       73.641
                          System time (sec):        2.932
                         Elapsed time (sec):       76.917
  
                   Maximum memory used (kb):      383028.
                   Average memory used (kb):          N/A
  
                          Minor page faults:        79106
                          Major page faults:            0
                 Voluntary context switches:         4864
