PROCAR new format
# of k-points:   10         # of bands:  252         # of ions:   38

 k-point     1 :    0.00000000 0.00000000 0.00000000     weight = 0.01562500

band     1 # energy  -18.55688432 # occ.  2.00000000
 
ion      s      p      d    tot
    1  0.000  0.000  0.000  0.000
    2  0.000  0.000  0.000  0.000
    3  0.000  0.000  0.000  0.000
    4  0.000  0.000  0.000  0.000
    5  0.000  0.000  0.000  0.000
    6  0.000  0.000  0.000  0.000
    7  0.000  0.000  0.000  0.000
    8  0.000  0.000  0.000  0.000
    9  0.000  0.000  0.000  0.000
   10  0.000  0.000  0.000  0.000
   11  0.000  0.000  0.000  0.000
   12  0.000  0.000  0.000  0.000
   13  0.000  0.000  0.000  0.000
   14  0.000  0.000  0.000  0.000
   15  0.000  0.000  0.000  0.000
   16  0.000  0.000  0.000  0.000
   17  0.000  0.000  0.000  0.000
   18  0.000  0.000  0.000  0.000
   19  0.000  0.000  0.000  0.000
   20  0.000  0.000  0.000  0.000
   21  0.000  0.000  0.000  0.000
   22  0.000  0.000  0.000  0.000
   23  0.000  0.000  0.000  0.000
   24  0.000  0.000  0.000  0.000
   25  0.000  0.000  0.000  0.000
   26  0.000  0.000  0.000  0.000
   27  0.000  0.000  0.000  0.000
   28  0.000  0.000  0.000  0.000
   29  0.000  0.000  0.000  0.000
   30  0.000  0.000  0.000  0.000
   31  0.000  0.000  0.000  0.000
   32  0.000  0.000  0.000  0.000
   33  0.000  0.000  0.000  0.000
   34  0.000  0.000  0.000  0.000
   35  0.000  0.000  0.000  0.000
   36  0.012  0.016  0.025  0.052
   37  0.741  0.015  0.000  0.756
   38  0.117  0.024  0.000  0.141
tot    0.869  0.055  0.025  0.950
 
band     2 # energy   -7.93263476 # occ.  2.00000000
 
ion      s      p      d    tot
    1  0.007  0.001  0.000  0.007
    2  0.006  0.001  0.000  0.007
    3  0.006  0.001  0.000  0.007
    4  0.006  0.001  0.000  0.007
    5  0.006  0.001  0.000  0.007
    6  0.006  0.001  0.000  0.007
    7  0.006  0.001  0.000  0.007
    8  0.006  0.001  0.000  0.007
    9  0.006  0.001  0.000  0.007
   10  0.026  0.000  0.000  0.026
   11  0.026  0.000  0.000  0.027
   12  0.026  0.000  0.000  0.026
   13  0.026  0.000  0.000  0.027
   14  0.026  0.000  0.000  0.027
   15  0.026  0.000  0.000  0.026
   16  0.026  0.000  0.000  0.026
   17  0.026  0.000  0.000  0.026
   18  0.026  0.000  0.000  0.026
   19  0.023  0.000  0.000  0.023
   20  0.025  0.000  0.000  0.026
   21  0.025  0.000  0.000  0.026
   22  0.024  0.000  0.000  0.024
   23  0.025  0.000  0.000  0.026
   24  0.024  0.000  0.000  0.024
   25  0.023  0.000  0.000  0.023
   26  0.023  0.000  0.000  0.023
   27  0.024  0.000  0.000  0.024
   28  0.005  0.000  0.000  0.005
   29  0.005  0.000  0.000  0.005
   30  0.005  0.000  0.000  0.005
   31  0.005  0.000  0.000  0.005
   32  0.005  0.000  0.000  0.005
   33  0.005  0.000  0.000  0.005
   34  0.005  0.000  0.000  0.005
   35  0.005  0.000  0.000  0.005
   36  0.011  0.000  0.004  0.014
   37  0.000  0.012  0.000  0.012
   38  0.004  0.000  0.000  0.005
tot    0.563  0.023  0.007  0.593
 
band     3 # energy   -7.29414587 # occ.  2.00000000
 
ion      s      p      d    tot
    1  0.001  0.000  0.000  0.001
    2  0.001  0.000  0.000  0.001
    3  0.001  0.000  0.000  0.001
    4  0.001  0.000  0.000  0.001
    5  0.001  0.000  0.000  0.001
    6  0.001  0.000  0.000  0.001
    7  0.001  0.000  0.000  0.001
    8  0.001  0.000  0.000  0.001
    9  0.001  0.000  0.000  0.002
   10  0.002  0.000  0.000  0.002
   11  0.002  0.000  0.000  0.002
   12  0.002  0.000  0.000  0.002
   13  0.002  0.000  0.000  0.002
   14  0.002  0.000  0.000  0.002
   15  0.003  0.000  0.000  0.003
   16  0.002  0.000  0.000  0.002
   17  0.003  0.000  0.000  0.003
   18  0.003  0.000  0.000  0.003
   19  0.000  0.000  0.000  0.000
   20  0.001  0.001  0.003  0.004
   21  0.001  0.001  0.003  0.004
   22  0.000  0.000  0.000  0.000
   23  0.001  0.001  0.003  0.004
   24  0.000  0.000  0.000  0.000
   25  0.000  0.000  0.000  0.000
   26  0.000  0.000  0.000  0.000
   27  0.000  0.000  0.000  0.000
   28  0.000  0.000  0.000  0.000
   29  0.000  0.000  0.000  0.001
   30  0.000  0.000  0.000  0.001
   31  0.000  0.000  0.000  0.001
   32  0.000  0.000  0.000  0.001
   33  0.000  0.000  0.000  0.001
   34  0.000  0.000  0.000  0.001
   35  0.000  0.000  0.000  0.000
   36  0.062  0.036  0.159  0.258
   37  0.020  0.472  0.000  0.492
   38  0.158  0.017  0.000  0.174
tot    0.280  0.529  0.172  0.980
 
band     4 # energy   -6.69806505 # occ.  2.00000000
 
ion      s      p      d    tot
    1  0.017  0.000  0.001  0.019
    2  0.016  0.000  0.001  0.018
    3  0.016  0.000  0.001  0.018
    4  0.016  0.000  0.001  0.018
    5  0.016  0.000  0.001  0.017
    6  0.016  0.000  0.001  0.018
    7  0.016  0.000  0.001  0.018
    8  0.016  0.000  0.001  0.018
    9  0.016  0.000  0.001  0.017
   10  0.009  0.001  0.002  0.013
   11  0.008  0.002  0.002  0.012
   12  0.009  0.001  0.002  0.013
   13  0.008  0.002  0.002  0.012
   14  0.008  0.002  0.002  0.012
   15  0.007  0.002  0.002  0.012
   16  0.009  0.001  0.002  0.013
   17  0.007  0.002  0.002  0.012
   18  0.007  0.002  0.002  0.012
   19  0.016  0.001  0.004  0.021
   20  0.012  0.001  0.004  0.017
   21  0.012  0.001  0.004  0.017
   22  0.018  0.001  0.004  0.023
   23  0.012  0.001  0.004  0.017
   24  0.018  0.001  0.004  0.023
   25  0.016  0.001  0.004  0.021
   26  0.016  0.001  0.004  0.021
   27  0.018  0.001  0.004  0.023
   28  0.015  0.001  0.000  0.016
   29  0.013  0.001  0.001  0.014
   30  0.013  0.001  0.001  0.014
   31  0.013  0.001  0.001  0.014
   32  0.013  0.001  0.001  0.014
   33  0.013  0.001  0.001  0.014
   34  0.013  0.001  0.001  0.014
   35  0.015  0.001  0.000  0.016
   36  0.002  0.005  0.014  0.020
   37  0.002  0.022  0.000  0.024
   38  0.007  0.001  0.000  0.007
tot    0.476  0.058  0.084  0.619
 
band     5 # energy   -5.80616287 # occ.  2.00000000
 
ion      s      p      d    tot
    1  0.014  0.000  0.023  0.037
    2  0.019  0.000  0.019  0.038
    3  0.019  0.000  0.019  0.038
    4  0.019  0.000  0.019  0.038
    5  0.013  0.000  0.018  0.032
    6  0.019  0.000  0.019  0.038
    7  0.019  0.000  0.019  0.038
    8  0.019  0.000  0.019  0.038
    9  0.033  0.000  0.015  0.048
   10  0.011  0.001  0.022  0.034
   11  0.015  0.001  0.019  0.035
   12  0.011  0.001  0.022  0.034
   13  0.015  0.001  0.019  0.035
   14  0.015  0.001  0.019  0.035
   15  0.001  0.001  0.026  0.027
   16  0.011  0.001  0.022  0.034
   17  0.001  0.001  0.026  0.027
   18  0.001  0.001  0.026  0.027
   19  0.000  0.001  0.003  0.004
   20  0.003  0.001  0.004  0.008
   21  0.003  0.001  0.004  0.008
   22  0.002  0.001  0.001  0.004
   23  0.003  0.001  0.004  0.008
   24  0.002  0.001  0.001  0.004
   25  0.000  0.001  0.003  0.004
   26  0.000  0.001  0.003  0.004
   27  0.002  0.001  0.001  0.004
   28  0.004  0.000  0.000  0.004
   29  0.002  0.000  0.001  0.004
   30  0.002  0.000  0.001  0.004
   31  0.002  0.000  0.001  0.004
   32  0.002  0.000  0.001  0.004
   33  0.002  0.000  0.001  0.004
   34  0.002  0.000  0.001  0.004
   35  0.005  0.000  0.001  0.005
   36  0.000  0.000  0.001  0.001
   37  0.000  0.000  0.000  0.000
   38  0.000  0.000  0.000  0.000
tot    0.294  0.016  0.403  0.713
 
band     6 # energy   -5.76819795 # occ.  2.00000000
 
ion      s      p      d    tot
    1  0.000  0.000  0.008  0.008
    2  0.005  0.001  0.004  0.010
    3  0.006  0.001  0.003  0.011
    4  0.005  0.001  0.004  0.010
    5  0.000  0.001  0.008  0.010
    6  0.000  0.000  0.003  0.003
    7  0.006  0.001  0.003  0.011
    8  0.000  0.000  0.003  0.003
    9  0.000  0.000  0.001  0.002
   10  0.000  0.000  0.037  0.037
   11  0.044  0.002  0.015  0.060
   12  0.022  0.002  0.013  0.036
   13  0.044  0.001  0.015  0.061
   14  0.000  0.003  0.030  0.033
   15  0.004  0.001  0.012  0.017
   16  0.022  0.002  0.013  0.036
   17  0.004  0.001  0.012  0.017
   18  0.000  0.004  0.003  0.007
   19  0.004  0.001  0.011  0.015
   20  0.000  0.003  0.028  0.031
   21  0.042  0.002  0.014  0.057
   22  0.018  0.001  0.011  0.030
   23  0.041  0.002  0.014  0.057
   24  0.000  0.000  0.031  0.031
   25  0.000  0.004  0.003  0.007
   26  0.004  0.001  0.011  0.015
   27  0.018  0.001  0.011  0.030
   28  0.000  0.000  0.001  0.001
   29  0.000  0.000  0.002  0.002
   30  0.005  0.001  0.003  0.008
   31  0.000  0.000  0.002  0.002
   32  0.004  0.001  0.003  0.008
   33  0.005  0.001  0.003  0.008
   34  0.004  0.001  0.003  0.008
   35  0.000  0.000  0.005  0.005
   36  0.000  0.002  0.006  0.008
   37  0.000  0.000  0.000  0.000
   38  0.000  0.000  0.000  0.000
tot    0.306  0.043  0.347  0.696
 
band     7 # energy   -5.76816758 # occ.  2.00000000
 
ion      s      p      d    tot
    1  0.000  0.000  0.008  0.008
    2  0.003  0.001  0.003  0.006
    3  0.001  0.001  0.004  0.006
    4  0.002  0.001  0.003  0.006
    5  0.000  0.001  0.008  0.009
    6  0.008  0.001  0.004  0.013
    7  0.001  0.001  0.004  0.005
    8  0.008  0.001  0.004  0.013
    9  0.000  0.000  0.001  0.002
   10  0.029  0.002  0.005  0.036
   11  0.015  0.002  0.025  0.042
   12  0.007  0.001  0.029  0.037
   13  0.014  0.002  0.025  0.042
   14  0.059  0.001  0.010  0.069
   15  0.001  0.003  0.006  0.010
   16  0.008  0.001  0.029  0.037
   17  0.001  0.003  0.006  0.010
   18  0.005  0.000  0.015  0.020
   19  0.001  0.003  0.006  0.010
   20  0.055  0.001  0.010  0.066
   21  0.014  0.002  0.024  0.039
   22  0.006  0.001  0.024  0.031
   23  0.014  0.002  0.023  0.040
   24  0.023  0.002  0.004  0.029
   25  0.005  0.000  0.013  0.018
   26  0.001  0.003  0.006  0.010
   27  0.006  0.001  0.024  0.031
   28  0.000  0.000  0.001  0.001
   29  0.006  0.001  0.003  0.010
   30  0.001  0.000  0.003  0.004
   31  0.006  0.001  0.003  0.010
   32  0.002  0.000  0.002  0.004
   33  0.001  0.000  0.003  0.004
   34  0.002  0.000  0.002  0.004
   35  0.000  0.000  0.005  0.005
   36  0.000  0.002  0.006  0.008
   37  0.000  0.000  0.000  0.000
   38  0.000  0.000  0.000  0.000
tot    0.306  0.043  0.347  0.696
 
band     8 # energy   -5.76092629 # occ.  2.00000000
 
ion      s      p      d    tot
    1  0.021  0.002  0.000  0.023
    2  0.001  0.001  0.007  0.008
    3  0.001  0.001  0.007  0.008
    4  0.001  0.001  0.007  0.008
    5  0.000  0.000  0.004  0.004
    6  0.001  0.001  0.007  0.008
    7  0.001  0.001  0.007  0.008
    8  0.001  0.001  0.007  0.008
    9  0.003  0.001  0.003  0.007
   10  0.015  0.001  0.026  0.042
   11  0.001  0.001  0.024  0.026
   12  0.015  0.001  0.026  0.041
   13  0.001  0.001  0.024  0.026
   14  0.001  0.001  0.024  0.026
   15  0.028  0.003  0.003  0.034
   16  0.015  0.001  0.026  0.041
   17  0.028  0.003  0.003  0.034
   18  0.028  0.003  0.003  0.034
   19  0.011  0.002  0.011  0.024
   20  0.010  0.000  0.023  0.033
   21  0.010  0.000  0.023  0.033
   22  0.017  0.002  0.012  0.032
   23  0.010  0.000  0.023  0.033
   24  0.017  0.002  0.012  0.032
   25  0.011  0.002  0.011  0.023
   26  0.011  0.002  0.011  0.024
   27  0.017  0.002  0.012  0.032
   28  0.001  0.000  0.000  0.001
   29  0.000  0.000  0.004  0.005
   30  0.000  0.000  0.004  0.005
   31  0.000  0.000  0.004  0.005
   32  0.000  0.000  0.004  0.005
   33  0.000  0.000  0.004  0.005
   34  0.000  0.000  0.004  0.005
   35  0.011  0.001  0.000  0.012
   36  0.000  0.004  0.000  0.004
   37  0.000  0.004  0.000  0.004
   38  0.001  0.000  0.000  0.001
tot    0.294  0.045  0.366  0.704
 
band     9 # energy   -5.74715546 # occ.  2.00000000
 
ion      s      p      d    tot
    1  0.001  0.000  0.001  0.002
    2  0.001  0.001  0.007  0.008
    3  0.001  0.001  0.007  0.008
    4  0.001  0.001  0.007  0.008
    5  0.023  0.002  0.000  0.025
    6  0.001  0.001  0.007  0.008
    7  0.001  0.001  0.007  0.008
    8  0.001  0.001  0.007  0.008
    9  0.002  0.001  0.005  0.008
   10  0.013  0.003  0.010  0.025
   11  0.023  0.002  0.014  0.039
   12  0.013  0.003  0.010  0.025
   13  0.023  0.002  0.014  0.039
   14  0.023  0.002  0.014  0.039
   15  0.012  0.000  0.029  0.040
   16  0.013  0.003  0.010  0.025
   17  0.012  0.000  0.029  0.040
   18  0.012  0.000  0.029  0.040
   19  0.015  0.001  0.017  0.032
   20  0.020  0.003  0.006  0.028
   21  0.020  0.003  0.006  0.028
   22  0.001  0.001  0.024  0.025
   23  0.020  0.003  0.006  0.028
   24  0.001  0.001  0.024  0.025
   25  0.015  0.001  0.017  0.033
   26  0.015  0.001  0.017  0.032
   27  0.001  0.001  0.024  0.025
   28  0.011  0.001  0.000  0.013
   29  0.000  0.000  0.004  0.004
   30  0.000  0.000  0.004  0.004
   31  0.000  0.000  0.004  0.004
   32  0.000  0.000  0.004  0.004
   33  0.000  0.000  0.004  0.004
   34  0.000  0.000  0.004  0.004
   35  0.000  0.000  0.002  0.003
   36  0.001  0.002  0.000  0.003
   37  0.000  0.001  0.000  0.001
   38  0.000  0.000  0.000  0.000
tot    0.293  0.040  0.371  0.703
 
band    10 # energy   -5.74298496 # occ.  2.00000000
 
ion      s      p      d    tot
    1  0.000  0.001  0.005  0.006
    2  0.006  0.001  0.004  0.011
    3  0.007  0.001  0.004  0.012
    4  0.006  0.001  0.004  0.011
    5  0.000  0.000  0.003  0.003
    6  0.000  0.000  0.003  0.004
    7  0.007  0.001  0.004  0.012
    8  0.000  0.000  0.003  0.004
    9  0.000  0.001  0.011  0.012
   10  0.035  0.000  0.016  0.051
   11  0.001  0.002  0.016  0.019
   12  0.008  0.003  0.010  0.021
   13  0.001  0.002  0.016  0.019
   14  0.003  0.001  0.010  0.014
   15  0.016  0.001  0.035  0.052
   16  0.009  0.003  0.010  0.022
   17  0.014  0.001  0.036  0.051
   18  0.059  0.002  0.004  0.065
   19  0.012  0.001  0.028  0.040
   20  0.003  0.001  0.010  0.014
   21  0.001  0.001  0.013  0.015
   22  0.007  0.003  0.012  0.022
   23  0.001  0.001  0.013  0.015
   24  0.029  0.000  0.013  0.043
   25  0.045  0.002  0.003  0.051
   26  0.011  0.001  0.028  0.040
   27  0.008  0.003  0.012  0.023
   28  0.000  0.001  0.006  0.007
   29  0.000  0.000  0.002  0.002
   30  0.003  0.001  0.002  0.006
   31  0.000  0.000  0.002  0.002
   32  0.004  0.001  0.003  0.007
   33  0.003  0.001  0.002  0.006
   34  0.004  0.001  0.003  0.007
   35  0.000  0.001  0.003  0.004
   36  0.000  0.000  0.001  0.001
   37  0.000  0.000  0.000  0.000
   38  0.000  0.000  0.000  0.000
tot    0.301  0.042  0.351  0.693
 
band    11 # energy   -5.74295333 # occ.  2.00000000
 
ion      s      p      d    tot
    1  0.000  0.001  0.005  0.006
    2  0.003  0.001  0.003  0.007
    3  0.002  0.001  0.004  0.006
    4  0.003  0.001  0.003  0.007
    5  0.000  0.000  0.003  0.003
    6  0.008  0.001  0.004  0.014
    7  0.001  0.001  0.004  0.006
    8  0.008  0.001  0.004  0.014
    9  0.000  0.001  0.011  0.012
   10  0.000  0.005  0.008  0.012
   11  0.002  0.001  0.012  0.016
   12  0.026  0.001  0.014  0.042
   13  0.002  0.001  0.012  0.016
   14  0.000  0.002  0.018  0.020
   15  0.044  0.001  0.015  0.061
   16  0.026  0.001  0.014  0.041
   17  0.045  0.001  0.014  0.061
   18  0.000  0.001  0.046  0.047
   19  0.034  0.002  0.012  0.047
   20  0.000  0.002  0.014  0.015
   21  0.002  0.001  0.011  0.014
   22  0.022  0.001  0.013  0.036
   23  0.002  0.001  0.011  0.014
   24  0.000  0.004  0.012  0.016
   25  0.000  0.001  0.036  0.036
   26  0.034  0.002  0.011  0.047
   27  0.022  0.001  0.013  0.036
   28  0.000  0.001  0.006  0.007
   29  0.005  0.001  0.002  0.008
   30  0.001  0.000  0.003  0.004
   31  0.005  0.001  0.002  0.008
   32  0.001  0.000  0.002  0.003
   33  0.001  0.000  0.003  0.004
   34  0.001  0.000  0.002  0.003
   35  0.000  0.001  0.003  0.004
   36  0.000  0.000  0.001  0.001
   37  0.000  0.000  0.000  0.000
   38  0.000  0.000  0.000  0.000
tot    0.301  0.042  0.351  0.693
 
band    12 # energy   -5.63936581 # occ.  2.00000000
 
ion      s      p      d    tot
    1  0.001  0.000  0.000  0.001
    2  0.000  0.000  0.001  0.001
    3  0.000  0.000  0.001  0.001
    4  0.000  0.000  0.001  0.001
    5  0.002  0.000  0.000  0.002
    6  0.000  0.000  0.001  0.001
    7  0.000  0.000  0.001  0.001
    8  0.000  0.000  0.001  0.001
    9  0.001  0.000  0.001  0.001
   10  0.001  0.000  0.005  0.006
   11  0.002  0.001  0.002  0.005
   12  0.001  0.000  0.005  0.006
   13  0.002  0.001  0.002  0.005
   14  0.002  0.001  0.002  0.005
   15  0.003  0.001  0.005  0.008
   16  0.001  0.000  0.005  0.006
   17  0.003  0.001  0.005  0.008
   18  0.003  0.001  0.005  0.008
   19  0.005  0.001  0.019  0.025
   20  0.002  0.000  0.028  0.030
   21  0.002  0.000  0.028  0.030
   22  0.010  0.002  0.023  0.034
   23  0.002  0.000  0.028  0.030
   24  0.010  0.002  0.023  0.034
   25  0.005  0.001  0.019  0.025
   26  0.005  0.001  0.019  0.025
   27  0.010  0.002  0.023  0.034
   28  0.026  0.000  0.022  0.048
   29  0.024  0.000  0.020  0.044
   30  0.024  0.000  0.020  0.044
   31  0.024  0.000  0.020  0.044
   32  0.024  0.000  0.020  0.044
   33  0.024  0.000  0.020  0.044
   34  0.024  0.000  0.020  0.044
   35  0.025  0.000  0.021  0.046
   36  0.011  0.000  0.016  0.028
   37  0.000  0.000  0.000  0.000
   38  0.000  0.000  0.000  0.000
tot    0.282  0.014  0.429  0.724
 
band    13 # energy   -5.29083182 # occ.  2.00000000
 
ion      s      p      d    tot
    1  0.016  0.002  0.002  0.020
    2  0.000  0.001  0.009  0.009
    3  0.000  0.001  0.009  0.009
    4  0.000  0.001  0.009  0.009
    5  0.000  0.000  0.002  0.002
    6  0.000  0.001  0.009  0.009
    7  0.000  0.001  0.009  0.009
    8  0.000  0.001  0.009  0.009
    9  0.016  0.001  0.000  0.018
   10  0.009  0.002  0.011  0.023
   11  0.003  0.000  0.040  0.044
   12  0.009  0.002  0.011  0.023
   13  0.003  0.000  0.040  0.044
   14  0.003  0.000  0.040  0.044
   15  0.002  0.001  0.029  0.032
   16  0.009  0.002  0.011  0.023
   17  0.002  0.001  0.029  0.032
   18  0.002  0.001  0.029  0.032
   19  0.006  0.001  0.011  0.018
   20  0.001  0.000  0.045  0.046
   21  0.001  0.000  0.045  0.046
   22  0.012  0.001  0.022  0.035
   23  0.001  0.000  0.045  0.046
   24  0.012  0.001  0.022  0.035
   25  0.006  0.001  0.011  0.018
   26  0.006  0.001  0.011  0.018
   27  0.012  0.001  0.022  0.035
   28  0.012  0.001  0.001  0.014
   29  0.000  0.001  0.006  0.006
   30  0.000  0.001  0.006  0.006
   31  0.000  0.001  0.006  0.006
   32  0.000  0.001  0.006  0.006
   33  0.000  0.001  0.006  0.006
   34  0.000  0.001  0.006  0.006
   35  0.008  0.001  0.003  0.012
   36  0.001  0.000  0.001  0.002
   37  0.000  0.000  0.000  0.000
   38  0.000  0.000  0.000  0.000
tot    0.154  0.029  0.568  0.751
 
band    14 # energy   -5.27534979 # occ.  2.00000000
 
ion      s      p      d    tot
    1  0.000  0.001  0.004  0.004
    2  0.009  0.001  0.004  0.015
    3  0.001  0.000  0.005  0.006
    4  0.009  0.001  0.004  0.014
    5  0.000  0.001  0.011  0.012
    6  0.004  0.001  0.005  0.011
    7  0.001  0.000  0.005  0.006
    8  0.005  0.001  0.005  0.012
    9  0.000  0.000  0.010  0.011
   10  0.007  0.002  0.010  0.019
   11  0.006  0.000  0.042  0.048
   12  0.001  0.001  0.039  0.041
   13  0.004  0.000  0.046  0.050
   14  0.019  0.001  0.010  0.031
   15  0.001  0.001  0.015  0.017
   16  0.002  0.001  0.036  0.039
   17  0.001  0.001  0.014  0.016
   18  0.003  0.000  0.024  0.027
   19  0.002  0.001  0.014  0.017
   20  0.025  0.001  0.007  0.033
   21  0.005  0.000  0.053  0.058
   22  0.001  0.001  0.035  0.037
   23  0.007  0.000  0.048  0.055
   24  0.005  0.001  0.012  0.018
   25  0.007  0.000  0.022  0.029
   26  0.002  0.001  0.013  0.015
   27  0.002  0.001  0.032  0.035
   28  0.000  0.000  0.007  0.008
   29  0.007  0.001  0.004  0.012
   30  0.000  0.000  0.004  0.004
   31  0.006  0.001  0.004  0.012
   32  0.006  0.001  0.004  0.010
   33  0.000  0.000  0.004  0.004
   34  0.007  0.001  0.004  0.011
   35  0.000  0.000  0.003  0.004
   36  0.000  0.003  0.006  0.009
   37  0.000  0.000  0.000  0.000
   38  0.000  0.000  0.000  0.000
tot    0.156  0.031  0.564  0.751
 
band    15 # energy   -5.27534957 # occ.  2.00000000
 
ion      s      p      d    tot
    1  0.000  0.001  0.004  0.004
    2  0.000  0.001  0.005  0.006
    3  0.009  0.001  0.005  0.015
    4  0.001  0.001  0.005  0.007
    5  0.000  0.001  0.011  0.012
    6  0.006  0.001  0.004  0.010
    7  0.009  0.001  0.005  0.015
    8  0.005  0.001  0.004  0.009
    9  0.000  0.000  0.010  0.011
   10  0.000  0.001  0.046  0.047
   11  0.014  0.001  0.023  0.038
   12  0.006  0.002  0.018  0.025
   13  0.015  0.001  0.019  0.036
   14  0.000  0.000  0.055  0.056
   15  0.002  0.000  0.020  0.023
   16  0.005  0.002  0.021  0.027
   17  0.002  0.000  0.022  0.024
   18  0.000  0.001  0.012  0.013
   19  0.005  0.000  0.018  0.024
   20  0.000  0.000  0.065  0.065
   21  0.020  0.001  0.019  0.039
   22  0.004  0.001  0.018  0.023
   23  0.017  0.001  0.024  0.042
   24  0.000  0.001  0.041  0.042
   25  0.000  0.001  0.010  0.011
   26  0.006  0.000  0.019  0.026
   27  0.004  0.001  0.020  0.025
   28  0.000  0.000  0.007  0.008
   29  0.002  0.000  0.004  0.006
   30  0.009  0.001  0.004  0.014
   31  0.002  0.001  0.004  0.007
   32  0.003  0.001  0.004  0.008
   33  0.009  0.001  0.004  0.014
   34  0.002  0.001  0.004  0.007
   35  0.000  0.000  0.003  0.004
   36  0.000  0.003  0.006  0.009
   37  0.000  0.000  0.000  0.000
   38  0.000  0.000  0.000  0.000
tot    0.156  0.031  0.564  0.751
 
band    16 # energy   -5.25222416 # occ.  2.00000000
 
ion      s      p      d    tot
    1  0.000  0.001  0.015  0.016
    2  0.010  0.001  0.005  0.016
    3  0.001  0.000  0.005  0.007
    4  0.010  0.001  0.005  0.016
    5  0.000  0.000  0.006  0.006
    6  0.004  0.001  0.005  0.010
    7  0.001  0.000  0.005  0.007
    8  0.004  0.001  0.005  0.011
    9  0.000  0.001  0.007  0.008
   10  0.000  0.001  0.033  0.034
   11  0.000  0.001  0.020  0.021
   12  0.008  0.000  0.023  0.031
   13  0.000  0.001  0.020  0.021
   14  0.000  0.001  0.017  0.018
   15  0.011  0.002  0.021  0.033
   16  0.008  0.000  0.023  0.031
   17  0.011  0.002  0.020  0.033
   18  0.000  0.000  0.063  0.063
   19  0.015  0.001  0.020  0.035
   20  0.000  0.002  0.019  0.021
   21  0.000  0.001  0.021  0.021
   22  0.017  0.001  0.021  0.038
   23  0.000  0.001  0.021  0.021
   24  0.000  0.001  0.031  0.031
   25  0.000  0.000  0.066  0.067
   26  0.015  0.001  0.020  0.035
   27  0.017  0.001  0.021  0.038
   28  0.000  0.001  0.005  0.006
   29  0.005  0.001  0.004  0.010
   30  0.000  0.000  0.004  0.005
   31  0.005  0.001  0.004  0.010
   32  0.005  0.001  0.003  0.008
   33  0.000  0.000  0.004  0.005
   34  0.005  0.001  0.003  0.008
   35  0.000  0.001  0.008  0.009
   36  0.000  0.000  0.002  0.002
   37  0.000  0.000  0.000  0.000
   38  0.000  0.000  0.000  0.000
tot    0.151  0.029  0.571  0.750
 
band    17 # energy   -5.25221360 # occ.  2.00000000
 
ion      s      p      d    tot
    1  0.000  0.001  0.015  0.016
    2  0.000  0.000  0.006  0.006
    3  0.009  0.001  0.005  0.015
    4  0.000  0.000  0.006  0.006
    5  0.000  0.000  0.006  0.006
    6  0.006  0.001  0.005  0.011
    7  0.009  0.001  0.005  0.015
    8  0.006  0.001  0.005  0.011
    9  0.000  0.001  0.007  0.008
   10  0.010  0.000  0.019  0.030
   11  0.000  0.001  0.018  0.019
   12  0.003  0.001  0.030  0.033
   13  0.000  0.001  0.018  0.019
   14  0.000  0.001  0.020  0.022
   15  0.004  0.001  0.049  0.053
   16  0.003  0.001  0.030  0.033
   17  0.004  0.001  0.049  0.053
   18  0.014  0.002  0.006  0.023
   19  0.005  0.001  0.051  0.056
   20  0.000  0.000  0.021  0.021
   21  0.000  0.001  0.019  0.021
   22  0.006  0.001  0.028  0.034
   23  0.000  0.001  0.019  0.021
   24  0.022  0.001  0.018  0.041
   25  0.020  0.001  0.004  0.025
   26  0.005  0.001  0.051  0.056
   27  0.006  0.001  0.028  0.034
   28  0.000  0.001  0.005  0.006
   29  0.001  0.000  0.003  0.005
   30  0.007  0.001  0.003  0.011
   31  0.001  0.000  0.003  0.005
   32  0.002  0.001  0.005  0.007
   33  0.007  0.001  0.003  0.011
   34  0.002  0.001  0.005  0.007
   35  0.000  0.001  0.008  0.009
   36  0.000  0.000  0.002  0.002
   37  0.000  0.000  0.000  0.000
   38  0.000  0.000  0.000  0.000
tot    0.151  0.029  0.571  0.750
 
band    18 # energy   -5.22623061 # occ.  2.00000000
 
ion      s      p      d    tot
    1  0.009  0.000  0.001  0.010
    2  0.000  0.001  0.009  0.010
    3  0.000  0.001  0.009  0.010
    4  0.000  0.001  0.009  0.010
    5  0.018  0.002  0.001  0.021
    6  0.000  0.001  0.009  0.010
    7  0.000  0.001  0.009  0.010
    8  0.000  0.001  0.009  0.010
    9  0.002  0.001  0.002  0.005
   10  0.000  0.000  0.044  0.044
   11  0.005  0.002  0.016  0.022
   12  0.000  0.000  0.044  0.044
   13  0.005  0.002  0.016  0.022
   14  0.005  0.002  0.016  0.022
   15  0.005  0.001  0.023  0.029
   16  0.000  0.000  0.044  0.044
   17  0.005  0.001  0.023  0.029
   18  0.005  0.001  0.023  0.029
   19  0.008  0.000  0.048  0.056
   20  0.012  0.001  0.006  0.019
   21  0.012  0.001  0.006  0.019
   22  0.001  0.000  0.033  0.034
   23  0.012  0.001  0.006  0.019
   24  0.001  0.000  0.033  0.035
   25  0.008  0.000  0.048  0.056
   26  0.008  0.000  0.048  0.056
   27  0.001  0.000  0.033  0.034
   28  0.000  0.000  0.006  0.007
   29  0.000  0.000  0.005  0.006
   30  0.000  0.000  0.005  0.006
   31  0.000  0.000  0.005  0.006
   32  0.000  0.000  0.005  0.006
   33  0.000  0.000  0.005  0.006
   34  0.000  0.000  0.005  0.006
   35  0.002  0.000  0.000  0.003
   36  0.007  0.006  0.000  0.013
   37  0.000  0.003  0.000  0.003
   38  0.001  0.000  0.000  0.001
tot    0.135  0.031  0.605  0.771
 
band    19 # energy   -4.89846563 # occ.  2.00000000
 
ion      s      p      d    tot
    1  0.000  0.000  0.019  0.019
    2  0.011  0.001  0.013  0.025
    3  0.004  0.001  0.010  0.015
    4  0.011  0.001  0.013  0.025
    5  0.000  0.000  0.032  0.032
    6  0.002  0.000  0.016  0.019
    7  0.004  0.001  0.010  0.015
    8  0.002  0.000  0.016  0.019
    9  0.000  0.002  0.008  0.009
   10  0.000  0.000  0.007  0.007
   11  0.000  0.001  0.041  0.042
   12  0.000  0.000  0.017  0.017
   13  0.000  0.001  0.042  0.042
   14  0.000  0.000  0.048  0.048
   15  0.000  0.000  0.046  0.047
   16  0.000  0.000  0.017  0.017
   17  0.000  0.000  0.046  0.046
   18  0.000  0.000  0.036  0.036
   19  0.001  0.000  0.010  0.011
   20  0.000  0.000  0.020  0.020
   21  0.001  0.000  0.037  0.038
   22  0.000  0.000  0.036  0.036
   23  0.001  0.000  0.037  0.038
   24  0.000  0.000  0.032  0.033
   25  0.000  0.000  0.010  0.010
   26  0.001  0.000  0.010  0.011
   27  0.000  0.000  0.036  0.036
   28  0.000  0.000  0.011  0.012
   29  0.003  0.001  0.006  0.009
   30  0.008  0.001  0.009  0.018
   31  0.002  0.001  0.006  0.009
   32  0.002  0.000  0.010  0.012
   33  0.008  0.001  0.009  0.018
   34  0.002  0.000  0.010  0.012
   35  0.000  0.000  0.018  0.018
   36  0.000  0.002  0.003  0.005
   37  0.000  0.000  0.000  0.000
   38  0.000  0.000  0.000  0.000
tot    0.064  0.016  0.747  0.827
 
band    20 # energy   -4.89846364 # occ.  2.00000000
 
ion      s      p      d    tot
    1  0.000  0.000  0.019  0.019
    2  0.000  0.001  0.013  0.014
    3  0.008  0.000  0.016  0.024
    4  0.000  0.001  0.013  0.014
    5  0.000  0.000  0.032  0.032
    6  0.010  0.001  0.010  0.020
    7  0.008  0.000  0.016  0.024
    8  0.010  0.001  0.010  0.020
    9  0.000  0.002  0.008  0.009
   10  0.000  0.000  0.020  0.020
   11  0.000  0.000  0.046  0.046
   12  0.000  0.000  0.010  0.010
   13  0.000  0.000  0.046  0.046
   14  0.000  0.001  0.039  0.040
   15  0.000  0.000  0.039  0.039
   16  0.000  0.000  0.010  0.010
   17  0.000  0.000  0.039  0.040
   18  0.000  0.000  0.050  0.050
   19  0.000  0.000  0.010  0.010
   20  0.002  0.000  0.043  0.044
   21  0.000  0.000  0.026  0.026
   22  0.000  0.000  0.034  0.034
   23  0.000  0.000  0.026  0.026
   24  0.000  0.000  0.037  0.037
   25  0.001  0.000  0.010  0.011
   26  0.000  0.000  0.010  0.010
   27  0.000  0.000  0.034  0.034
   28  0.000  0.000  0.011  0.012
   29  0.006  0.000  0.011  0.017
   30  0.000  0.000  0.007  0.008
   31  0.006  0.000  0.011  0.017
   32  0.007  0.001  0.007  0.014
   33  0.000  0.000  0.007  0.008
   34  0.007  0.001  0.007  0.014
   35  0.000  0.000  0.018  0.018
   36  0.000  0.002  0.003  0.005
   37  0.000  0.000  0.000  0.000
   38  0.000  0.000  0.000  0.000
tot    0.064  0.016  0.747  0.827
 
band    21 # energy   -4.89042744 # occ.  2.00000000
 
ion      s      p      d    tot
    1  0.022  0.001  0.003  0.026
    2  0.000  0.001  0.018  0.019
    3  0.000  0.001  0.018  0.018
    4  0.000  0.001  0.018  0.019
    5  0.007  0.000  0.015  0.022
    6  0.000  0.001  0.018  0.018
    7  0.000  0.001  0.018  0.018
    8  0.000  0.001  0.018  0.018
    9  0.004  0.001  0.004  0.009
   10  0.000  0.000  0.028  0.029
   11  0.000  0.000  0.040  0.041
   12  0.000  0.000  0.028  0.029
   13  0.000  0.000  0.040  0.041
   14  0.000  0.000  0.040  0.041
   15  0.000  0.000  0.036  0.036
   16  0.000  0.000  0.028  0.029