 vasp.6.2.0 18Jan21 (build Jun 12 2021 23:27:24) complex                        
  
 executed on             LinuxIFC date 2022.05.27  05:39:55
 running on   16 total cores
 distrk:  each k-point on   16 cores,    1 groups
 distr:  one band on NCORE=   1 cores,   16 groups


--------------------------------------------------------------------------------------------------------


 INCAR:
   ISMEAR = -5
   SIGMA = 0.1
   ISPIN = 1
   EDIFF = 1.d-5
   EDIFFG = -0.01
   NSW = 0
   NELM = 150
   ENCUT = 500
   ISIF = 2
   IBRION = 2
   LREAL = Auto
   ALGO = Fast
   ICHARG = 11
   LORBIT = 10
   LCHARG = .F.
   LWAVE = .F.

 POTCAR:    PAW_PBE Ag 02Apr2005                  
 POTCAR:    PAW_PBE Nb_sv 25May2007               
 POTCAR:    PAW_PBE O 08Apr2002                   
 POTCAR:    PAW_PBE H 15Jun2001                   
 -----------------------------------------------------------------------------
|                                                                             |
|           W    W    AA    RRRRR   N    N  II  N    N   GGGG   !!!           |
|           W    W   A  A   R    R  NN   N  II  NN   N  G    G  !!!           |
|           W    W  A    A  R    R  N N  N  II  N N  N  G       !!!           |
|           W WW W  AAAAAA  RRRRR   N  N N  II  N  N N  G  GGG   !            |
|           WW  WW  A    A  R   R   N   NN  II  N   NN  G    G                |
|           W    W  A    A  R    R  N    N  II  N    N   GGGG   !!!           |
|                                                                             |
|     For optimal performance we recommend to set                             |
|       NCORE = 2 up to number-of-cores-per-socket                            |
|     NCORE specifies how many cores store one orbital (NPAR=cpu/NCORE).      |
|     This setting can greatly improve the performance of VASP for DFT.       |
|     The default, NCORE=1 might be grossly inefficient on modern             |
|     multi-core architectures or massively parallel machines. Do your        |
|     own testing! More info at https://www.vasp.at/wiki/index.php/NCORE      |
|     Unfortunately you need to use the default for GW and RPA                |
|     calculations (for HF NCORE is supported but not extensively tested      |
|     yet).                                                                   |
|                                                                             |
 -----------------------------------------------------------------------------

 POTCAR:    PAW_PBE Ag 02Apr2005                  
   VRHFIN =Ag : s1 d10                                                                              
   LEXCH  = PE                                                                                      
   EATOM  =  1037.2675 eV,   76.2370 Ry                                                             
                                                                                                    
   TITEL  = PAW_PBE Ag 02Apr2005                                                                    
   LULTRA =        F    use ultrasoft PP ?                                                          
   IUNSCR =        1    unscreen: 0-lin 1-nonlin 2-no                                               
   RPACOR =    2.000    partial core radius                                                         
   POMASS =  107.868; ZVAL   =   11.000    mass and valenz                                          
   RCORE  =    2.500    outmost cutoff radius                                                       
   RWIGS  =    2.840; RWIGS  =    1.503    wigner-seitz radius (au A)                               
   ENMAX  =  249.844; ENMIN  =  187.383 eV                                                          
   ICORE  =        3    local potential                                                             
   LCOR   =        T    correct aug charges                                                         
   LPAW   =        T    paw PP                                                                      
   EAUG   =  412.496                                                                                
   DEXC   =    0.000                                                                                
   RMAX   =    2.560    core radius for proj-oper                                                   
   RAUG   =    1.300    factor for augmentation sphere                                              
   RDEP   =    2.576    radius for radial grids                                                     
   RDEPT  =    2.072    core radius for aug-charge                                                  
                                                                                                    
   Atomic configuration                                                                             
   12 entries                                                                                       
     n  l   j            E        occ.                                                              
     1  0  0.50    -25324.9161   2.0000                                                             
     2  0  0.50     -3728.5341   2.0000                                                             
     2  1  1.50     -3344.0404   6.0000                                                             
     3  0  0.50      -683.5581   2.0000                                                             
     3  1  1.50      -557.3225   6.0000                                                             
     3  2  2.50      -358.3853  10.0000                                                             
     4  0  0.50       -95.0341   2.0000                                                             
     4  1  1.50       -58.5511   6.0000                                                             
     4  2  2.50        -7.4440  10.0000                                                             
     5  0  0.50        -4.4045   1.0000                                                             
     5  1  0.50        -1.3606   0.0000                                                             
     4  3  2.50        -1.3606   0.0000                                                             
   Description                                                                                      
     l       E           TYP  RCUT    TYP  RCUT                                                     
     2     -7.4439781     23  2.400                                                                 
     2     -8.8045607     23  2.400                                                                 
     0     -4.4044681     23  2.400                                                                 
     0      1.9520038     23  2.400                                                                 
     1     -1.3605826     23  2.500                                                                 
     1     27.2116520     23  2.500                                                                 
     3     -4.0817478     23  2.400                                                                 
  local pseudopotential read in
  partial core-charges read in
  partial kinetic energy density read in
  atomic valenz-charges read in
  non local Contribution for L=           2  read in
    real space projection operators read in
  non local Contribution for L=           2  read in
    real space projection operators read in
  non local Contribution for L=           0  read in
    real space projection operators read in
  non local Contribution for L=           0  read in
    real space projection operators read in
  non local Contribution for L=           1  read in
    real space projection operators read in
  non local Contribution for L=           1  read in
    real space projection operators read in
    PAW grid and wavefunctions read in
 
   number of l-projection  operators is LMAX  =           6
   number of lm-projection operators is LMMAX =          18
 
 POTCAR:    PAW_PBE Nb_sv 25May2007               
   VRHFIN =Nb: 4p5s4d                                                                               
   LEXCH  = PE                                                                                      
   EATOM  =  1555.1913 eV,  114.3033 Ry                                                             
                                                                                                    
   TITEL  = PAW_PBE Nb_sv 25May2007                                                                 
   LULTRA =        F    use ultrasoft PP ?                                                          
   IUNSCR =        1    unscreen: 0-lin 1-nonlin 2-no                                               
   RPACOR =    1.800    partial core radius                                                         
   POMASS =   92.910; ZVAL   =   13.000    mass and valenz                                          
   RCORE  =    2.400    outmost cutoff radius                                                       
   RWIGS  =    2.400; RWIGS  =    1.270    wigner-seitz radius (au A)                               
   ENMAX  =  293.235; ENMIN  =  219.927 eV                                                          
   ICORE  =        3    local potential                                                             
   LCOR   =        T    correct aug charges                                                         
   LPAW   =        T    paw PP                                                                      
   EAUG   =  455.659                                                                                
   DEXC   =    0.000                                                                                
   RMAX   =    2.456    core radius for proj-oper                                                   
   RAUG   =    1.300    factor for augmentation sphere                                              
   RDEP   =    2.451    radius for radial grids                                                     
   RDEPT  =    1.956    core radius for aug-charge                                                  
                                                                                                    
   Atomic configuration                                                                             
   11 entries                                                                                       
     n  l   j            E        occ.                                                              
     1  0  0.50    -18805.2457   2.0000                                                             
     2  0  0.50     -2630.2869   2.0000                                                             
     2  1  1.50     -2348.4046   6.0000                                                             
     3  0  0.50      -438.8757   2.0000                                                             
     3  1  1.50      -346.7588   6.0000                                                             
     3  2  2.50      -196.2560  10.0000                                                             
     4  0  0.50       -58.3859   2.0000                                                             
     5  0  0.50        -3.9816   1.0000                                                             
     4  1  1.50       -34.5141   6.0000                                                             
     4  2  2.50        -3.0408   4.0000                                                             
     4  3  2.50        -1.3606   0.0000                                                             
   Description                                                                                      
     l       E           TYP  RCUT    TYP  RCUT                                                     
     0    -58.3859094     23  2.200                                                                 
     0     -3.9816262     23  2.200                                                                 
     1    -34.5140738     23  2.200                                                                 
     1     13.6058260     23  2.200                                                                 
     2     -3.0408010     23  2.200                                                                 
     2     -0.1283038     23  2.200                                                                 
     3     -1.3605826     23  2.400                                                                 
  local pseudopotential read in
  partial core-charges read in
  partial kinetic energy density read in
  atomic valenz-charges read in
  non local Contribution for L=           0  read in
    real space projection operators read in
  non local Contribution for L=           0  read in
    real space projection operators read in
  non local Contribution for L=           1  read in
    real space projection operators read in
  non local Contribution for L=           1  read in
    real space projection operators read in
  non local Contribution for L=           2  read in
    real space projection operators read in
  non local Contribution for L=           2  read in
    real space projection operators read in
    PAW grid and wavefunctions read in
 
   number of l-projection  operators is LMAX  =           6
   number of lm-projection operators is LMMAX =          18
 
 POTCAR:    PAW_PBE O 08Apr2002                   
   VRHFIN =O: s2p4                                                                                  
   LEXCH  = PE                                                                                      
   EATOM  =   432.3788 eV,   31.7789 Ry                                                             
                                                                                                    
   TITEL  = PAW_PBE O 08Apr2002                                                                     
   LULTRA =        F    use ultrasoft PP ?                                                          
   IUNSCR =        1    unscreen: 0-lin 1-nonlin 2-no                                               
   RPACOR =    1.200    partial core radius                                                         
   POMASS =   16.000; ZVAL   =    6.000    mass and valenz                                          
   RCORE  =    1.520    outmost cutoff radius                                                       
   RWIGS  =    1.550; RWIGS  =    0.820    wigner-seitz radius (au A)                               
   ENMAX  =  400.000; ENMIN  =  300.000 eV                                                          
   ICORE  =        2    local potential                                                             
   LCOR   =        T    correct aug charges                                                         
   LPAW   =        T    paw PP                                                                      
   EAUG   =  605.392                                                                                
   DEXC   =    0.000                                                                                
   RMAX   =    1.553    core radius for proj-oper                                                   
   RAUG   =    1.300    factor for augmentation sphere                                              
   RDEP   =    1.550    radius for radial grids                                                     
   RDEPT  =    1.329    core radius for aug-charge                                                  
                                                                                                    
   Atomic configuration                                                                             
    4 entries                                                                                       
     n  l   j            E        occ.                                                              
     1  0  0.50      -514.6923   2.0000                                                             
     2  0  0.50       -23.9615   2.0000                                                             
     2  1  0.50        -9.0305   4.0000                                                             
     3  2  1.50        -9.5241   0.0000                                                             
   Description                                                                                      
     l       E           TYP  RCUT    TYP  RCUT                                                     
     0    -23.9615318     23  1.200                                                                 
     0     -9.5240782     23  1.200                                                                 
     1     -9.0304911     23  1.520                                                                 
     1      8.1634956     23  1.520                                                                 
     2     -9.5240782      7  1.500                                                                 
  local pseudopotential read in
  partial core-charges read in
  partial kinetic energy density read in
  kinetic energy density of atom read in
  atomic valenz-charges read in
  non local Contribution for L=           0  read in
    real space projection operators read in
  non local Contribution for L=           0  read in
    real space projection operators read in
  non local Contribution for L=           1  read in
    real space projection operators read in
  non local Contribution for L=           1  read in
    real space projection operators read in
    PAW grid and wavefunctions read in
 
   number of l-projection  operators is LMAX  =           4
   number of lm-projection operators is LMMAX =           8
 
 POTCAR:    PAW_PBE H 15Jun2001                   
   VRHFIN =H: ultrasoft test                                                                        
   LEXCH  = PE                                                                                      
   EATOM  =    12.4884 eV,    0.9179 Ry                                                             
                                                                                                    
   TITEL  = PAW_PBE H 15Jun2001                                                                     
   LULTRA =        F    use ultrasoft PP ?                                                          
   IUNSCR =        0    unscreen: 0-lin 1-nonlin 2-no                                               
   RPACOR =    0.000    partial core radius                                                         
   POMASS =    1.000; ZVAL   =    1.000    mass and valenz                                          
   RCORE  =    1.100    outmost cutoff radius                                                       
   RWIGS  =    0.700; RWIGS  =    0.370    wigner-seitz radius (au A)                               
   ENMAX  =  250.000; ENMIN  =  200.000 eV                                                          
   RCLOC  =    0.701    cutoff for local pot                                                        
   LCOR   =        T    correct aug charges                                                         
   LPAW   =        T    paw PP                                                                      
   EAUG   =  400.000                                                                                
   RMAX   =    1.123    core radius for proj-oper                                                   
   RAUG   =    1.200    factor for augmentation sphere                                              
   RDEP   =    1.112    radius for radial grids                                                     
   RDEPT  =    0.926    core radius for aug-charge                                                  
                                                                                                    
   Atomic configuration                                                                             
    2 entries                                                                                       
     n  l   j            E        occ.                                                              
     1  0  0.50        -6.4927   1.0000                                                             
     2  1  0.50        -3.4015   0.0000                                                             
   Description                                                                                      
     l       E           TYP  RCUT    TYP  RCUT                                                     
     0     -6.4927494     23  1.100                                                                 
     0      6.8029130     23  1.100                                                                 
     1     -4.0817478     23  1.100                                                                 
  local pseudopotential read in
  atomic valenz-charges read in
  non local Contribution for L=           0  read in
    real space projection operators read in
  non local Contribution for L=           0  read in
    real space projection operators read in
  non local Contribution for L=           1  read in
    real space projection operators read in
    PAW grid and wavefunctions read in
 
   number of l-projection  operators is LMAX  =           3
   number of lm-projection operators is LMMAX =           5
 
 Optimization of the real space projectors (new method)

 maximal supplied QI-value         = 15.12
 optimisation between [QCUT,QGAM] = [ 11.34, 22.83] = [ 36.00,145.93] Ry 
 Optimized for a Real-space Cutoff    1.43 Angstroem

   l    n(q)    QCUT    max X(q) W(low)/X(q) W(high)/X(q)  e(spline) 
   2      9    11.338    53.897    0.16E-03    0.20E-03    0.28E-06
   2      9    11.338    52.416    0.16E-03    0.20E-03    0.29E-06
   0     10    11.338   122.045    0.31E-04    0.76E-04    0.15E-06
   0     10    11.338    73.629    0.30E-04    0.72E-04    0.15E-06
   1      9    11.338    15.255    0.20E-03    0.19E-04    0.17E-06
   1      9    11.338     9.562    0.16E-03    0.15E-04    0.14E-06
 Optimization of the real space projectors (new method)

 maximal supplied QI-value         = 15.68
 optimisation between [QCUT,QGAM] = [ 11.45, 22.90] = [ 36.71,146.85] Ry 
 Optimized for a Real-space Cutoff    1.56 Angstroem

   l    n(q)    QCUT    max X(q) W(low)/X(q) W(high)/X(q)  e(spline) 
   0     11    11.450    10.201    0.21E-04    0.96E-05    0.78E-07
   0     11    11.450     8.174    0.31E-04    0.18E-04    0.14E-06
   1     10    11.450     3.488    0.27E-04    0.12E-04    0.96E-07
   1     10    11.450     4.917    0.11E-03    0.11E-03    0.37E-06
   2     10    11.450   153.744    0.37E-03    0.81E-03    0.10E-05
   2     10    11.450   126.342    0.37E-03    0.81E-03    0.10E-05
 Optimization of the real space projectors (new method)

 maximal supplied QI-value         = 24.76
 optimisation between [QCUT,QGAM] = [ 11.39, 22.77] = [ 36.31,145.25] Ry 
 Optimized for a Real-space Cutoff    1.00 Angstroem

   l    n(q)    QCUT    max X(q) W(low)/X(q) W(high)/X(q)  e(spline) 
   0      7    11.387    20.381    0.39E-03    0.13E-02    0.15E-06
   0      7    11.387    15.268    0.42E-03    0.14E-02    0.17E-06
   1      6    11.387     5.964    0.41E-03    0.11E-02    0.17E-06
   1      6    11.387     5.382    0.39E-03    0.87E-03    0.15E-06
 Optimization of the real space projectors (new method)

 maximal supplied QI-value         = 34.20
 optimisation between [QCUT,QGAM] = [ 11.29, 22.57] = [ 35.68,142.71] Ry 
 Optimized for a Real-space Cutoff    1.16 Angstroem

   l    n(q)    QCUT    max X(q) W(low)/X(q) W(high)/X(q)  e(spline) 
   0      8    11.287    19.460    0.40E-03    0.73E-03    0.16E-06
   0      8    11.287    12.209    0.38E-03    0.70E-03    0.15E-06
   1      7    11.287     4.655    0.22E-03    0.25E-04    0.22E-06
  PAW_PBE Ag 02Apr2005                  :
 energy of atom  1       EATOM=-1037.2675
 kinetic energy error for atom=    0.0052 (will be added to EATOM!!)
  PAW_PBE Nb_sv 25May2007               :
 energy of atom  2       EATOM=-1555.1913
 kinetic energy error for atom=    0.0069 (will be added to EATOM!!)
  PAW_PBE O 08Apr2002                   :
 energy of atom  3       EATOM= -432.3788
 kinetic energy error for atom=    0.0224 (will be added to EATOM!!)
  PAW_PBE H 15Jun2001                   :
 energy of atom  4       EATOM=  -12.4884
 kinetic energy error for atom=    0.0020 (will be added to EATOM!!)
 
 
 POSCAR: Ag-Nb-OH
  positions in direct lattice
  velocities in cartesian coordinates
 exchange correlation table for  LEXCH =        8
   RHO(1)=    0.500       N(1)  =     2000
   RHO(2)=  100.500       N(2)  =     4000

 VTST: version 3.2, (02/03/18)

 CHAIN: initializing optimizer
 
 OPT: Using VASP Conjugate-Gradient optimizer
 CHAIN: Read ICHAIN            0
 
 POSCAR: Ag-Nb-OH
  positions in direct lattice
  velocities in cartesian coordinates
 


--------------------------------------------------------------------------------------------------------


 ion  position               nearest neighbor table
   1  0.000  0.000  0.209-   2 2.93   8 2.93   7 2.93   6 2.93   4 2.93  12 2.93  16 2.93  10 2.93
                             3 2.93
   2  0.333  0.000  0.209-   1 2.93   8 2.93   9 2.93   3 2.93   4 2.93   5 2.93  10 2.93  17 2.93
                            11 2.93
   3  0.667  0.000  0.209-   9 2.93   2 2.93   5 2.93  11 2.93   7 2.93  18 2.93   1 2.93   6 2.93
                            12 2.93
   4  0.000  0.333  0.209-   5 2.93   6 2.93   2 2.93   1 2.93   7 2.93  13 2.93  15 2.93   9 2.93
                            10 2.93
   5  0.333  0.333  0.209-   4 2.93   3 2.93   7 2.93   2 2.93   8 2.93  14 2.93  13 2.93  11 2.93
                             6 2.93
   6  0.667  0.333  0.209-   4 2.93   9 2.93   1 2.93  15 2.93   8 2.93  12 2.93   3 2.93   5 2.93
                            14 2.93
   7  0.000  0.667  0.209-   8 2.93   1 2.93   5 2.93   3 2.93   4 2.93  16 2.93  18 2.93  13 2.93
                             9 2.93
   8  0.333  0.667  0.209-   7 2.93   1 2.93   2 2.93   9 2.93   5 2.93  16 2.93   6 2.93  17 2.93
                            14 2.93
   9  0.667  0.667  0.209-   3 2.93   2 2.93   8 2.93   6 2.93  17 2.93   4 2.93  15 2.93   7 2.93
                            18 2.93
  10  0.111  0.111  0.304-  20 2.90  19 2.93  26 2.93  12 2.93  16 2.93  15 2.93  17 2.93  13 2.93
                            11 2.93   2 2.93   1 2.93   4 2.93
  11  0.444  0.111  0.304-  21 2.90  20 2.90  14 2.93  17 2.93  18 2.93   3 2.93  12 2.93  13 2.93
                            10 2.93   5 2.93   2 2.93  27 2.93
  12  0.778  0.111  0.304-  21 2.90  25 2.93  19 2.93  10 2.93  16 2.93  18 2.93  15 2.93  11 2.93
                             1 2.93  14 2.93   6 2.93   3 2.93
  13  0.111  0.444  0.304-  20 2.90  23 2.90  15 2.93  14 2.93  18 2.93  10 2.93  11 2.93  16 2.93
                             4 2.93   5 2.93   7 2.93  22 2.93
  14  0.444  0.444  0.304-  23 2.90  21 2.90  13 2.93  11 2.93  16 2.93   5 2.93  12 2.93  17 2.93
                             8 2.93  15 2.93   6 2.93  24 2.93
  15  0.778  0.444  0.304-  19 2.93  13 2.93  10 2.93  12 2.93  17 2.93  18 2.93   4 2.93   6 2.93
                             9 2.93  14 2.93  24 2.93  22 2.93
  16  0.111  0.778  0.304-  23 2.90  26 2.93  25 2.93  18 2.93  12 2.93  10 2.93  14 2.93  17 2.93
                            13 2.93   7 2.93   8 2.93   1 2.93
  17  0.444  0.778  0.304-  26 2.93  11 2.93  10 2.93   9 2.93  18 2.93  15 2.93  16 2.93   2 2.93
                            14 2.93   8 2.93  27 2.93  24 2.93
  18  0.778  0.778  0.304-  25 2.93  16 2.93  12 2.93  13 2.93  11 2.93  17 2.93  15 2.93   7 2.93
                             3 2.93   9 2.93  22 2.93  27 2.93
  19  0.889  0.222  0.399-  15 2.93  10 2.93  12 2.93  20 2.93  21 2.93  28 2.93  24 2.93  22 2.93
                            26 2.93  25 2.93  32 2.97  31 2.97
  20  0.222  0.222  0.397-  36 2.82  10 2.90  13 2.90  11 2.90  19 2.93  26 2.93  27 2.93  22 2.93
                            21 2.94  23 2.94  31 2.97  29 2.97
  21  0.556  0.222  0.397-  36 2.82  12 2.90  11 2.90  14 2.90  25 2.93  19 2.93  27 2.93  24 2.93
                            20 2.94  23 2.94  30 2.97  32 2.97
  22  0.889  0.556  0.399-  24 2.93  27 2.93  25 2.93  19 2.93  18 2.93  15 2.93  23 2.93  20 2.93
                            35 2.93  13 2.93  33 2.95  31 2.95
  23  0.222  0.556  0.397-  36 2.82  16 2.90  14 2.90  13 2.90  26 2.93  25 2.93  22 2.93  24 2.93
                            21 2.94  20 2.94  34 2.97  33 2.97
  24  0.556  0.556  0.399-  27 2.93  22 2.93  19 2.93  26 2.93  15 2.93  17 2.93  23 2.93  21 2.93
                            35 2.93  14 2.93  32 2.95  34 2.95
  25  0.889  0.889  0.399-  18 2.93  16 2.93  12 2.93  23 2.93  21 2.93  28 2.93  22 2.93  27 2.93
                            26 2.93  19 2.93  33 2.97  30 2.97
  26  0.222  0.889  0.399-  17 2.93  16 2.93  10 2.93  23 2.93  20 2.93  28 2.93  27 2.93  24 2.93
                            25 2.93  19 2.93  34 2.97  29 2.97
  27  0.556  0.889  0.399-  24 2.93  22 2.93  26 2.93  25 2.93  17 2.93  18 2.93  20 2.93  21 2.93
                            35 2.93  11 2.93  29 2.95  30 2.95
  28  0.000  0.000  0.493-  26 2.93  25 2.93  19 2.93  29 2.95  34 2.95  33 2.95  32 2.95  31 2.95
                            30 2.95
  29  0.333  0.004  0.495-  30 2.90  31 2.90  36 2.91  35 2.95  28 2.95  27 2.95  20 2.97  26 2.97
                            34 2.99
  30  0.663  0.004  0.495-  29 2.90  32 2.90  36 2.91  35 2.95  28 2.95  27 2.95  21 2.97  25 2.97
                            33 2.99
  31  0.004  0.333  0.495-  33 2.90  29 2.90  36 2.91  35 2.95  28 2.95  22 2.95  20 2.97  19 2.97
                            32 2.99
  32  0.663  0.333  0.495-  34 2.90  30 2.90  36 2.91  35 2.95  28 2.95  24 2.95  21 2.97  19 2.97
                            31 2.99
  33  0.004  0.663  0.495-  31 2.90  34 2.90  36 2.91  35 2.95  28 2.95  22 2.95  23 2.97  25 2.97
                            30 2.99
  34  0.333  0.663  0.495-  32 2.90  33 2.90  36 2.91  35 2.95  28 2.95  24 2.95  23 2.97  26 2.97
                            29 2.99
  35  0.667  0.667  0.494-  24 2.93  27 2.93  22 2.93  30 2.95  29 2.95  32 2.95  34 2.95  31 2.95
                            33 2.95
  36  0.333  0.333  0.487-  37 1.86  21 2.82  20 2.82  23 2.82  31 2.91  33 2.91  30 2.91  29 2.91
                            34 2.91  32 2.91
  37  0.333  0.333  0.560-  38 0.97  36 1.86
  38  0.333  0.333  0.599-  37 0.97
 
  LATTYP: Found a hexagonal cell.
 ALAT       =     8.7913665772
 C/A-ratio  =     2.8719070141
  
  Lattice vectors:
  
 A1 = (  -4.3956832886,  -7.6135467898,   0.0000000000)
 A2 = (   8.7913665771,   0.0000000000,   0.0000000000)
 A3 = (   0.0000000000,   0.0000000000,  25.2479873362)


Analysis of symmetry for initial positions (statically):
=====================================================================
 Subroutine PRICEL returns:
 Original cell was already a primitive cell.
 

 Routine SETGRP: Setting up the symmetry group for a 
 hexagonal supercell.


 Subroutine GETGRP returns: Found  6 space group operations
 (whereof  6 operations were pure point group operations)
 out of a pool of 24 trial point group operations.


The static configuration has the point symmetry C_3v.


Analysis of symmetry for dynamics (positions and initial velocities):
=====================================================================
 Subroutine PRICEL returns:
 Original cell was already a primitive cell.
 

 Routine SETGRP: Setting up the symmetry group for a 
 hexagonal supercell.


 Subroutine GETGRP returns: Found  6 space group operations
 (whereof  6 operations were pure point group operations)
 out of a pool of 24 trial point group operations.


The dynamic configuration has the point symmetry C_3v.


Analysis of constrained symmetry for selective dynamics:
=====================================================================
 Subroutine PRICEL returns:
 Original cell was already a primitive cell.
 

 Routine SETGRP: Setting up the symmetry group for a 
 hexagonal supercell.


 Subroutine GETGRP returns: Found  6 space group operations
 (whereof  6 operations were pure point group operations)
 out of a pool of 24 trial point group operations.


The constrained configuration has the point symmetry C_3v.


 Subroutine INISYM returns: Found  6 space group operations
 (whereof  6 operations are pure point group operations),
 and found     1 'primitive' translations


----------------------------------------------------------------------------------------

                                     Primitive cell                                     

  volume of cell :    1689.9357

  direct lattice vectors                    reciprocal lattice vectors
     8.791366577  0.000000000  0.000000000     0.113747958 -0.065672414  0.000000000
     4.395683289  7.613546790  0.000000000     0.000000000  0.131344829  0.000000000
     0.000000000  0.000000000 25.247987336     0.000000000  0.000000000  0.039607117

  length of vectors
     8.791366577  8.791366577 25.247987336     0.131344829  0.131344829  0.039607117

  position of ions in fractional coordinates (direct lattice)
     0.000000000  0.000000000  0.209212246
     0.333333313  0.000000000  0.209212246
     0.666666627  0.000000000  0.209212246
     0.000000000  0.333333343  0.209212246
     0.333333313  0.333333343  0.209212246
     0.666666687  0.333333343  0.209212246
     0.000000000  0.666666687  0.209212246
     0.333333313  0.666666687  0.209212246
     0.666666627  0.666666687  0.209212246
     0.111111104  0.111111112  0.303980481
     0.444444448  0.111111112  0.303980481
     0.777777791  0.111111112  0.303980481
     0.111111097  0.444444448  0.303980481
     0.444444418  0.444444448  0.303980481
     0.777777791  0.444444448  0.303980481
     0.111111104  0.777777791  0.303980481
     0.444444448  0.777777791  0.303980481
     0.777777791  0.777777791  0.303980481
     0.888874930  0.222250156  0.398500241
     0.222002280  0.222002295  0.397360126
     0.555995379  0.222002295  0.397360126
     0.888584292  0.555707884  0.398845249
     0.222002295  0.555995439  0.397360126
     0.555707884  0.555707884  0.398845249
     0.888874930  0.888874930  0.398500241
     0.222250126  0.888874930  0.398500241
     0.555707824  0.888584292  0.398845249
     0.000000000  0.000000000  0.493202348
     0.333455740  0.003519001  0.494592087
     0.663025199  0.003519001  0.494592087
     0.003519001  0.333455770  0.494592087
     0.663025259  0.333455770  0.494592087
     0.003519001  0.663025259  0.494592087
     0.333455740  0.663025259  0.494592087
     0.666666627  0.666666687  0.493790402
     0.333333313  0.333333343  0.486742177
     0.333333313  0.333333343  0.560460215
     0.333333313  0.333333343  0.598768185

  ion indices of the primitive-cell ions
   primitive index   ion index
                 1           1
                 2           2
                 3           3
                 4           4
                 5           5
                 6           6
                 7           7
                 8           8
                 9           9
                10          10
                11          11
                12          12
                13          13
                14          14
                15          15
                16          16
                17          17
                18          18
                19          19
                20          20
                21          21
                22          22
                23          23
                24          24
                25          25
                26          26
                27          27
                28          28
                29          29
                30          30
                31          31
                32          32
                33          33
                34          34
                35          35
                36          36
                37          37
                38          38

----------------------------------------------------------------------------------------

 
 
 KPOINTS: Automatic mesh                          

Automatic generation of k-mesh.
 Grid dimensions read from file:
 generate k-points for:    8    8    1

 Generating k-lattice:

  Cartesian coordinates                     Fractional coordinates (reciprocal lattice)
     0.014218495 -0.008209052  0.000000000     0.125000000  0.000000000  0.000000000
     0.000000000  0.016418104  0.000000000     0.000000000  0.125000000  0.000000000
     0.000000000  0.000000000  0.039607117     0.000000000  0.000000000  1.000000000

  Length of vectors
     0.016418104  0.016418104  0.039607117

  Shift w.r.t. Gamma in fractional coordinates (k-lattice)
     0.000000000  0.000000000  0.000000000

 TETIRR: Found     36 inequivalent tetrahedra from      384
 
 Subroutine IBZKPT returns following result:
 ===========================================
 
 Found     10 irreducible k-points:
 
 Following reciprocal coordinates:
            Coordinates               Weight
  0.000000  0.000000  0.000000      1.000000
  0.125000  0.000000  0.000000      6.000000
  0.250000  0.000000  0.000000      6.000000
  0.375000  0.000000  0.000000      6.000000
  0.500000  0.000000  0.000000      3.000000
  0.250000  0.125000  0.000000      6.000000
  0.375000  0.125000  0.000000     12.000000
  0.500000  0.125000  0.000000     12.000000
  0.500000  0.250000  0.000000      6.000000
 -0.375000  0.250000  0.000000      6.000000
 
 Following cartesian coordinates:
            Coordinates               Weight
  0.000000  0.000000  0.000000      1.000000
  0.014218 -0.008209  0.000000      6.000000
  0.028437 -0.016418  0.000000      6.000000
  0.042655 -0.024627  0.000000      6.000000
  0.056874 -0.032836  0.000000      3.000000
  0.028437 -0.000000  0.000000      6.000000
  0.042655 -0.008209  0.000000     12.000000
  0.056874 -0.016418  0.000000     12.000000
  0.056874 -0.000000  0.000000      6.000000
 -0.042655  0.057463  0.000000      6.000000
 


--------------------------------------------------------------------------------------------------------




 Dimension of arrays:
   k-points           NKPTS =     10   k-points in BZ     NKDIM =     10   number of bands    NBANDS=    256
   number of dos      NEDOS =    301   number of ions     NIONS =     38
   non local maximal  LDIM  =      6   non local SUM 2l+1 LMDIM =     18
   total plane-waves  NPLWV = 322560
   max r-space proj   IRMAX =   3109   max aug-charges    IRDMAX=   9583
   dimension x,y,z NGX =    48 NGY =   48 NGZ =  140
   dimension x,y,z NGXF=    96 NGYF=   96 NGZF=  280
   support grid    NGXF=    96 NGYF=   96 NGZF=  280
   ions per type =              35   1   1   1
   NGX,Y,Z   is equivalent  to a cutoff of   9.08,  9.08,  9.22 a.u.
   NGXF,Y,Z  is equivalent  to a cutoff of  18.15, 18.15, 18.44 a.u.

 SYSTEM =  unknown system                          
 POSCAR =  Ag-Nb-OH                                

 Startparameter for this run:
   NWRITE =      2    write-flag & timer
   PREC   = normal    normal or accurate (medium, high low for compatibility)
   ISTART =      0    job   : 0-new  1-cont  2-samecut
   ICHARG =     11    charge: 1-file 2-atom 10-const
   ISPIN  =      1    spin polarized calculation?
   LNONCOLLINEAR =      F non collinear calculations
   LSORBIT =      F    spin-orbit coupling
   INIWAV =      1    electr: 0-lowe 1-rand  2-diag
   LASPH  =      F    aspherical Exc in radial PAW
   METAGGA=      F    non-selfconsistent MetaGGA calc.

 Electronic Relaxation 1
   ENCUT  =  500.0 eV  36.75 Ry    6.06 a.u.  16.03 16.03 46.03*2*pi/ulx,y,z
   ENINI  =  500.0     initial cutoff
   ENAUG  =  605.4 eV  augmentation charge cutoff
   NELM   =    150;   NELMIN=  2; NELMDL= -5     # of ELM steps 
   EDIFF  = 0.1E-04   stopping-criterion for ELM
   LREAL  =      T    real-space projection
   NLSPLINE    = F    spline interpolate recip. space projectors
   LCOMPAT=      F    compatible to vasp.4.4
   GGA_COMPAT  = T    GGA compatible to vasp.4.4-vasp.4.6
   LMAXPAW     = -100 max onsite density
   LMAXMIX     =    2 max onsite mixed and CHGCAR
   VOSKOWN=      0    Vosko Wilk Nusair interpolation
   ROPT   =   -0.00050  -0.00050  -0.00050  -0.00050
 Ionic relaxation
   EDIFFG = -.1E-01   stopping-criterion for IOM
   NSW    =      0    number of steps for IOM
   NBLOCK =      1;   KBLOCK =      1    inner block; outer block 
   IBRION =     -1    ionic relax: 0-MD 1-quasi-New 2-CG
   NFREE  =      1    steps in history (QN), initial steepest desc. (CG)
   ISIF   =      2    stress and relaxation
   IWAVPR =     10    prediction:  0-non 1-charg 2-wave 3-comb
   ISYM   =      2    0-nonsym 1-usesym 2-fastsym
   LCORR  =      T    Harris-Foulkes like correction to forces

   POTIM  = 0.5000    time-step for ionic-motion
   TEIN   =    0.0    initial temperature
   TEBEG  =    0.0;   TEEND  =   0.0 temperature during run
   SMASS  =  -3.00    Nose mass-parameter (am)
   estimated Nose-frequenzy (Omega)   =  0.10E-29 period in steps = 0.13E+47 mass=  -0.177E-26a.u.
   SCALEE = 1.0000    scale energy and forces
   NPACO  =    256;   APACO  = 16.0  distance and # of slots for P.C.
   PSTRESS=    0.0 pullay stress

  Mass of Ions in am
   POMASS = 107.87 92.91 16.00  1.00
  Ionic Valenz
   ZVAL   =  11.00 13.00  6.00  1.00
  Atomic Wigner-Seitz radii
   RWIGS  =  -1.00 -1.00 -1.00 -1.00
  virtual crystal weights 
   VCA    =   1.00  1.00  1.00  1.00
   NELECT =     405.0000    total number of electrons
   NUPDOWN=      -1.0000    fix difference up-down

 DOS related values:
   EMIN   =  10.00;   EMAX   =-10.00  energy-range for DOS
   EFERMI =   0.00
   ISMEAR =    -5;   SIGMA  =   0.10  broadening in eV -4-tet -1-fermi 0-gaus

 Electronic relaxation 2 (details)
   IALGO  =     68    algorithm
   LDIAG  =      T    sub-space diagonalisation (order eigenvalues)
   LSUBROT=      F    optimize rotation matrix (better conditioning)
   TURBO    =      0    0=normal 1=particle mesh
   IRESTART =      0    0=no restart 2=restart with 2 vectors
   NREBOOT  =      0    no. of reboots
   NMIN     =      0    reboot dimension
   EREF     =   0.00    reference energy to select bands
   IMIX   =      4    mixing-type and parameters
     AMIX     =   0.40;   BMIX     =  1.00
     AMIX_MAG =   1.60;   BMIX_MAG =  1.00
     AMIN     =   0.10
     WC   =   100.;   INIMIX=   1;  MIXPRE=   1;  MAXMIX= -45

 Intra band minimization:
   WEIMIN = 0.0000     energy-eigenvalue tresh-hold
   EBREAK =  0.98E-08  absolut break condition
   DEPER  =   0.30     relativ break condition  

   TIME   =   0.40     timestep for ELM

  volume/ion in A,a.u.               =      44.47       300.11
  Fermi-wavevector in a.u.,A,eV,Ry     =   1.016880  1.921625 14.069040  1.034045
  Thomas-Fermi vector in A             =   2.150249
 
 Write flags
   LWAVE        =      F    write WAVECAR
   LDOWNSAMPLE  =      F    k-point downsampling of WAVECAR
   LCHARG       =      F    write CHGCAR
   LVTOT        =      F    write LOCPOT, total local potential
   LVHAR        =      F    write LOCPOT, Hartree potential only
   LELF         =      F    write electronic localiz. function (ELF)
   LORBIT       =     10    0 simple, 1 ext, 2 COOP (PROOUT), +10 PAW based schemes


 Dipole corrections
   LMONO  =      F    monopole corrections only (constant potential shift)
   LDIPOL =      F    correct potential (dipole corrections)
   IDIPOL =      0    1-x, 2-y, 3-z, 4-all directions 
   EPSILON=  1.0000000 bulk dielectric constant

 Exchange correlation treatment:
   GGA     =    --    GGA type
   LEXCH   =     8    internal setting for exchange type
   VOSKOWN=      0    Vosko Wilk Nusair interpolation
   LHFCALC =     F    Hartree Fock is set to
   LHFONE  =     F    Hartree Fock one center treatment
   AEXX    =    0.0000 exact exchange contribution

 Linear response parameters
   LEPSILON=     F    determine dielectric tensor
   LRPA    =     F    only Hartree local field effects (RPA)
   LNABLA  =     F    use nabla operator in PAW spheres
   LVEL    =     F    velocity operator in full k-point grid
   LINTERFAST=   F  fast interpolation
   KINTER  =     0    interpolate to denser k-point grid
   CSHIFT  =0.1000    complex shift for real part using Kramers Kronig
   OMEGAMAX=  -1.0    maximum frequency
   DEG_THRESHOLD= 0.2000000E-02 threshold for treating states as degnerate
   RTIME   =   -0.100 relaxation time in fs
  (WPLASMAI=    0.000 imaginary part of plasma frequency in eV, 0.658/RTIME)
   DFIELD  = 0.0000000 0.0000000 0.0000000 field for delta impulse in time
 
 Orbital magnetization related:
   ORBITALMAG=     F  switch on orbital magnetization
   LCHIMAG   =     F  perturbation theory with respect to B field
   DQ        =  0.001000  dq finite difference perturbation B field
   LLRAUG    =     F  two centre corrections for induced B field



--------------------------------------------------------------------------------------------------------


 Static calculation
 charge density and potential remain constant during run
 non-spin polarized calculation
 RMM-DIIS sequential band-by-band and
  variant of blocked Davidson during initial phase
 perform sub-space diagonalisation
    before iterative eigenvector-optimisation
 no mixing
 using additional bands           53
 real space projection scheme for non local part
 use partial core corrections
 calculate Harris-corrections to forces 
   (improved forces if not selfconsistent)
 use gradient corrections 
 WARNING: stress and forces are not correct
  (second derivative of E(xc) not defined)
 use of overlap-Matrix (Vanderbilt PP)
 Fermi weights with tetrahedron method with Bloechl corrections


--------------------------------------------------------------------------------------------------------


  energy-cutoff  :      500.00
  volume of cell :     1689.94
      direct lattice vectors                 reciprocal lattice vectors
     8.791366577  0.000000000  0.000000000     0.113747958 -0.065672414  0.000000000
     4.395683289  7.613546790  0.000000000     0.000000000  0.131344829  0.000000000
     0.000000000  0.000000000 25.247987336     0.000000000  0.000000000  0.039607117

  length of vectors
     8.791366577  8.791366577 25.247987336     0.131344829  0.131344829  0.039607117


 
 k-points in units of 2pi/SCALE and weight: Automatic mesh                          
   0.00000000  0.00000000  0.00000000       0.016
   0.01421849 -0.00820905  0.00000000       0.094
   0.02843699 -0.01641810  0.00000000       0.094
   0.04265548 -0.02462716  0.00000000       0.094
   0.05687398 -0.03283621  0.00000000       0.047
   0.02843699 -0.00000000  0.00000000       0.094
   0.04265548 -0.00820905  0.00000000       0.188
   0.05687398 -0.01641810  0.00000000       0.188
   0.05687398 -0.00000000  0.00000000       0.094
  -0.04265548  0.05746336  0.00000000       0.094
 
 k-points in reciprocal lattice and weights: Automatic mesh                          
   0.00000000  0.00000000  0.00000000       0.016
   0.12500000  0.00000000  0.00000000       0.094
   0.25000000  0.00000000  0.00000000       0.094
   0.37500000  0.00000000  0.00000000       0.094
   0.50000000  0.00000000  0.00000000       0.047
   0.25000000  0.12500000  0.00000000       0.094
   0.37500000  0.12500000  0.00000000       0.188
   0.50000000  0.12500000  0.00000000       0.188
   0.50000000  0.25000000  0.00000000       0.094
  -0.37500000  0.25000000  0.00000000       0.094
 
 position of ions in fractional coordinates (direct lattice) 
   0.00000000  0.00000000  0.20921225
   0.33333331  0.00000000  0.20921225
   0.66666663  0.00000000  0.20921225
   0.00000000  0.33333334  0.20921225
   0.33333331  0.33333334  0.20921225
   0.66666669  0.33333334  0.20921225
   0.00000000  0.66666669  0.20921225
   0.33333331  0.66666669  0.20921225
   0.66666663  0.66666669  0.20921225
   0.11111110  0.11111111  0.30398048
   0.44444445  0.11111111  0.30398048
   0.77777779  0.11111111  0.30398048
   0.11111110  0.44444445  0.30398048
   0.44444442  0.44444445  0.30398048
   0.77777779  0.44444445  0.30398048
   0.11111110  0.77777779  0.30398048
   0.44444445  0.77777779  0.30398048
   0.77777779  0.77777779  0.30398048
   0.88887493  0.22225016  0.39850024
   0.22200228  0.22200230  0.39736013
   0.55599538  0.22200230  0.39736013
   0.88858429  0.55570788  0.39884525
   0.22200230  0.55599544  0.39736013
   0.55570788  0.55570788  0.39884525
   0.88887493  0.88887493  0.39850024
   0.22225013  0.88887493  0.39850024
   0.55570782  0.88858429  0.39884525
   0.00000000  0.00000000  0.49320235
   0.33345574  0.00351900  0.49459209
   0.66302520  0.00351900  0.49459209
   0.00351900  0.33345577  0.49459209
   0.66302526  0.33345577  0.49459209
   0.00351900  0.66302526  0.49459209
   0.33345574  0.66302526  0.49459209
   0.66666663  0.66666669  0.49379040
   0.33333331  0.33333334  0.48674218
   0.33333331  0.33333334  0.56046022
   0.33333331  0.33333334  0.59876819
 
 position of ions in cartesian coordinates  (Angst):
   0.00000000  0.00000000  5.28218814
   2.93045535  0.00000000  5.28218814
   5.86091070  0.00000000  5.28218814
   1.46522781  2.53784900  5.28218814
   4.39568315  2.53784900  5.28218814
   7.32613904  2.53784900  5.28218814
   2.93045562  5.07569801  5.28218814
   5.86091096  5.07569801  5.28218814
   8.79136632  5.07569801  5.28218814
   1.46522770  0.84594965  7.67489535
   4.39568332  0.84594965  7.67489535
   7.32613893  0.84594965  7.67489535
   2.93045542  3.38379860  7.67489535
   5.86091083  3.38379860  7.67489535
   8.79136671  3.38379860  7.67489535
   4.39568328  5.92164760  7.67489535
   7.32613890  5.92164760  7.67489535
  10.25659451  5.92164760  7.67489535
   8.79136665  1.69211196 10.06132904
   2.92755521  1.69022486 10.03254343
   5.86381097  1.69022486 10.03254343
  10.25458610  4.23090798 10.07003980
   4.39568342  4.23309729 10.03254343
   7.32814758  4.23090798 10.07003980
  11.72163802  6.76749087 10.06132904
   5.86109501  6.76749087 10.06132904
   8.79136631  6.76527808 10.07003980
   0.00000000  0.00000000 12.45236662
   2.94700006  0.02679208 12.48745475
   5.84436599  0.02679208 12.48745475
   1.49670278  2.53878110 12.48745475
   7.29466406  2.53878110 12.48745475
   2.94538588  5.04797383 12.48745475
   5.84598070  5.04797383 12.48745475
   8.79136632  5.07569801 12.46721382
   4.39568315  2.53784900 12.28926033
   4.39568315  2.53784900 14.15049242
   4.39568315  2.53784900 15.11769156
 


--------------------------------------------------------------------------------------------------------


 k-point   1 :   0.0000 0.0000 0.0000  plane waves:   42843
 k-point   2 :   0.1250 0.0000 0.0000  plane waves:   42824
 k-point   3 :   0.2500 0.0000 0.0000  plane waves:   42872
 k-point   4 :   0.3750 0.0000 0.0000  plane waves:   42884
 k-point   5 :   0.5000 0.0000 0.0000  plane waves:   42900
 k-point   6 :   0.2500 0.1250 0.0000  plane waves:   42896
 k-point   7 :   0.3750 0.1250 0.0000  plane waves:   42940
 k-point   8 :   0.5000 0.1250 0.0000  plane waves:   42932
 k-point   9 :   0.5000 0.2500 0.0000  plane waves:   42910
 k-point  10 :  -0.3750 0.2500 0.0000  plane waves:   42928

 maximum and minimum number of plane-waves per node :     42940    42824

 maximum number of plane-waves:     42940
 maximum index in each direction: 
   IXMAX=   16   IYMAX=   16   IZMAX=   46
   IXMIN=  -16   IYMIN=  -16   IZMIN=  -46


 serial   3D FFT for wavefunctions
 parallel 3D FFT for charge:
    minimum data exchange during FFTs selected (reduces bandwidth)


 total amount of memory used by VASP MPI-rank0   188832. kBytes
=======================================================================

   base      :      30000. kBytes
   nonlr-proj:      15216. kBytes
   fftplans  :       6755. kBytes
   grid      :      24615. kBytes
   one-center:        590. kBytes
   wavefun   :     111656. kBytes
 
     INWAV:  cpu time    0.0000: real time    0.0000
 initial charge density was supplied:
 number of electron     405.0000081 magnetization 
 keeping initial charge density in first step


--------------------------------------------------------------------------------------------------------


 Maximum index for non-local projection operator         2969
 Maximum index for augmentation-charges          632 (set IRDMAX)


--------------------------------------------------------------------------------------------------------


 First call to EWALD:  gamma=   0.149
 Maximum number of real-space cells 4x 4x 2
 Maximum number of reciprocal cells 2x 2x 5

    FEWALD:  cpu time    0.0013: real time    0.0013


--------------------------------------- Iteration      1(   1)  ---------------------------------------


    POTLOK:  cpu time    0.0650: real time    0.0653
    SETDIJ:  cpu time    0.0059: real time    0.0060
     EDDAV:  cpu time   10.9928: real time   10.9936
 BZINTS: Fermi energy:    9.295379;  405.000000 electrons
         Band energy: 0.843160E+03;  BLOECHL correction:   -0.065624
       DOS:  cpu time    0.0098: real time    0.0099
    --------------------------------------------
      LOOP:  cpu time   11.0735: real time   11.0748

 eigenvalue-minimisations  :  5344
 total energy-change (2. order) : 0.2503361E+04  (-0.1845088E+05)
 number of electron     405.0000081 magnetization 
 augmentation part      405.0000081 magnetization 

 Free energy of the ion-electron system (eV)
  ---------------------------------------------------
  alpha Z        PSCENC =       682.20839725
  Ewald energy   TEWEN  =    146152.69925313
  -Hartree energ DENC   =   -184730.16912085
  -exchange      EXHF   =         0.00000000
  -V(xc)+E(xc)   XCENC  =      -302.41472368
  PAW double counting   =     40215.12976209   -38661.46053918
  entropy T*S    EENTRO =         0.00000000
  eigenvalues    EBANDS =       843.15965479
  atomic energy  EATOM  =     38304.20813735
  Solvation  Ediel_sol  =         0.00000000
  ---------------------------------------------------
  free energy    TOTEN  =      2503.36082091 eV

  energy without entropy =     2503.36082091  energy(sigma->0) =     2503.36082091


--------------------------------------------------------------------------------------------------------




--------------------------------------- Iteration      1(   2)  ---------------------------------------


     EDDAV:  cpu time   11.2706: real time   11.2708
 BZINTS: Fermi energy:    1.269526;  405.000000 electrons
         Band energy:-0.165669E+04;  BLOECHL correction:   -0.057323
       DOS:  cpu time    0.0094: real time    0.0094
    --------------------------------------------
      LOOP:  cpu time   11.2800: real time   11.2803

 eigenvalue-minimisations  :  5504
 total energy-change (2. order) :-0.2499852E+04  (-0.2389586E+04)
 number of electron     405.0000081 magnetization 
 augmentation part      405.0000081 magnetization 

 Free energy of the ion-electron system (eV)
  ---------------------------------------------------
  alpha Z        PSCENC =       682.20839725
  Ewald energy   TEWEN  =    146152.69925313
  -Hartree energ DENC   =   -184730.16912085
  -exchange      EXHF   =         0.00000000
  -V(xc)+E(xc)   XCENC  =      -302.41472368
  PAW double counting   =     40215.12976209   -38661.46053918
  entropy T*S    EENTRO =         0.00000000
  eigenvalues    EBANDS =     -1656.69241480
  atomic energy  EATOM  =     38304.20813735
  Solvation  Ediel_sol  =         0.00000000
  ---------------------------------------------------
  free energy    TOTEN  =         3.50875132 eV

  energy without entropy =        3.50875132  energy(sigma->0) =        3.50875132


--------------------------------------------------------------------------------------------------------




--------------------------------------- Iteration      1(   3)  ---------------------------------------


     EDDAV:  cpu time   12.8249: real time   12.8251
 BZINTS: Fermi energy:    0.606289;  405.000000 electrons
         Band energy:-0.176533E+04;  BLOECHL correction:   -0.033587
       DOS:  cpu time    0.0103: real time    0.0103
    --------------------------------------------
      LOOP:  cpu time   12.8352: real time   12.8353

 eigenvalue-minimisations  :  6480
 total energy-change (2. order) :-0.1086401E+03  (-0.1057046E+03)
 number of electron     405.0000081 magnetization 
 augmentation part      405.0000081 magnetization 

 Free energy of the ion-electron system (eV)
  ---------------------------------------------------
  alpha Z        PSCENC =       682.20839725
  Ewald energy   TEWEN  =    146152.69925313
  -Hartree energ DENC   =   -184730.16912085
  -exchange      EXHF   =         0.00000000
  -V(xc)+E(xc)   XCENC  =      -302.41472368
  PAW double counting   =     40215.12976209   -38661.46053918
  entropy T*S    EENTRO =         0.00000000
  eigenvalues    EBANDS =     -1765.33247919
  atomic energy  EATOM  =     38304.20813735
  Solvation  Ediel_sol  =         0.00000000
  ---------------------------------------------------
  free energy    TOTEN  =      -105.13131307 eV

  energy without entropy =     -105.13131307  energy(sigma->0) =     -105.13131307


--------------------------------------------------------------------------------------------------------




--------------------------------------- Iteration      1(   4)  ---------------------------------------


     EDDAV:  cpu time   13.9868: real time   13.9870
 BZINTS: Fermi energy:    0.520983;  405.000000 electrons
         Band energy:-0.176885E+04;  BLOECHL correction:   -0.025252
       DOS:  cpu time    0.0103: real time    0.0103
    --------------------------------------------
      LOOP:  cpu time   13.9971: real time   13.9973

 eigenvalue-minimisations  :  7216
 total energy-change (2. order) :-0.3520371E+01  (-0.3461351E+01)
 number of electron     405.0000081 magnetization 
 augmentation part      405.0000081 magnetization 

 Free energy of the ion-electron system (eV)
  ---------------------------------------------------
  alpha Z        PSCENC =       682.20839725
  Ewald energy   TEWEN  =    146152.69925313
  -Hartree energ DENC   =   -184730.16912085
  -exchange      EXHF   =         0.00000000
  -V(xc)+E(xc)   XCENC  =      -302.41472368
  PAW double counting   =     40215.12976209   -38661.46053918
  entropy T*S    EENTRO =         0.00000000
  eigenvalues    EBANDS =     -1768.85284975
  atomic energy  EATOM  =     38304.20813735
  Solvation  Ediel_sol  =         0.00000000
  ---------------------------------------------------
  free energy    TOTEN  =      -108.65168363 eV

  energy without entropy =     -108.65168363  energy(sigma->0) =     -108.65168363


--------------------------------------------------------------------------------------------------------




--------------------------------------- Iteration      1(   5)  ---------------------------------------


     EDDAV:  cpu time   14.5460: real time   14.5461
 BZINTS: Fermi energy:    0.517958;  405.000000 electrons
         Band energy:-0.176904E+04;  BLOECHL correction:   -0.025514
       DOS:  cpu time    0.0100: real time    0.0100
    --------------------------------------------
      LOOP:  cpu time   14.5560: real time   14.5561

 eigenvalue-minimisations  :  7568
 total energy-change (2. order) :-0.1870261E+00  (-0.1867803E+00)
 number of electron     405.0000081 magnetization 
 augmentation part      405.0000081 magnetization 

 Free energy of the ion-electron system (eV)
  ---------------------------------------------------
  alpha Z        PSCENC =       682.20839725
  Ewald energy   TEWEN  =    146152.69925313
  -Hartree energ DENC   =   -184730.16912085
  -exchange      EXHF   =         0.00000000
  -V(xc)+E(xc)   XCENC  =      -302.41472368
  PAW double counting   =     40215.12976209   -38661.46053918
  entropy T*S    EENTRO =         0.00000000
  eigenvalues    EBANDS =     -1769.03987584
  atomic energy  EATOM  =     38304.20813735
  Solvation  Ediel_sol  =         0.00000000
  ---------------------------------------------------
  free energy    TOTEN  =      -108.83870973 eV

  energy without entropy =     -108.83870973  energy(sigma->0) =     -108.83870973


--------------------------------------------------------------------------------------------------------




--------------------------------------- Iteration      1(   6)  ---------------------------------------


    EDDIAG:  cpu time    2.0047: real time    2.0049
  RMM-DIIS:  cpu time    8.1974: real time    8.1974
    ORTHCH:  cpu time    0.4381: real time    0.4381
 BZINTS: Fermi energy:    0.517919;  405.000000 electrons
         Band energy:-0.176904E+04;  BLOECHL correction:   -0.025513
       DOS:  cpu time    0.0100: real time    0.0100
    --------------------------------------------
      LOOP:  cpu time   10.6502: real time   10.6505

 eigenvalue-minimisations  :  7538
 total energy-change (2. order) :-0.2578179E-02  (-0.2581430E-02)
 number of electron     405.0000081 magnetization 
 augmentation part      405.0000081 magnetization 

 Free energy of the ion-electron system (eV)
  ---------------------------------------------------
  alpha Z        PSCENC =       682.20839725
  Ewald energy   TEWEN  =    146152.69925313
  -Hartree energ DENC   =   -184730.16912085
  -exchange      EXHF   =         0.00000000
  -V(xc)+E(xc)   XCENC  =      -302.41472368
  PAW double counting   =     40215.12976209   -38661.46053918
  entropy T*S    EENTRO =         0.00000000
  eigenvalues    EBANDS =     -1769.04245402
  atomic energy  EATOM  =     38304.20813735
  Solvation  Ediel_sol  =         0.00000000
  ---------------------------------------------------
  free energy    TOTEN  =      -108.84128791 eV

  energy without entropy =     -108.84128791  energy(sigma->0) =     -108.84128791


--------------------------------------------------------------------------------------------------------




--------------------------------------- Iteration      1(   7)  ---------------------------------------


    EDDIAG:  cpu time    2.0082: real time    2.0083
  RMM-DIIS:  cpu time    9.9232: real time    9.9232
    ORTHCH:  cpu time    0.4378: real time    0.4378
 BZINTS: Fermi energy:    0.517901;  405.000000 electrons
         Band energy:-0.176904E+04;  BLOECHL correction:   -0.025512
       DOS:  cpu time    0.0102: real time    0.0102
    --------------------------------------------
      LOOP:  cpu time   12.3795: real time   12.3796

 eigenvalue-minimisations  :  9427
 total energy-change (2. order) :-0.1053046E-02  (-0.1047986E-02)
 number of electron     405.0000081 magnetization 
 augmentation part      405.0000081 magnetization 

 Free energy of the ion-electron system (eV)
  ---------------------------------------------------
  alpha Z        PSCENC =       682.20839725
  Ewald energy   TEWEN  =    146152.69925313
  -Hartree energ DENC   =   -184730.16912085
  -exchange      EXHF   =         0.00000000
  -V(xc)+E(xc)   XCENC  =      -302.41472368
  PAW double counting   =     40215.12976209   -38661.46053918
  entropy T*S    EENTRO =         0.00000000
  eigenvalues    EBANDS =     -1769.04350707
  atomic energy  EATOM  =     38304.20813735
  Solvation  Ediel_sol  =         0.00000000
  ---------------------------------------------------
  free energy    TOTEN  =      -108.84234095 eV

  energy without entropy =     -108.84234095  energy(sigma->0) =     -108.84234095


--------------------------------------------------------------------------------------------------------




--------------------------------------- Iteration      1(   8)  ---------------------------------------


    EDDIAG:  cpu time    2.0017: real time    2.0018
  RMM-DIIS:  cpu time    8.7522: real time    8.7522
    ORTHCH:  cpu time    0.4376: real time    0.4376
 BZINTS: Fermi energy:    0.517898;  405.000000 electrons
         Band energy:-0.176904E+04;  BLOECHL correction:   -0.025512
       DOS:  cpu time    0.0100: real time    0.0100
    --------------------------------------------
      LOOP:  cpu time   11.2015: real time   11.2017

 eigenvalue-minimisations  :  7973
 total energy-change (2. order) :-0.2434558E-03  (-0.2341641E-03)
 number of electron     405.0000081 magnetization 
 augmentation part      405.0000081 magnetization 

 Free energy of the ion-electron system (eV)
  ---------------------------------------------------
  alpha Z        PSCENC =       682.20839725
  Ewald energy   TEWEN  =    146152.69925313
  -Hartree energ DENC   =   -184730.16912085
  -exchange      EXHF   =         0.00000000
  -V(xc)+E(xc)   XCENC  =      -302.41472368
  PAW double counting   =     40215.12976209   -38661.46053918
  entropy T*S    EENTRO =         0.00000000
  eigenvalues    EBANDS =     -1769.04375053
  atomic energy  EATOM  =     38304.20813735
  Solvation  Ediel_sol  =         0.00000000
  ---------------------------------------------------
  free energy    TOTEN  =      -108.84258441 eV

  energy without entropy =     -108.84258441  energy(sigma->0) =     -108.84258441


--------------------------------------------------------------------------------------------------------




--------------------------------------- Iteration      1(   9)  ---------------------------------------


    EDDIAG:  cpu time    2.0072: real time    2.0101
  RMM-DIIS:  cpu time    7.6274: real time    7.6274
    ORTHCH:  cpu time    0.4371: real time    0.4371
 BZINTS: Fermi energy:    0.517896;  405.000000 electrons
         Band energy:-0.176904E+04;  BLOECHL correction:   -0.025512
       DOS:  cpu time    0.0098: real time    0.0098
    --------------------------------------------
      LOOP:  cpu time   10.0815: real time   10.0844

 eigenvalue-minimisations  :  6830
 total energy-change (2. order) :-0.1012591E-03  (-0.9895271E-04)
 number of electron     405.0000081 magnetization 
 augmentation part      405.0000081 magnetization 

 Free energy of the ion-electron system (eV)
  ---------------------------------------------------
  alpha Z        PSCENC =       682.20839725
  Ewald energy   TEWEN  =    146152.69925313
  -Hartree energ DENC   =   -184730.16912085
  -exchange      EXHF   =         0.00000000
  -V(xc)+E(xc)   XCENC  =      -302.41472368
  PAW double counting   =     40215.12976209   -38661.46053918
  entropy T*S    EENTRO =         0.00000000
  eigenvalues    EBANDS =     -1769.04385178
  atomic energy  EATOM  =     38304.20813735
  Solvation  Ediel_sol  =         0.00000000
  ---------------------------------------------------
  free energy    TOTEN  =      -108.84268567 eV

  energy without entropy =     -108.84268567  energy(sigma->0) =     -108.84268567


--------------------------------------------------------------------------------------------------------




--------------------------------------- Iteration      1(  10)  ---------------------------------------


    EDDIAG:  cpu time    2.0088: real time    2.0088
  RMM-DIIS:  cpu time    7.0009: real time    7.0009
    ORTHCH:  cpu time    0.4377: real time    0.4377
 BZINTS: Fermi energy:    0.517895;  405.000000 electrons
         Band energy:-0.176904E+04;  BLOECHL correction:   -0.025512
       DOS:  cpu time    0.0103: real time    0.0103
    --------------------------------------------
      LOOP:  cpu time    9.4576: real time    9.4577

 eigenvalue-minimisations  :  6291
 total energy-change (2. order) :-0.4513047E-04  (-0.4444167E-04)
 number of electron     405.0000081 magnetization 
 augmentation part      405.0000081 magnetization 

 Free energy of the ion-electron system (eV)
  ---------------------------------------------------
  alpha Z        PSCENC =       682.20839725
  Ewald energy   TEWEN  =    146152.69925313
  -Hartree energ DENC   =   -184730.16912085
  -exchange      EXHF   =         0.00000000
  -V(xc)+E(xc)   XCENC  =      -302.41472368
  PAW double counting   =     40215.12976209   -38661.46053918
  entropy T*S    EENTRO =         0.00000000
  eigenvalues    EBANDS =     -1769.04389691
  atomic energy  EATOM  =     38304.20813735
  Solvation  Ediel_sol  =         0.00000000
  ---------------------------------------------------
  free energy    TOTEN  =      -108.84273080 eV

  energy without entropy =     -108.84273080  energy(sigma->0) =     -108.84273080


--------------------------------------------------------------------------------------------------------




--------------------------------------- Iteration      1(  11)  ---------------------------------------


    EDDIAG:  cpu time    2.0098: real time    2.0098
  RMM-DIIS:  cpu time    6.4223: real time    6.4223
    ORTHCH:  cpu time    0.4378: real time    0.4378
 BZINTS: Fermi energy:    0.517895;  405.000000 electrons
         Band energy:-0.176904E+04;  BLOECHL correction:   -0.025512
       DOS:  cpu time    0.0102: real time    0.0102
    --------------------------------------------
      LOOP:  cpu time    8.8800: real time    8.8801

 eigenvalue-minimisations  :  5691
 total energy-change (2. order) :-0.2121326E-04  (-0.2150917E-04)
 number of electron     405.0000081 magnetization 
 augmentation part      405.0000081 magnetization 

 Free energy of the ion-electron system (eV)
  ---------------------------------------------------
  alpha Z        PSCENC =       682.20839725
  Ewald energy   TEWEN  =    146152.69925313
  -Hartree energ DENC   =   -184730.16912085
  -exchange      EXHF   =         0.00000000
  -V(xc)+E(xc)   XCENC  =      -302.41472368
  PAW double counting   =     40215.12976209   -38661.46053918
  entropy T*S    EENTRO =         0.00000000
  eigenvalues    EBANDS =     -1769.04391813
  atomic energy  EATOM  =     38304.20813735
  Solvation  Ediel_sol  =         0.00000000
  ---------------------------------------------------
  free energy    TOTEN  =      -108.84275201 eV

  energy without entropy =     -108.84275201  energy(sigma->0) =     -108.84275201


--------------------------------------------------------------------------------------------------------




--------------------------------------- Iteration      1(  12)  ---------------------------------------


    EDDIAG:  cpu time    2.0106: real time    2.0106
  RMM-DIIS:  cpu time    5.8832: real time    5.8832
    ORTHCH:  cpu time    0.4373: real time    0.4373
 BZINTS: Fermi energy:    0.517895;  405.000000 electrons
         Band energy:-0.176904E+04;  BLOECHL correction:   -0.025512
       DOS:  cpu time    0.0100: real time    0.0100
    --------------------------------------------
      LOOP:  cpu time    8.3411: real time    8.3412

 eigenvalue-minimisations  :  5268
 total energy-change (2. order) :-0.1081557E-04  (-0.1114466E-04)
 number of electron     405.0000081 magnetization 
 augmentation part      405.0000081 magnetization 

 Free energy of the ion-electron system (eV)
  ---------------------------------------------------
  alpha Z        PSCENC =       682.20839725
  Ewald energy   TEWEN  =    146152.69925313
  -Hartree energ DENC   =   -184730.16912085
  -exchange      EXHF   =         0.00000000
  -V(xc)+E(xc)   XCENC  =      -302.41472368
  PAW double counting   =     40215.12976209   -38661.46053918
  entropy T*S    EENTRO =         0.00000000
  eigenvalues    EBANDS =     -1769.04392894
  atomic energy  EATOM  =     38304.20813735
  Solvation  Ediel_sol  =         0.00000000
  ---------------------------------------------------
  free energy    TOTEN  =      -108.84276283 eV

  energy without entropy =     -108.84276283  energy(sigma->0) =     -108.84276283


--------------------------------------------------------------------------------------------------------




--------------------------------------- Iteration      1(  13)  ---------------------------------------


    EDDIAG:  cpu time    2.0088: real time    2.0089
  RMM-DIIS:  cpu time    5.6697: real time    5.6698
    ORTHCH:  cpu time    0.4375: real time    0.4375
 BZINTS: Fermi energy:    0.517895;  405.000000 electrons
         Band energy:-0.176904E+04;  BLOECHL correction:   -0.025512
       DOS:  cpu time    0.0102: real time    0.0102
    --------------------------------------------
      LOOP:  cpu time    8.1263: real time    8.1264

 eigenvalue-minimisations  :  4833
 total energy-change (2. order) :-0.5165755E-05  (-0.5741141E-05)
 number of electron     405.0000081 magnetization 
 augmentation part      405.0000081 magnetization 

 Free energy of the ion-electron system (eV)
  ---------------------------------------------------
  alpha Z        PSCENC =       682.20839725
  Ewald energy   TEWEN  =    146152.69925313
  -Hartree energ DENC   =   -184730.16912085
  -exchange      EXHF   =         0.00000000
  -V(xc)+E(xc)   XCENC  =      -302.41472368
  PAW double counting   =     40215.12976209   -38661.46053918
  entropy T*S    EENTRO =         0.00000000
  eigenvalues    EBANDS =     -1769.04393411
  atomic energy  EATOM  =     38304.20813735
  Solvation  Ediel_sol  =         0.00000000
  ---------------------------------------------------
  free energy    TOTEN  =      -108.84276799 eV

  energy without entropy =     -108.84276799  energy(sigma->0) =     -108.84276799


--------------------------------------------------------------------------------------------------------




 average (electrostatic) potential at core
  the test charge radii are     1.1249  1.0703  0.7215  0.5201
  (the norm of the test charge is              1.0000)
       1 -78.3800       2 -78.3625       3 -78.3624       4 -78.3625       5 -78.3586
       6 -78.3622       7 -78.3624       8 -78.3622       9 -78.3780      10 -78.6059
      11 -78.5784      12 -78.6057      13 -78.5784      14 -78.5780      15 -78.5810
      16 -78.6057      17 -78.5810      18 -78.5811      19 -78.5723      20 -78.8241
      21 -78.8237      22 -78.5635      23 -78.8237      24 -78.5631      25 -78.5723
      26 -78.5723      27 -78.5635      28 -78.3653      29 -78.4694      30 -78.4693
      31 -78.4694      32 -78.4690      33 -78.4693      34 -78.4690      35 -78.3433
      36 -89.3317      37 -77.0085      38 -41.2850
 
 
 
 E-fermi :   0.5179     XC(G=0):  -5.2786     alpha+bet : -5.0198

 Fermi energy:         0.5178947469

 k-point     1 :       0.0000    0.0000    0.0000
  band No.  band energies     occupation 
      1     -55.4617      2.00000
      2     -32.0247      2.00000
      3     -31.3369      2.00000
      4     -31.3369      2.00000
      5     -20.3475      2.00000
      6      -8.7974      2.00000
      7      -6.5942      2.00000
      8      -5.7371      2.00000
      9      -5.4815      2.00000
     10      -5.3667      2.00000
     11      -5.3659      2.00000
     12      -5.3658      2.00000
     13      -5.3303      2.00000
     14      -5.3303      2.00000
     15      -5.3269      2.00000
     16      -5.3133      2.00000
     17      -5.2998      2.00000
     18      -5.2859      2.00000
     19      -5.2859      2.00000
     20      -5.2729      2.00000
     21      -5.2720      2.00000
     22      -5.2719      2.00000
     23      -5.1660      2.00000
     24      -5.1659      2.00000
     25      -5.1367      2.00000
     26      -5.1116      2.00000
     27      -5.1082      2.00000
     28      -5.1081      2.00000
     29      -4.9668      2.00000
     30      -4.9451      2.00000
     31      -4.9408      2.00000
     32      -4.9408      2.00000
     33      -4.9270      2.00000
     34      -4.9270      2.00000
     35      -4.9064      2.00000
     36      -4.8912      2.00000
     37      -4.8912      2.00000
     38      -4.8909      2.00000
     39      -4.8677      2.00000
     40      -4.8676      2.00000
     41      -4.8161      2.00000
     42      -4.8046      2.00000
     43      -4.8046      2.00000
     44      -4.7900      2.00000
     45      -4.7493      2.00000
     46      -4.7492      2.00000
     47      -4.7260      2.00000
     48      -4.7259      2.00000
     49      -4.5489      2.00000
     50      -4.5489      2.00000
     51      -4.5461      2.00000
     52      -4.5349      2.00000
     53      -4.5331      2.00000
     54      -4.5331      2.00000
     55      -4.5181      2.00000
     56      -4.5180      2.00000
     57      -4.4406      2.00000
     58      -4.4406      2.00000
     59      -4.3774      2.00000
     60      -4.3701      2.00000
     61      -4.3555      2.00000
     62      -4.3446      2.00000
     63      -4.2073      2.00000
     64      -4.1784      2.00000
     65      -4.1784      2.00000
     66      -4.1626      2.00000
     67      -4.1445      2.00000
     68      -4.1426      2.00000
     69      -4.1426      2.00000
     70      -4.1287      2.00000
     71      -4.1287      2.00000
     72      -4.0843      2.00000
     73      -4.0843      2.00000
     74      -3.9980      2.00000
     75      -3.9980      2.00000
     76      -3.9936      2.00000
     77      -3.9936      2.00000
     78      -3.9931      2.00000
     79      -3.9908      2.00000
     80      -3.9768      2.00000
     81      -3.9768      2.00000
     82      -3.9507      2.00000
     83      -3.9458      2.00000
     84      -3.9457      2.00000
     85      -3.9389      2.00000
     86      -3.9279      2.00000
     87      -3.9278      2.00000
     88      -3.8763      2.00000
     89      -3.8763      2.00000
     90      -3.8629      2.00000
     91      -3.8629      2.00000
     92      -3.8620      2.00000
     93      -3.8089      2.00000
     94      -3.8089      2.00000
     95      -3.7728      2.00000
     96      -3.7651      2.00000
     97      -3.7651      2.00000
     98      -3.7524      2.00000
     99      -3.7524      2.00000
    100      -3.6828      2.00000
    101      -3.6704      2.00000
    102      -3.6704      2.00000
    103      -3.6484      2.00000
    104      -3.6484      2.00000
    105      -3.5703      2.00000
    106      -3.5703      2.00000
    107      -3.4755      2.00000
[...]
  0.000   0.000   0.000   0.000   0.000   0.000   0.000   0.000   0.000   0.000   0.000   0.000   0.000   0.000   0.000   0.000
  0.000   0.000   0.000   0.000   0.000   0.000   0.000   0.000   0.000   0.000   0.000   0.000   0.000   0.000   0.000   0.000
  0.000   0.000   0.000   0.000   0.000   0.000   0.000   0.000   0.000   0.000   1.000   0.000   0.000   0.000   0.000   0.000
  0.000   0.000   0.000   0.000   0.000   0.000   0.000   0.000   0.000   0.000   0.000   0.000   0.000   0.000   0.000   0.000
  0.000   0.000   0.000   0.000   0.000   0.000   0.000   0.000   0.000   0.000   0.000   0.000   0.000   0.000   0.000   0.000
  0.000   0.000   0.000   0.000   0.000   0.000   0.000   0.000   0.000   0.000   0.000   0.000   0.000   0.000   0.000   0.000
  0.000   0.000   0.000   0.000   0.000   0.000   0.000   0.000   0.000   0.000   0.000   0.000   0.000   0.000   0.000   0.000
  0.000   0.000   0.000   0.000   0.000   0.000   0.000   0.000   0.000   0.000   0.000   0.000   0.000   0.000   0.000   0.000
  0.000   0.000   0.000   0.000   0.000   0.000   0.000   0.000   0.000   0.000   0.000   0.000   0.000   0.000   0.000   0.000
  0.000   0.000   0.000   0.000   0.000   0.000   0.000   0.000   0.000   0.000   0.000   0.000   0.000   0.000   0.000   0.000


------------------------ aborting loop because EDIFF is reached ----------------------------------------





 total charge

# of ion       s       p       d       tot
------------------------------------------
    1        0.422   0.200   9.178   9.800
    2        0.416   0.204   9.177   9.797
    3        0.416   0.204   9.177   9.797
    4        0.416   0.204   9.177   9.797
    5        0.417   0.202   9.177   9.797
    6        0.416   0.204   9.177   9.797
    7        0.416   0.204   9.177   9.797
    8        0.416   0.204   9.177   9.797
    9        0.415   0.204   9.177   9.796
   10        0.410   0.268   9.164   9.842
   11        0.404   0.270   9.168   9.842
   12        0.410   0.268   9.164   9.842
   13        0.404   0.270   9.168   9.842
   14        0.404   0.270   9.168   9.842
   15        0.402   0.269   9.165   9.835
   16        0.410   0.268   9.164   9.842
   17        0.402   0.269   9.165   9.835
   18        0.402   0.269   9.165   9.835
   19        0.404   0.263   9.167   9.835
   20        0.444   0.302   9.131   9.877
   21        0.444   0.302   9.131   9.877
   22        0.392   0.273   9.164   9.828
   23        0.444   0.302   9.131   9.877
   24        0.392   0.273   9.164   9.828
   25        0.404   0.263   9.167   9.835
   26        0.404   0.263   9.167   9.835
   27        0.392   0.273   9.164   9.828
   28        0.418   0.202   9.171   9.792
   29        0.436   0.221   9.158   9.816
   30        0.436   0.221   9.158   9.816
   31        0.436   0.221   9.158   9.816
   32        0.436   0.221   9.158   9.816
   33        0.436   0.221   9.158   9.816
   34        0.436   0.221   9.158   9.816
   35        0.410   0.206   9.172   9.788
   36        2.197   6.014   2.298  10.509
   37        1.563   3.555   0.000   5.119
   38        0.605   0.124   0.000   0.729
--------------------------------------------------
tot         18.932  18.192 323.060 360.185
 
    CHARGE:  cpu time    0.4567: real time    0.4567
    FORLOC:  cpu time    0.0212: real time    0.0212
    FORNL :  cpu time    2.0881: real time    2.0882
    STRESS:  cpu time    6.2843: real time    6.2844
    FORCOR:  cpu time    0.0739: real time    0.0739
    FORHAR:  cpu time    0.0319: real time    0.0320
    OFIELD:  cpu time    0.0003: real time    0.0003

  FORCE on cell =-STRESS in cart. coord.  units (eV):
  Direction    XX          YY          ZZ          XY          YZ          ZX
  --------------------------------------------------------------------------------------
  Alpha Z   682.20840   682.20840   682.20840
  Ewald  169268.75344169268.75361************     0.00006     0.00001     0.00005
  Hartree179602.41828179602.41835************     0.00002     0.00000     0.00002
  E(xc)   -2121.41039 -2121.41041 -2126.19224     0.00002     0.00000     0.00000
  Local  ************************360243.33817     0.00048    -0.00007    -0.00019
  n-local  -355.20178  -341.99955  -348.21254     8.86356    -0.68331     0.59799
  augment  3245.53028  3245.53050  3254.17053    -0.00019    -0.00001     0.00000
  Kinetic  5164.63368  5170.66874  5147.27212     5.09703     1.09432    -0.55761
  Fock        0.00000     0.00000     0.00000     0.00000     0.00000     0.00000
  -------------------------------------------------------------------------------------
  Total      -6.49621    -6.49621    -0.19554    -0.00000    -0.00000    -0.00000
  in kB      -6.15886    -6.15886    -0.18539    -0.00000    -0.00000    -0.00000
  external pressure =       -4.17 kB  Pullay stress =        0.00 kB


 VOLUME and BASIS-vectors are now :
 -----------------------------------------------------------------------------
  energy-cutoff  :      500.00
  volume of cell :     1689.94
      direct lattice vectors                 reciprocal lattice vectors
     8.791366577  0.000000000  0.000000000     0.113747958 -0.065672414  0.000000000
     4.395683289  7.613546790  0.000000000     0.000000000  0.131344829  0.000000000
     0.000000000  0.000000000 25.247987336     0.000000000  0.000000000  0.039607117

  length of vectors
     8.791366577  8.791366577 25.247987336     0.131344829  0.131344829  0.039607117


 FORCES acting on ions
    electron-ion (+dipol)            ewald-force                    non-local-force                 convergence-correction
 -----------------------------------------------------------------------------------------------
   0.461E-04 -.281E-04 0.278E+04   -.954E-04 0.593E-04 -.277E+04   0.938E-17 0.201E-17 -.188E+01   -.129E-03 -.181E-03 -.819E-01
   0.364E+00 0.969E+00 0.278E+04   -.389E+00 -.108E+01 -.278E+04   0.544E-02 0.128E+00 -.161E+01   0.198E-01 -.115E-01 -.103E+00
   -.364E+00 0.969E+00 0.278E+04   0.389E+00 -.108E+01 -.278E+04   -.544E-02 0.128E+00 -.161E+01   -.203E-01 -.952E-02 -.102E+00
   0.102E+01 -.170E+00 0.278E+04   -.113E+01 0.203E+00 -.278E+04   0.113E+00 -.592E-01 -.161E+01   0.144E-03 0.231E-01 -.103E+00
   -.413E-05 -.179E-04 0.278E+04   0.980E-04 -.199E-05 -.278E+04   -.964E-18 0.431E-18 -.144E+01   0.630E-02 0.385E-02 -.592E-02
   -.102E+01 -.170E+00 0.278E+04   0.113E+01 0.203E+00 -.278E+04   -.113E+00 -.592E-01 -.161E+01   -.161E-02 0.240E-01 -.102E+00
   0.657E+00 -.799E+00 0.278E+04   -.741E+00 0.877E+00 -.278E+04   0.108E+00 -.686E-01 -.161E+01   -.180E-01 -.123E-01 -.102E+00
   -.657E+00 -.799E+00 0.278E+04   0.741E+00 0.877E+00 -.278E+04   -.108E+00 -.686E-01 -.161E+01   0.196E-01 -.134E-01 -.102E+00
   0.369E-04 -.125E-04 0.278E+04   0.792E-04 -.643E-04 -.277E+04   -.107E-16 -.613E-17 -.177E+01   -.670E-02 -.346E-02 -.898E-01
   0.651E+01 0.376E+01 0.983E+03   -.601E+01 -.347E+01 -.982E+03   -.475E+00 -.274E+00 -.687E+00   -.339E-01 -.196E-01 0.931E-01
   -.282E-04 0.101E+02 0.992E+03   0.411E-04 -.103E+02 -.991E+03   0.919E-12 0.140E+00 -.335E+00   0.640E-02 0.116E-01 0.686E-01
   -.651E+01 0.376E+01 0.983E+03   0.601E+01 -.347E+01 -.982E+03   0.475E+00 -.274E+00 -.687E+00   0.320E-01 -.181E-01 0.937E-01
   0.873E+01 -.504E+01 0.992E+03   -.892E+01 0.515E+01 -.991E+03   0.121E+00 -.699E-01 -.335E+00   0.131E-01 -.212E-03 0.686E-01
   -.873E+01 -.504E+01 0.992E+03   0.892E+01 0.515E+01 -.991E+03   -.121E+00 -.699E-01 -.335E+00   -.207E-02 -.947E-03 0.687E-01
   0.164E-04 -.255E+01 0.978E+03   -.109E-03 0.246E+01 -.977E+03   0.316E-12 0.480E-01 -.690E+00   -.203E-02 0.407E-01 0.102E+00
   -.749E-05 -.752E+01 0.983E+03   0.207E-04 0.694E+01 -.982E+03   0.360E-11 0.549E+00 -.687E+00   0.335E-03 0.367E-01 0.937E-01
   -.221E+01 0.128E+01 0.978E+03   0.213E+01 -.123E+01 -.977E+03   0.416E-01 -.240E-01 -.690E+00   0.342E-01 -.221E-01 0.102E+00
   0.221E+01 0.128E+01 0.978E+03   -.213E+01 -.123E+01 -.977E+03   -.416E-01 -.240E-01 -.690E+00   -.344E-01 -.199E-01 0.103E+00
   0.405E-04 0.522E+00 -.853E+03   -.132E-03 -.591E+00 0.852E+03   0.296E-12 0.451E-01 0.858E+00   -.190E-02 0.115E-01 0.236E+00
   0.463E+02 0.267E+02 -.776E+03   -.452E+02 -.261E+02 0.777E+03   -.118E+01 -.684E+00 -.857E+00   0.196E-01 0.113E-01 0.190E+00
   -.463E+02 0.267E+02 -.776E+03   0.452E+02 -.261E+02 0.777E+03   0.118E+01 -.684E+00 -.857E+00   -.880E-02 0.126E-01 0.190E+00
   0.201E+02 -.116E+02 -.847E+03   -.201E+02 0.116E+02 0.846E+03   0.174E+00 -.101E+00 0.607E+00   -.108E+00 0.627E-01 0.202E+00
   -.580E-04 -.534E+02 -.776E+03   0.502E-04 0.522E+02 0.777E+03   0.898E-11 0.137E+01 -.857E+00   0.682E-02 -.133E-01 0.190E+00
   -.201E+02 -.116E+02 -.847E+03   0.201E+02 0.116E+02 0.846E+03   -.174E+00 -.101E+00 0.607E+00   0.107E+00 0.617E-01 0.203E+00
   -.452E+00 -.261E+00 -.853E+03   0.512E+00 0.296E+00 0.852E+03   -.391E-01 -.226E-01 0.858E+00   -.890E-02 -.529E-02 0.236E+00
   0.452E+00 -.261E+00 -.853E+03   -.512E+00 0.296E+00 0.852E+03   0.391E-01 -.226E-01 0.858E+00   0.867E-02 -.750E-02 0.236E+00
   0.208E-04 0.232E+02 -.847E+03   0.109E-03 -.233E+02 0.846E+03   0.132E-11 0.201E+00 0.607E+00   -.463E-03 -.125E+00 0.202E+00
   0.545E-04 -.360E-04 -.268E+04   -.118E-03 0.787E-04 0.268E+04   0.568E-17 -.722E-17 0.141E+01   -.163E-03 -.232E-03 0.148E+00
   0.548E+02 0.894E+02 -.268E+04   -.540E+02 -.885E+02 0.268E+04   -.847E+00 -.101E+01 0.163E+01   -.215E-01 -.697E-01 0.152E+00
   -.548E+02 0.894E+02 -.268E+04   0.540E+02 -.885E+02 0.268E+04   0.847E+00 -.101E+01 0.163E+01   0.211E-01 -.674E-01 0.152E+00
   0.105E+03 0.278E+01 -.268E+04   -.104E+03 -.257E+01 0.268E+04   -.130E+01 -.228E+00 0.163E+01   -.708E-01 0.164E-01 0.152E+00
   -.105E+03 0.278E+01 -.268E+04   0.104E+03 -.257E+01 0.268E+04   0.130E+01 -.228E+00 0.163E+01   0.689E-01 0.172E-01 0.151E+00
   0.500E+02 -.921E+02 -.268E+04   -.496E+02 0.910E+02 0.268E+04   -.452E+00 0.124E+01 0.163E+01   -.474E-01 0.526E-01 0.152E+00
   -.500E+02 -.921E+02 -.268E+04   0.496E+02 0.910E+02 0.268E+04   0.452E+00 0.124E+01 0.163E+01   0.490E-01 0.511E-01 0.151E+00
   0.195E-04 -.860E-05 -.269E+04   0.107E-03 -.674E-04 0.269E+04   0.359E-17 -.862E-18 0.172E+01   -.681E-02 -.351E-02 0.113E+00
   0.268E-03 -.154E-03 -.276E+04   0.123E-03 0.141E-04 0.277E+04   -.199E-17 0.195E-18 -.318E+01   0.795E-02 0.485E-02 0.234E+00
   0.215E-03 -.975E-04 -.187E+04   0.254E-04 0.314E-06 0.185E+04   0.532E-18 -.352E-18 0.193E+02   0.399E-02 0.244E-02 0.310E-01
   0.851E-05 -.133E-04 -.358E+03   0.181E-05 0.641E-08 0.367E+03   -.598E-19 0.437E-19 -.850E+01   0.216E-03 0.133E-03 -.530E-02
 -----------------------------------------------------------------------------------------------
   0.890E-03 -.917E-03 -.566E+01   0.177E-12 0.485E-13 -.585E-11   0.835E-15 0.443E-15 0.244E+01   0.308E-01 0.213E-01 0.332E+01
 
 
 POSITION                                       TOTAL-FORCE (eV/Angst)
 -----------------------------------------------------------------------------------
      0.00000      0.00000      5.28219         0.000000      0.000000     -0.034956
      2.93046      0.00000      5.28219         0.000577      0.005725      0.037791
      5.86091      0.00000      5.28219        -0.000577      0.005725      0.037791
      1.46523      2.53785      5.28219         0.005246     -0.002363      0.037791
      4.39568      2.53785      5.28219         0.000000      0.000000      0.028203
      7.32614      2.53785      5.28219        -0.005246     -0.002363      0.037791
      2.93046      5.07570      5.28219         0.004670     -0.003362      0.037791
      5.86091      5.07570      5.28219        -0.004670     -0.003362      0.037791
      8.79137      5.07570      5.28219         0.000000      0.000000      0.015350
      1.46523      0.84595      7.67490        -0.001655     -0.000956     -0.040159
      4.39568      0.84595      7.67490        -0.000000     -0.069456     -0.051421
      7.32614      0.84595      7.67490         0.001655     -0.000956     -0.040159
      2.93046      3.38380      7.67490        -0.060150      0.034728     -0.051421
      5.86091      3.38380      7.67490         0.060150      0.034728     -0.051421
      8.79137      3.38380      7.67490        -0.000000     -0.010006      0.049912
      4.39568      5.92165      7.67490         0.000000      0.001911     -0.040159
      7.32614      5.92165      7.67490        -0.008665      0.005003      0.049912
     10.25659      5.92165      7.67490         0.008665      0.005003      0.049912
      8.79137      1.69211     10.06133        -0.000000     -0.013089     -0.006571
      2.92756      1.69022     10.03254        -0.099712     -0.057569     -0.132346
      5.86381      1.69022     10.03254         0.099712     -0.057569     -0.132346
     10.25459      4.23091     10.07004         0.048774     -0.028160      0.013592
      4.39568      4.23310     10.03254         0.000000      0.115138     -0.132346
      7.32815      4.23091     10.07004        -0.048774     -0.028160      0.013592
     11.72164      6.76749     10.06133         0.011336      0.006545     -0.006571
      5.86110      6.76749     10.06133        -0.011336      0.006545     -0.006571
      8.79137      6.76528     10.07004         0.000000      0.056319      0.013592
      0.00000      0.00000     12.45237         0.000000      0.000000     -0.010976
      2.94700      0.02679     12.48745        -0.111664     -0.193613     -0.212722
      5.84437      0.02679     12.48745         0.111664     -0.193613     -0.212722
      1.49670      2.53878     12.48745        -0.223506      0.000103     -0.212722
      7.29466      2.53878     12.48745         0.223506      0.000103     -0.212722
      2.94539      5.04797     12.48745        -0.111842      0.193511     -0.212722
      5.84598      5.04797     12.48745         0.111842      0.193511     -0.212722
      8.79137      5.07570     12.46721         0.000000      0.000000      0.027108
      4.39568      2.53785     12.28926         0.000000      0.000000      1.524324
      4.39568      2.53785     14.15049         0.000000      0.000000      0.000152
      4.39568      2.53785     15.11769         0.000000      0.000000      0.001365
 -----------------------------------------------------------------------------------
    total drift:                                0.031656      0.020373      0.093602


--------------------------------------------------------------------------------------------------------



  FREE ENERGIE OF THE ION-ELECTRON SYSTEM (eV)
  ---------------------------------------------------
  free  energy   TOTEN  =      -108.84276799 eV

  energy  without entropy=     -108.84276799  energy(sigma->0) =     -108.84276799
 


--------------------------------------------------------------------------------------------------------


    POTLOK:  cpu time    0.0652: real time    0.0652


--------------------------------------------------------------------------------------------------------


 stress matrix after NEB project (eV)
     -6.49621     -0.00000     -0.00000
     -0.00000     -6.49621     -0.00000
     -0.00000     -0.00000     -0.19554
  FORCES: max atom, RMS     0.001365    0.000223
  FORCE total and by dimension    0.001373    0.001365
  Stress total and by dimension    9.189113    6.496213
     LOOP+:  cpu time  151.9293: real time  151.9382
 -----------------------------------------------------------------------------
|                                                                             |
|           W    W    AA    RRRRR   N    N  II  N    N   GGGG   !!!           |
|           W    W   A  A   R    R  NN   N  II  NN   N  G    G  !!!           |
|           W    W  A    A  R    R  N N  N  II  N N  N  G       !!!           |
|           W WW W  AAAAAA  RRRRR   N  N N  II  N  N N  G  GGG   !            |
|           WW  WW  A    A  R   R   N   NN  II  N   NN  G    G                |
|           W    W  A    A  R    R  N    N  II  N    N   GGGG   !!!           |
|                                                                             |
|     Tetrahedron method does not include variations of the Fermi             |
|     occupations, so forces and stress will be inaccurate. We suggest        |
|     using a different smearing scheme ISMEAR = 1 or 2 for metals in         |
|     relaxations.                                                            |
|                                                                             |
 -----------------------------------------------------------------------------

    4ORBIT:  cpu time    0.0000: real time    0.0000



 total charge

# of ion       s       p       d       tot
------------------------------------------
    1        0.422   0.200   9.178   9.800
    2        0.416   0.204   9.177   9.797
    3        0.416   0.204   9.177   9.797
    4        0.416   0.204   9.177   9.797
    5        0.417   0.202   9.177   9.797
    6        0.416   0.204   9.177   9.797
    7        0.416   0.204   9.177   9.797
    8        0.416   0.204   9.177   9.797
    9        0.415   0.204   9.177   9.796
   10        0.410   0.268   9.164   9.842
   11        0.404   0.270   9.168   9.842
   12        0.410   0.268   9.164   9.842
   13        0.404   0.270   9.168   9.842
   14        0.404   0.270   9.168   9.842
   15        0.402   0.269   9.165   9.835
   16        0.410   0.268   9.164   9.842
   17        0.402   0.269   9.165   9.835
   18        0.402   0.269   9.165   9.835
   19        0.404   0.263   9.167   9.835
   20        0.444   0.302   9.131   9.877
   21        0.444   0.302   9.131   9.877
   22        0.392   0.273   9.164   9.828
   23        0.444   0.302   9.131   9.877
   24        0.392   0.273   9.164   9.828
   25        0.404   0.263   9.167   9.835
   26        0.404   0.263   9.167   9.835
   27        0.392   0.273   9.164   9.828
   28        0.418   0.202   9.171   9.792
   29        0.436   0.221   9.158   9.816
   30        0.436   0.221   9.158   9.816
   31        0.436   0.221   9.158   9.816
   32        0.436   0.221   9.158   9.816
   33        0.436   0.221   9.158   9.816
   34        0.436   0.221   9.158   9.816
   35        0.410   0.206   9.172   9.788
   36        2.197   6.014   2.298  10.509
   37        1.563   3.555   0.000   5.119
   38        0.605   0.124   0.000   0.729
--------------------------------------------------
tot         18.932  18.192 323.060 360.185
 
 BZINTS: Fermi energy:    0.517895;  405.000000 electrons
         Band energy:-0.176904E+04;  BLOECHL correction:   -0.025512

 total amount of memory used by VASP MPI-rank0   188832. kBytes
=======================================================================

   base      :      30000. kBytes
   nonlr-proj:      15216. kBytes
   fftplans  :       6755. kBytes
   grid      :      24615. kBytes
   one-center:        590. kBytes
   wavefun   :     111656. kBytes
 
  
  
 General timing and accounting informations for this job:
 ========================================================
  
                  Total CPU time used (sec):      160.383
                            User time (sec):      155.710
                          System time (sec):        4.673
                         Elapsed time (sec):      160.716
  
                   Maximum memory used (kb):      445416.
                   Average memory used (kb):          N/A
  
                          Minor page faults:       109522
                          Major page faults:            0
                 Voluntary context switches:         4137
