PROCAR new format
# of k-points:   10         # of bands:  256         # of ions:   38

 k-point     1 :    0.00000000 0.00000000 0.00000000     weight = 0.01562500

band     1 # energy  -55.46171568 # occ.  2.00000000
 
ion      s      p      d    tot
    1  0.000  0.000  0.000  0.000
    2  0.000  0.000  0.000  0.000
    3  0.000  0.000  0.000  0.000
    4  0.000  0.000  0.000  0.000
    5  0.000  0.000  0.000  0.000
    6  0.000  0.000  0.000  0.000
    7  0.000  0.000  0.000  0.000
    8  0.000  0.000  0.000  0.000
    9  0.000  0.000  0.000  0.000
   10  0.000  0.000  0.000  0.000
   11  0.000  0.000  0.000  0.000
   12  0.000  0.000  0.000  0.000
   13  0.000  0.000  0.000  0.000
   14  0.000  0.000  0.000  0.000
   15  0.000  0.000  0.000  0.000
   16  0.000  0.000  0.000  0.000
   17  0.000  0.000  0.000  0.000
   18  0.000  0.000  0.000  0.000
   19  0.000  0.000  0.000  0.000
   20  0.000  0.000  0.000  0.000
   21  0.000  0.000  0.000  0.000
   22  0.000  0.000  0.000  0.000
   23  0.000  0.000  0.000  0.000
   24  0.000  0.000  0.000  0.000
   25  0.000  0.000  0.000  0.000
   26  0.000  0.000  0.000  0.000
   27  0.000  0.000  0.000  0.000
   28  0.000  0.000  0.000  0.000
   29  0.000  0.000  0.000  0.000
   30  0.000  0.000  0.000  0.000
   31  0.000  0.000  0.000  0.000
   32  0.000  0.000  0.000  0.000
   33  0.000  0.000  0.000  0.000
   34  0.000  0.000  0.000  0.000
   35  0.000  0.000  0.000  0.000
   36  0.992  0.000  0.000  0.992
   37  0.000  0.000  0.000  0.001
   38  0.000  0.000  0.000  0.000
tot    0.992  0.001  0.000  0.993
 
band     2 # energy  -32.02470453 # occ.  2.00000000
 
ion      s      p      d    tot
    1  0.000  0.000  0.000  0.000
    2  0.000  0.000  0.000  0.000
    3  0.000  0.000  0.000  0.000
    4  0.000  0.000  0.000  0.000
    5  0.000  0.000  0.000  0.000
    6  0.000  0.000  0.000  0.000
    7  0.000  0.000  0.000  0.000
    8  0.000  0.000  0.000  0.000
    9  0.000  0.000  0.000  0.000
   10  0.000  0.000  0.000  0.000
   11  0.000  0.000  0.000  0.000
   12  0.000  0.000  0.000  0.000
   13  0.000  0.000  0.000  0.000
   14  0.000  0.000  0.000  0.000
   15  0.000  0.000  0.000  0.000
   16  0.000  0.000  0.000  0.000
   17  0.000  0.000  0.000  0.000
   18  0.000  0.000  0.000  0.000
   19  0.000  0.000  0.000  0.000
   20  0.000  0.000  0.000  0.000
   21  0.000  0.000  0.000  0.000
   22  0.000  0.000  0.000  0.000
   23  0.000  0.000  0.000  0.000
   24  0.000  0.000  0.000  0.000
   25  0.000  0.000  0.000  0.000
   26  0.000  0.000  0.000  0.000
   27  0.000  0.000  0.000  0.000
   28  0.000  0.000  0.000  0.000
   29  0.000  0.000  0.000  0.000
   30  0.000  0.000  0.000  0.000
   31  0.000  0.000  0.000  0.000
   32  0.000  0.000  0.000  0.000
   33  0.000  0.000  0.000  0.000
   34  0.000  0.000  0.000  0.000
   35  0.000  0.000  0.000  0.000
   36  0.000  0.949  0.000  0.950
   37  0.018  0.007  0.000  0.024
   38  0.000  0.000  0.000  0.000
tot    0.018  0.956  0.001  0.975
 
band     3 # energy  -31.33689685 # occ.  2.00000000
 
ion      s      p      d    tot
    1  0.000  0.000  0.000  0.000
    2  0.000  0.000  0.000  0.000
    3  0.000  0.000  0.000  0.000
    4  0.000  0.000  0.000  0.000
    5  0.000  0.000  0.000  0.000
    6  0.000  0.000  0.000  0.000
    7  0.000  0.000  0.000  0.000
    8  0.000  0.000  0.000  0.000
    9  0.000  0.000  0.000  0.000
   10  0.000  0.000  0.000  0.000
   11  0.000  0.000  0.000  0.000
   12  0.000  0.000  0.000  0.000
   13  0.000  0.000  0.000  0.000
   14  0.000  0.000  0.000  0.000
   15  0.000  0.000  0.000  0.000
   16  0.000  0.000  0.000  0.000
   17  0.000  0.000  0.000  0.000
   18  0.000  0.000  0.000  0.000
   19  0.000  0.000  0.000  0.000
   20  0.000  0.000  0.000  0.000
   21  0.000  0.000  0.000  0.000
   22  0.000  0.000  0.000  0.000
   23  0.000  0.000  0.000  0.000
   24  0.000  0.000  0.000  0.000
   25  0.000  0.000  0.000  0.000
   26  0.000  0.000  0.000  0.000
   27  0.000  0.000  0.000  0.000
   28  0.000  0.000  0.000  0.000
   29  0.000  0.000  0.000  0.000
   30  0.000  0.000  0.000  0.000
   31  0.000  0.000  0.000  0.000
   32  0.000  0.000  0.000  0.000
   33  0.000  0.000  0.000  0.000
   34  0.000  0.000  0.000  0.000
   35  0.000  0.000  0.000  0.000
   36  0.000  0.973  0.000  0.973
   37  0.000  0.000  0.000  0.000
   38  0.000  0.000  0.000  0.000
tot    0.000  0.974  0.000  0.974
 
band     4 # energy  -31.33688980 # occ.  2.00000000
 
ion      s      p      d    tot
    1  0.000  0.000  0.000  0.000
    2  0.000  0.000  0.000  0.000
    3  0.000  0.000  0.000  0.000
    4  0.000  0.000  0.000  0.000
    5  0.000  0.000  0.000  0.000
    6  0.000  0.000  0.000  0.000
    7  0.000  0.000  0.000  0.000
    8  0.000  0.000  0.000  0.000
    9  0.000  0.000  0.000  0.000
   10  0.000  0.000  0.000  0.000
   11  0.000  0.000  0.000  0.000
   12  0.000  0.000  0.000  0.000
   13  0.000  0.000  0.000  0.000
   14  0.000  0.000  0.000  0.000
   15  0.000  0.000  0.000  0.000
   16  0.000  0.000  0.000  0.000
   17  0.000  0.000  0.000  0.000
   18  0.000  0.000  0.000  0.000
   19  0.000  0.000  0.000  0.000
   20  0.000  0.000  0.000  0.000
   21  0.000  0.000  0.000  0.000
   22  0.000  0.000  0.000  0.000
   23  0.000  0.000  0.000  0.000
   24  0.000  0.000  0.000  0.000
   25  0.000  0.000  0.000  0.000
   26  0.000  0.000  0.000  0.000
   27  0.000  0.000  0.000  0.000
   28  0.000  0.000  0.000  0.000
   29  0.000  0.000  0.000  0.000
   30  0.000  0.000  0.000  0.000
   31  0.000  0.000  0.000  0.000
   32  0.000  0.000  0.000  0.000
   33  0.000  0.000  0.000  0.000
   34  0.000  0.000  0.000  0.000
   35  0.000  0.000  0.000  0.000
   36  0.000  0.973  0.000  0.973
   37  0.000  0.000  0.000  0.000
   38  0.000  0.000  0.000  0.000
tot    0.000  0.974  0.000  0.974
 
band     5 # energy  -20.34748684 # occ.  2.00000000
 
ion      s      p      d    tot
    1  0.000  0.000  0.000  0.000
    2  0.000  0.000  0.000  0.000
    3  0.000  0.000  0.000  0.000
    4  0.000  0.000  0.000  0.000
    5  0.000  0.000  0.000  0.000
    6  0.000  0.000  0.000  0.000
    7  0.000  0.000  0.000  0.000
    8  0.000  0.000  0.000  0.000
    9  0.000  0.000  0.000  0.000
   10  0.000  0.000  0.000  0.000
   11  0.000  0.000  0.000  0.000
   12  0.000  0.000  0.000  0.000
   13  0.000  0.000  0.000  0.000
   14  0.000  0.000  0.000  0.000
   15  0.000  0.000  0.000  0.000
   16  0.000  0.000  0.000  0.000
   17  0.000  0.000  0.000  0.000
   18  0.000  0.000  0.000  0.000
   19  0.000  0.000  0.000  0.000
   20  0.000  0.000  0.000  0.000
   21  0.000  0.000  0.000  0.000
   22  0.000  0.000  0.000  0.000
   23  0.000  0.000  0.000  0.000
   24  0.000  0.000  0.000  0.000
   25  0.000  0.000  0.000  0.000
   26  0.000  0.000  0.000  0.000
   27  0.000  0.000  0.000  0.000
   28  0.000  0.000  0.000  0.000
   29  0.000  0.000  0.000  0.000
   30  0.000  0.000  0.000  0.000
   31  0.000  0.000  0.000  0.000
   32  0.000  0.000  0.000  0.000
   33  0.000  0.000  0.000  0.000
   34  0.000  0.000  0.000  0.000
   35  0.000  0.000  0.000  0.000
   36  0.004  0.021  0.011  0.037
   37  0.728  0.020  0.000  0.748
   38  0.118  0.024  0.000  0.143
tot    0.850  0.066  0.012  0.927
 
band     6 # energy   -8.79741471 # occ.  2.00000000
 
ion      s      p      d    tot
    1  0.000  0.000  0.000  0.000
    2  0.000  0.000  0.000  0.000
    3  0.000  0.000  0.000  0.000
    4  0.000  0.000  0.000  0.000
    5  0.000  0.000  0.000  0.000
    6  0.000  0.000  0.000  0.000
    7  0.000  0.000  0.000  0.000
    8  0.000  0.000  0.000  0.000
    9  0.000  0.000  0.000  0.000
   10  0.000  0.000  0.000  0.000
   11  0.000  0.000  0.000  0.000
   12  0.000  0.000  0.000  0.000
   13  0.000  0.000  0.000  0.000
   14  0.000  0.000  0.000  0.000
   15  0.000  0.000  0.000  0.000
   16  0.000  0.000  0.000  0.000
   17  0.000  0.000  0.000  0.000
   18  0.000  0.000  0.000  0.000
   19  0.000  0.000  0.000  0.000
   20  0.001  0.000  0.002  0.003
   21  0.001  0.000  0.002  0.003
   22  0.000  0.000  0.000  0.000
   23  0.001  0.000  0.002  0.003
   24  0.000  0.000  0.000  0.000
   25  0.000  0.000  0.000  0.000
   26  0.000  0.000  0.000  0.000
   27  0.000  0.000  0.000  0.000
   28  0.000  0.000  0.000  0.000
   29  0.000  0.000  0.000  0.000
   30  0.000  0.000  0.000  0.000
   31  0.000  0.000  0.000  0.000
   32  0.000  0.000  0.000  0.000
   33  0.000  0.000  0.000  0.000
   34  0.000  0.000  0.000  0.000
   35  0.000  0.000  0.000  0.000
   36  0.024  0.020  0.104  0.147
   37  0.030  0.533  0.000  0.563
   38  0.176  0.018  0.000  0.194
tot    0.233  0.572  0.110  0.915
 
band     7 # energy   -6.59423170 # occ.  2.00000000
 
ion      s      p      d    tot
    1  0.006  0.001  0.000  0.007
    2  0.006  0.001  0.000  0.007
    3  0.006  0.001  0.000  0.007
    4  0.006  0.001  0.000  0.007
    5  0.006  0.001  0.000  0.007
    6  0.006  0.001  0.000  0.007
    7  0.006  0.001  0.000  0.007
    8  0.006  0.001  0.000  0.007
    9  0.006  0.001  0.000  0.007
   10  0.024  0.000  0.000  0.024
   11  0.024  0.000  0.000  0.024
   12  0.024  0.000  0.000  0.024
   13  0.024  0.000  0.000  0.024
   14  0.024  0.000  0.000  0.024
   15  0.023  0.000  0.000  0.023
   16  0.024  0.000  0.000  0.024
   17  0.023  0.000  0.000  0.023
   18  0.023  0.000  0.000  0.023
   19  0.022  0.000  0.000  0.023
   20  0.024  0.000  0.000  0.025
   21  0.024  0.000  0.000  0.025
   22  0.022  0.000  0.000  0.022
   23  0.024  0.000  0.000  0.025
   24  0.022  0.000  0.000  0.022
   25  0.022  0.000  0.000  0.023
   26  0.022  0.000  0.000  0.023
   27  0.022  0.000  0.000  0.022
   28  0.006  0.001  0.000  0.006
   29  0.005  0.001  0.000  0.006
   30  0.005  0.001  0.000  0.006
   31  0.005  0.001  0.000  0.006
   32  0.005  0.001  0.000  0.006
   33  0.005  0.001  0.000  0.006
   34  0.005  0.001  0.000  0.006
   35  0.005  0.001  0.000  0.006
   36  0.002  0.001  0.001  0.004
   37  0.000  0.002  0.000  0.002
   38  0.001  0.000  0.000  0.001
tot    0.518  0.015  0.007  0.540
 
band     8 # energy   -5.73714942 # occ.  2.00000000
 
ion      s      p      d    tot
    1  0.008  0.000  0.000  0.009
    2  0.008  0.000  0.000  0.009
    3  0.008  0.000  0.000  0.009
    4  0.008  0.000  0.000  0.009
    5  0.008  0.000  0.000  0.009
    6  0.008  0.000  0.000  0.009
    7  0.008  0.000  0.000  0.009
    8  0.008  0.000  0.000  0.009
    9  0.008  0.000  0.000  0.009
   10  0.011  0.001  0.015  0.028
   11  0.011  0.001  0.015  0.026
   12  0.011  0.001  0.015  0.028
   13  0.011  0.001  0.015  0.026
   14  0.011  0.001  0.015  0.026
   15  0.010  0.001  0.013  0.024
   16  0.011  0.001  0.015  0.028
   17  0.010  0.001  0.013  0.024
   18  0.010  0.001  0.013  0.024
   19  0.012  0.001  0.015  0.028
   20  0.012  0.001  0.022  0.035
   21  0.012  0.001  0.022  0.035
   22  0.011  0.001  0.014  0.026
   23  0.012  0.001  0.022  0.035
   24  0.011  0.001  0.014  0.026
   25  0.012  0.001  0.015  0.028
   26  0.012  0.001  0.015  0.028
   27  0.011  0.001  0.014  0.026
   28  0.008  0.000  0.000  0.008
   29  0.007  0.000  0.000  0.008
   30  0.007  0.000  0.000  0.008
   31  0.007  0.000  0.000  0.008
   32  0.007  0.000  0.000  0.008
   33  0.007  0.000  0.000  0.008
   34  0.007  0.000  0.000  0.008
   35  0.007  0.000  0.000  0.008
   36  0.003  0.001  0.001  0.004
   37  0.000  0.001  0.000  0.001
   38  0.000  0.000  0.000  0.000
tot    0.337  0.025  0.289  0.650
 
band     9 # energy   -5.48154353 # occ.  2.00000000
 
ion      s      p      d    tot
    1  0.010  0.000  0.017  0.027
    2  0.009  0.000  0.013  0.023
    3  0.009  0.000  0.013  0.023
    4  0.009  0.000  0.013  0.023
    5  0.008  0.000  0.011  0.019
    6  0.009  0.000  0.013  0.023
    7  0.009  0.000  0.013  0.023
    8  0.009  0.000  0.013  0.023
    9  0.010  0.000  0.012  0.022
   10  0.000  0.000  0.021  0.021
   11  0.000  0.000  0.013  0.013
   12  0.000  0.000  0.021  0.021
   13  0.000  0.000  0.013  0.013
   14  0.000  0.000  0.013  0.013
   15  0.000  0.000  0.010  0.010
   16  0.000  0.000  0.021  0.021
   17  0.000  0.000  0.010  0.010
   18  0.000  0.000  0.010  0.010
   19  0.000  0.000  0.015  0.016
   20  0.000  0.000  0.037  0.037
   21  0.000  0.000  0.037  0.037
   22  0.000  0.000  0.011  0.011
   23  0.000  0.000  0.037  0.037
   24  0.000  0.000  0.011  0.011
   25  0.000  0.000  0.015  0.016
   26  0.000  0.000  0.015  0.016
   27  0.000  0.000  0.011  0.011
   28  0.009  0.000  0.012  0.021
   29  0.012  0.000  0.017  0.028
   30  0.012  0.000  0.017  0.028
   31  0.012  0.000  0.017  0.028
   32  0.012  0.000  0.017  0.028
   33  0.012  0.000  0.017  0.028
   34  0.012  0.000  0.017  0.028
   35  0.012  0.000  0.013  0.025
   36  0.006  0.000  0.007  0.013
   37  0.000  0.000  0.000  0.000
   38  0.000  0.000  0.000  0.000
tot    0.186  0.006  0.567  0.759
 
band    10 # energy   -5.36673746 # occ.  2.00000000
 
ion      s      p      d    tot
    1  0.001  0.001  0.006  0.007
    2  0.001  0.000  0.007  0.008
    3  0.001  0.000  0.007  0.008
    4  0.001  0.000  0.007  0.008
    5  0.006  0.000  0.002  0.007
    6  0.001  0.000  0.007  0.008
    7  0.001  0.000  0.007  0.008
    8  0.001  0.000  0.007  0.008
    9  0.003  0.000  0.001  0.004
   10  0.006  0.000  0.015  0.021
   11  0.000  0.000  0.023  0.023
   12  0.005  0.000  0.015  0.021
   13  0.000  0.000  0.023  0.023
   14  0.000  0.000  0.023  0.023
   15  0.002  0.000  0.009  0.012
   16  0.005  0.000  0.015  0.020
   17  0.002  0.000  0.009  0.012
   18  0.002  0.000  0.009  0.012
   19  0.002  0.001  0.032  0.035
   20  0.006  0.000  0.115  0.122
   21  0.006  0.000  0.115  0.121
   22  0.013  0.001  0.013  0.026
   23  0.006  0.000  0.115  0.121
   24  0.013  0.001  0.013  0.027
   25  0.002  0.001  0.031  0.033
   26  0.002  0.001  0.032  0.035
   27  0.013  0.001  0.013  0.026
   28  0.000  0.000  0.001  0.001
   29  0.000  0.000  0.004  0.004
   30  0.000  0.000  0.003  0.004
   31  0.000  0.000  0.004  0.004
   32  0.000  0.000  0.004  0.004
   33  0.000  0.000  0.003  0.004
   34  0.000  0.000  0.004  0.004
   35  0.004  0.001  0.002  0.008
   36  0.000  0.002  0.001  0.004
   37  0.000  0.002  0.000  0.003
   38  0.001  0.000  0.000  0.001
tot    0.110  0.015  0.691  0.816
 
band    11 # energy   -5.36587390 # occ.  2.00000000
 
ion      s      p      d    tot
    1  0.000  0.000  0.008  0.008
    2  0.001  0.000  0.002  0.003
    3  0.001  0.000  0.002  0.003
    4  0.001  0.000  0.002  0.003
    5  0.000  0.000  0.003  0.003
    6  0.000  0.000  0.002  0.002
    7  0.001  0.000  0.002  0.003
    8  0.000  0.000  0.002  0.002
    9  0.000  0.000  0.002  0.002
   10  0.000  0.001  0.019  0.020
   11  0.001  0.000  0.019  0.020
   12  0.007  0.001  0.018  0.026
   13  0.001  0.000  0.019  0.020
   14  0.000  0.001  0.023  0.023
   15  0.003  0.000  0.009  0.013
   16  0.007  0.001  0.018  0.026
   17  0.003  0.000  0.009  0.013
   18  0.000  0.000  0.013  0.013
   19  0.017  0.001  0.033  0.051
   20  0.000  0.000  0.167  0.167
   21  0.020  0.000  0.048  0.068
   22  0.000  0.001  0.032  0.032
   23  0.020  0.000  0.046  0.066
   24  0.000  0.001  0.037  0.038
   25  0.000  0.001  0.027  0.029
   26  0.016  0.001  0.033  0.050
   27  0.000  0.001  0.032  0.032
   28  0.000  0.000  0.005  0.005
   29  0.000  0.000  0.008  0.008
   30  0.000  0.000  0.006  0.006
   31  0.000  0.000  0.008  0.008
   32  0.001  0.001  0.005  0.007
   33  0.000  0.000  0.006  0.006
   34  0.001  0.001  0.005  0.007
   35  0.000  0.000  0.000  0.000
   36  0.000  0.000  0.011  0.011
   37  0.000  0.012  0.000  0.012
   38  0.000  0.000  0.000  0.000
tot    0.099  0.026  0.682  0.807
 
band    12 # energy   -5.36584737 # occ.  2.00000000
 
ion      s      p      d    tot
    1  0.000  0.000  0.008  0.008
    2  0.000  0.000  0.002  0.003
    3  0.000  0.000  0.002  0.002
    4  0.000  0.000  0.002  0.003
    5  0.000  0.000  0.003  0.003
    6  0.001  0.000  0.002  0.003
    7  0.000  0.000  0.002  0.002
    8  0.001  0.000  0.002  0.003
    9  0.000  0.000  0.002  0.002
   10  0.009  0.001  0.017  0.027
   11  0.000  0.001  0.022  0.022
   12  0.003  0.001  0.019  0.022
   13  0.000  0.001  0.022  0.022
   14  0.001  0.000  0.018  0.019
   15  0.001  0.000  0.012  0.013
   16  0.002  0.001  0.019  0.022
   17  0.001  0.000  0.011  0.013
   18  0.004  0.001  0.008  0.013
   19  0.005  0.001  0.029  0.035
   20  0.026  0.000  0.007  0.034
   21  0.007  0.000  0.125  0.133
   22  0.000  0.001  0.035  0.036
   23  0.007  0.000  0.128  0.135
   24  0.000  0.000  0.030  0.030
   25  0.022  0.000  0.036  0.059
   26  0.006  0.001  0.029  0.036
   27  0.000  0.001  0.035  0.036
   28  0.000  0.000  0.005  0.005
   29  0.000  0.000  0.005  0.006
   30  0.001  0.000  0.007  0.008
   31  0.000  0.000  0.005  0.006
   32  0.000  0.000  0.007  0.007
   33  0.001  0.000  0.007  0.008
   34  0.000  0.000  0.007  0.007
   35  0.000  0.000  0.000  0.000
   36  0.000  0.000  0.011  0.011
   37  0.000  0.012  0.000  0.012
   38  0.000  0.000  0.000  0.000
tot    0.099  0.026  0.682  0.807
 
band    13 # energy   -5.33032027 # occ.  2.00000000
 
ion      s      p      d    tot
    1  0.000  0.000  0.005  0.005
    2  0.001  0.001  0.007  0.009
    3  0.001  0.000  0.003  0.004
    4  0.001  0.001  0.007  0.009
    5  0.000  0.000  0.008  0.009
    6  0.000  0.000  0.004  0.004
    7  0.001  0.000  0.003  0.004
    8  0.000  0.000  0.004  0.004
    9  0.000  0.000  0.001  0.001
   10  0.000  0.000  0.104  0.104
   11  0.024  0.001  0.034  0.058
   12  0.006  0.001  0.038  0.045
   13  0.023  0.001  0.035  0.059
   14  0.000  0.001  0.084  0.085
   15  0.005  0.000  0.031  0.036
   16  0.007  0.001  0.036  0.043
   17  0.004  0.001  0.030  0.035
   18  0.000  0.002  0.007  0.009
   19  0.000  0.000  0.018  0.019
   20  0.000  0.001  0.029  0.030
   21  0.007  0.001  0.039  0.046
   22  0.008  0.001  0.012  0.021
   23  0.007  0.001  0.039  0.047
   24  0.000  0.000  0.022  0.022
   25  0.000  0.000  0.027  0.028
   26  0.000  0.000  0.018  0.019
   27  0.008  0.001  0.012  0.021
   28  0.000  0.000  0.001  0.001
   29  0.000  0.000  0.003  0.003
   30  0.000  0.000  0.004  0.005
   31  0.000  0.000  0.003  0.003
   32  0.001  0.000  0.004  0.005
   33  0.001  0.000  0.004  0.005
   34  0.001  0.000  0.004  0.006
   35  0.000  0.000  0.005  0.005
   36  0.000  0.000  0.003  0.003
   37  0.000  0.001  0.000  0.001
   38  0.000  0.000  0.000  0.000
tot    0.107  0.015  0.689  0.811
 
band    14 # energy   -5.33030621 # occ.  2.00000000
 
ion      s      p      d    tot
    1  0.000  0.000  0.005  0.005
    2  0.000  0.000  0.002  0.002
    3  0.001  0.000  0.006  0.007
    4  0.000  0.000  0.002  0.002
    5  0.000  0.000  0.008  0.009
    6  0.001  0.001  0.005  0.007
    7  0.001  0.000  0.006  0.007
    8  0.001  0.001  0.005  0.007
    9  0.000  0.000  0.001  0.001
   10  0.009  0.001  0.015  0.025
   11  0.007  0.001  0.069  0.077
   12  0.002  0.000  0.081  0.083
   13  0.008  0.001  0.067  0.076
   14  0.031  0.001  0.018  0.049
   15  0.001  0.001  0.014  0.017
   16  0.002  0.000  0.083  0.085
   17  0.002  0.001  0.015  0.018
   18  0.006  0.000  0.038  0.044
   19  0.000  0.000  0.025  0.025
   20  0.010  0.001  0.042  0.052
   21  0.002  0.001  0.033  0.036
   22  0.003  0.000  0.019  0.022
   23  0.002  0.001  0.032  0.035
   24  0.010  0.001  0.009  0.020
   25  0.001  0.000  0.015  0.016
   26  0.000  0.000  0.024  0.025
   27  0.002  0.000  0.019  0.022
   28  0.000  0.000  0.001  0.001
   29  0.001  0.000  0.004  0.006
   30  0.001  0.000  0.003  0.004
   31  0.001  0.000  0.004  0.006
   32  0.000  0.000  0.003  0.003
   33  0.001  0.000  0.003  0.004
   34  0.000  0.000  0.003  0.003
   35  0.000  0.000  0.005  0.005
   36  0.000  0.000  0.003  0.003
   37  0.000  0.001  0.000  0.001
   38  0.000  0.000  0.000  0.000
tot    0.107  0.015  0.689  0.811
 
band    15 # energy   -5.32686189 # occ.  2.00000000
 
ion      s      p      d    tot
    1  0.012  0.001  0.000  0.013
    2  0.004  0.000  0.013  0.017
    3  0.004  0.000  0.014  0.018
    4  0.004  0.000  0.013  0.017
    5  0.003  0.000  0.028  0.031
    6  0.004  0.000  0.013  0.017
    7  0.004  0.000  0.014  0.018
    8  0.004  0.000  0.013  0.017
    9  0.001  0.000  0.014  0.015
   10  0.003  0.000  0.037  0.041
   11  0.004  0.000  0.058  0.062
   12  0.003  0.000  0.038  0.041
   13  0.004  0.000  0.058  0.062
   14  0.003  0.000  0.058  0.062
   15  0.009  0.001  0.019  0.028
   16  0.003  0.000  0.038  0.041
   17  0.009  0.001  0.019  0.028
   18  0.009  0.001  0.019  0.028
   19  0.000  0.000  0.009  0.009
   20  0.000  0.000  0.040  0.040
   21  0.000  0.000  0.040  0.041
   22  0.001  0.000  0.003  0.005
   23  0.000  0.000  0.040  0.041
   24  0.001  0.000  0.003  0.005
   25  0.000  0.000  0.009  0.009
   26  0.000  0.000  0.009  0.009
   27  0.001  0.000  0.003  0.005
   28  0.000  0.000  0.002  0.003
   29  0.002  0.000  0.010  0.013
   30  0.002  0.000  0.010  0.013
   31  0.002  0.000  0.010  0.013
   32  0.002  0.000  0.010  0.013
   33  0.002  0.000  0.010  0.013
   34  0.002  0.000  0.010  0.013
   35  0.001  0.000  0.005  0.006
   36  0.005  0.000  0.003  0.008
   37  0.000  0.000  0.000  0.000
   38  0.000  0.000  0.000  0.000
tot    0.109  0.009  0.693  0.811
 
band    16 # energy   -5.31331849 # occ.  2.00000000
 
ion      s      p      d    tot
    1  0.000  0.000  0.000  0.001
    2  0.001  0.000  0.008  0.009
    3  0.001  0.000  0.008  0.009
    4  0.001  0.000  0.008  0.009
    5  0.008  0.001  0.000  0.009
    6  0.001  0.000  0.008  0.009
    7  0.001  0.000  0.008  0.009
    8  0.001  0.000  0.008  0.009
    9  0.000  0.001  0.015  0.016
   10  0.005  0.001  0.022  0.029
   11  0.012  0.001  0.020  0.033
   12  0.005  0.001  0.022  0.029
   13  0.012  0.001  0.020  0.033
   14  0.012  0.001  0.020  0.033
   15  0.006  0.000  0.060  0.066
   16  0.005  0.001  0.022  0.029
   17  0.006  0.000  0.060  0.066
   18  0.006  0.000  0.059  0.065
   19  0.011  0.001  0.022  0.033
   20  0.006  0.001  0.016  0.023
   21  0.006  0.001  0.016  0.023
   22  0.000  0.000  0.031  0.031
   23  0.006  0.001  0.016  0.023
   24  0.000  0.000  0.031  0.031
   25  0.011  0.001  0.022  0.033
   26  0.011  0.001  0.022  0.033
   27  0.000  0.000  0.031  0.031
   28  0.002  0.001  0.005  0.008
   29  0.000  0.000  0.008  0.009
   30  0.000  0.000  0.008  0.009
   31  0.000  0.000  0.008  0.009
   32  0.000  0.000  0.008  0.009
   33  0.000  0.000  0.008  0.009
   34  0.000  0.000  0.008  0.009
   35  0.003  0.000  0.000  0.003
   36  0.001  0.000  0.001  0.002
   37  0.000  0.000  0.000  0.000
   38  0.000  0.000  0.000  0.000
tot    0.142  0.018  0.631  0.791
 
band    17 # energy   -5.29980880 # occ.  2.00000000
 
ion      s      p      d    tot
    1  0.002  0.000  0.030  0.032
    2  0.004  0.000  0.012  0.016
    3  0.004  0.000  0.012  0.016
    4  0.004  0.000  0.012  0.016
    5  0.001  0.000  0.003  0.003
    6  0.004  0.000  0.012  0.016
    7  0.004  0.000  0.012  0.016
    8  0.004  0.000  0.012  0.016
    9  0.012  0.000  0.004  0.016
   10  0.004  0.000  0.043  0.047
   11  0.002  0.000  0.023  0.025
   12  0.004  0.000  0.043  0.047
   13  0.002  0.000  0.023  0.025
   14  0.003  0.000  0.022  0.025
   15  0.001  0.000  0.004  0.006
   16  0.004  0.000  0.043  0.047
   17  0.001  0.000  0.004  0.006
   18  0.001  0.000  0.004  0.006
   19  0.000  0.000  0.016  0.016
   20  0.002  0.000  0.017  0.020
   21  0.002  0.000  0.017  0.020
   22  0.003  0.000  0.027  0.030
   23  0.002  0.000  0.017  0.020
   24  0.003  0.000  0.027  0.030
   25  0.000  0.000  0.016  0.016
   26  0.000  0.000  0.016  0.016
   27  0.003  0.000  0.027  0.030
   28  0.017  0.000  0.015  0.031
   29  0.006  0.000  0.020  0.026
   30  0.006  0.000  0.020  0.026
   31  0.006  0.000  0.020  0.026
   32  0.006  0.000  0.020  0.026
   33  0.006  0.000  0.020  0.026
   34  0.006  0.000  0.020  0.026
   35  0.004  0.000  0.025  0.030
   36  0.000  0.000  0.001  0.002
   37  0.000  0.000  0.000  0.000
   38  0.000  0.000  0.000  0.000
tot    0.132  0.008  0.662  0.801
 
band    18 # energy   -5.28593010 # occ.  2.00000000
 
ion      s      p      d    tot
    1  0.000  0.001  0.009  0.010
    2  0.004  0.001  0.008  0.012
    3  0.004  0.001  0.005  0.010
    4  0.003  0.001  0.008  0.012
    5  0.000  0.000  0.010  0.010
    6  0.000  0.000  0.008  0.009
    7  0.003  0.001  0.005  0.009
    8  0.000  0.000  0.008  0.008
    9  0.000  0.000  0.010  0.011
   10  0.018  0.000  0.020  0.038
   11  0.000  0.000  0.023  0.023
   12  0.006  0.000  0.034  0.040
   13  0.000  0.000  0.024  0.025
   14  0.000  0.000  0.031  0.031
   15  0.003  0.000  0.073  0.076
   16  0.003  0.001  0.037  0.041
   17  0.006  0.000  0.060  0.066
   18  0.017  0.000  0.007  0.025
   19  0.001  0.000  0.042  0.042
   20  0.003  0.000  0.029  0.032
   21  0.001  0.000  0.022  0.023
   22  0.005  0.000  0.035  0.040
   23  0.001  0.000  0.020  0.021
   24  0.014  0.000  0.010  0.024
   25  0.004  0.000  0.017  0.021
   26  0.001  0.000  0.037  0.038
   27  0.002  0.000  0.041  0.044
   28  0.000  0.000  0.012  0.012
   29  0.001  0.000  0.007  0.009
   30  0.000  0.000  0.005  0.006
   31  0.002  0.001  0.007  0.010
   32  0.004  0.001  0.005  0.011
   33  0.001  0.000  0.005  0.006
   34  0.004  0.001  0.005  0.010
   35  0.000  0.000  0.006  0.006
   36  0.000  0.000  0.002  0.002
   37  0.000  0.000  0.000  0.000
   38  0.000  0.000  0.000  0.000
tot    0.113  0.013  0.686  0.812
 
band    19 # energy   -5.28592592 # occ.  2.00000000
 
ion      s      p      d    tot
    1  0.000  0.001  0.009  0.010
    2  0.001  0.000  0.006  0.007
    3  0.001  0.000  0.009  0.010
    4  0.002  0.000  0.005  0.007
    5  0.000  0.000  0.010  0.010
    6  0.005  0.001  0.005  0.011
    7  0.001  0.001  0.009  0.011
    8  0.005  0.001  0.006  0.012
    9  0.000  0.000  0.010  0.011
   10  0.000  0.001  0.041  0.042
   11  0.000  0.000  0.029  0.030
   12  0.012  0.000  0.027  0.039
   13  0.000  0.000  0.028  0.028
   14  0.000  0.000  0.021  0.022
   15  0.014  0.000  0.020  0.035
   16  0.015  0.000  0.023  0.038
   17  0.011  0.000  0.034  0.045
   18  0.000  0.000  0.086  0.086
   19  0.003  0.000  0.022  0.025
   20  0.000  0.000  0.018  0.018
   21  0.002  0.000  0.025  0.028
   22  0.010  0.000  0.023  0.032
   23  0.003  0.000  0.027  0.030
   24  0.000  0.000  0.047  0.048
   25  0.000  0.000  0.046  0.046
   26  0.003  0.000  0.027  0.030
   27  0.012  0.000  0.016  0.028
   28  0.000  0.000  0.012  0.012
   29  0.003  0.001  0.004  0.008
   30  0.004  0.001  0.006  0.011
   31  0.002  0.000  0.004  0.007
   32  0.000  0.000  0.006  0.006
   33  0.003  0.001  0.007  0.011
   34  0.000  0.000  0.007  0.007
   35  0.000  0.000  0.006  0.006
   36  0.000  0.000  0.002  0.002
   37  0.000  0.000  0.000  0.000
   38  0.000  0.000  0.000  0.000
tot    0.113  0.013  0.686  0.812
 
band    20 # energy   -5.27290088 # occ.  2.00000000
 
ion      s      p      d    tot
    1  0.004  0.000  0.001  0.005
    2  0.000  0.000  0.009  0.009
    3  0.000  0.000  0.009  0.009
    4  0.000  0.000  0.009  0.009
    5  0.000  0.000  0.002  0.003
    6  0.000  0.000  0.009  0.009
    7  0.000  0.000  0.009  0.009
    8  0.000  0.000  0.009  0.009
    9  0.001  0.000  0.005  0.006
   10  0.000  0.000  0.031  0.031
   11  0.002  0.000  0.011  0.012
   12  0.000  0.000  0.029  0.030
   13  0.002  0.000  0.011  0.012
   14  0.001  0.000  0.010  0.012
   15  0.000  0.000  0.047  0.048
   16  0.000  0.000  0.029  0.030
   17  0.000  0.000  0.048  0.048
   18  0.000  0.000  0.047  0.048
   19  0.006  0.000  0.055  0.061
   20  0.004  0.000  0.013  0.017
   21  0.004  0.000  0.012  0.016
   22  0.000  0.000  0.063  0.063
   23  0.004  0.000  0.012  0.016
   24  0.000  0.000  0.064  0.064
   25  0.005  0.000  0.054  0.060
   26  0.006  0.000  0.055  0.061
   27  0.000  0.000  0.063  0.063
   28  0.000  0.001  0.013  0.013
   29  0.000  0.000  0.011  0.011
   30  0.000  0.000  0.010  0.011
   31  0.000  0.000  0.011  0.011
   32  0.000  0.000  0.010  0.011
   33  0.000  0.000  0.010  0.011
   34  0.000  0.000  0.010  0.011
   35  0.001  0.000  0.005  0.006
   36  0.002  0.001  0.000  0.003
   37  0.000  0.000  0.000  0.001
   38  0.000  0.000  0.000  0.000
tot    0.044  0.008  0.795  0.846
 
band    21 # energy   -5.27199037 # occ.  2.00000000
 
ion      s      p      d    tot
    1  0.000  0.000  0.007  0.007
    2  0.001  0.000  0.008  0.009
    3  0.000  0.000  0.007  0.008
    4  0.001  0.000  0.008  0.009
    5  0.000  0.000  0.003  0.004
    6  0.002  0.000  0.005  0.007
    7  0.000  0.000  0.007  0.008
    8  0.002  0.000  0.005  0.007
    9  0.000  0.000  0.017  0.017
   10  0.000  0.000  0.042  0.042
   11  0.001  0.000  0.048  0.049
   12  0.000  0.000  0.015  0.016
   13  0.001  0.000  0.047  0.048
   14  0.003  0.000  0.011  0.014
   15  0.001  0.000  0.056  0.058
   16  0.000  0.000  0.014  0.015