PROCAR new format
# of k-points:   10         # of bands:  252         # of ions:   38

 k-point     1 :    0.00000000 0.00000000 0.00000000     weight = 0.01562500

band     1 # energy  -23.02268168 # occ.  2.00000000
 
ion      s      p      d    tot
    1  0.000  0.000  0.000  0.000
    2  0.000  0.000  0.000  0.000
    3  0.000  0.000  0.000  0.000
    4  0.000  0.000  0.000  0.000
    5  0.000  0.000  0.000  0.000
    6  0.000  0.000  0.000  0.000
    7  0.000  0.000  0.000  0.000
    8  0.000  0.000  0.000  0.000
    9  0.000  0.000  0.000  0.000
   10  0.000  0.000  0.000  0.000
   11  0.000  0.000  0.000  0.000
   12  0.000  0.000  0.000  0.000
   13  0.000  0.000  0.000  0.000
   14  0.000  0.000  0.000  0.000
   15  0.000  0.000  0.000  0.000
   16  0.000  0.000  0.000  0.000
   17  0.000  0.000  0.000  0.000
   18  0.000  0.000  0.000  0.000
   19  0.000  0.000  0.000  0.000
   20  0.000  0.000  0.000  0.000
   21  0.000  0.000  0.000  0.000
   22  0.000  0.000  0.000  0.000
   23  0.000  0.000  0.000  0.000
   24  0.000  0.000  0.000  0.000
   25  0.000  0.000  0.000  0.000
   26  0.000  0.000  0.000  0.000
   27  0.000  0.000  0.000  0.000
   28  0.000  0.000  0.000  0.000
   29  0.000  0.000  0.000  0.000
   30  0.000  0.000  0.000  0.000
   31  0.000  0.000  0.000  0.000
   32  0.000  0.000  0.000  0.000
   33  0.000  0.000  0.000  0.000
   34  0.000  0.000  0.000  0.000
   35  0.000  0.000  0.000  0.000
   36  0.000  0.000  0.000  0.001
   37  0.160  0.115  0.000  0.275
   38  0.636  0.095  0.000  0.731
tot    0.796  0.211  0.000  1.007
 
band     2 # energy   -9.32073858 # occ.  2.00000000
 
ion      s      p      d    tot
    1  0.000  0.000  0.000  0.000
    2  0.000  0.000  0.000  0.000
    3  0.000  0.000  0.000  0.000
    4  0.000  0.000  0.000  0.000
    5  0.000  0.000  0.000  0.000
    6  0.000  0.000  0.000  0.000
    7  0.000  0.000  0.000  0.000
    8  0.000  0.000  0.000  0.000
    9  0.000  0.000  0.000  0.000
   10  0.000  0.000  0.000  0.000
   11  0.000  0.000  0.000  0.000
   12  0.000  0.000  0.000  0.000
   13  0.000  0.000  0.000  0.000
   14  0.000  0.000  0.000  0.000
   15  0.000  0.000  0.000  0.000
   16  0.000  0.000  0.000  0.000
   17  0.000  0.000  0.000  0.000
   18  0.000  0.000  0.000  0.000
   19  0.000  0.000  0.000  0.000
   20  0.001  0.000  0.001  0.002
   21  0.001  0.000  0.001  0.002
   22  0.000  0.000  0.000  0.000
   23  0.001  0.000  0.001  0.002
   24  0.000  0.000  0.000  0.000
   25  0.000  0.000  0.000  0.000
   26  0.000  0.000  0.000  0.000
   27  0.000  0.000  0.000  0.000
   28  0.000  0.000  0.000  0.000
   29  0.000  0.000  0.000  0.001
   30  0.000  0.000  0.000  0.001
   31  0.000  0.000  0.000  0.001
   32  0.000  0.000  0.000  0.001
   33  0.000  0.000  0.000  0.001
   34  0.000  0.000  0.000  0.001
   35  0.000  0.000  0.000  0.000
   36  0.090  0.041  0.148  0.279
   37  0.289  0.037  0.000  0.326
   38  0.104  0.105  0.000  0.209
tot    0.488  0.184  0.153  0.826
 
band     3 # energy   -6.82538427 # occ.  2.00000000
 
ion      s      p      d    tot
    1  0.000  0.000  0.000  0.000
    2  0.000  0.000  0.000  0.000
    3  0.000  0.000  0.000  0.000
    4  0.000  0.000  0.000  0.000
    5  0.000  0.000  0.000  0.000
    6  0.000  0.000  0.000  0.000
    7  0.000  0.000  0.000  0.000
    8  0.000  0.000  0.000  0.000
    9  0.000  0.000  0.000  0.000
   10  0.001  0.000  0.000  0.001
   11  0.000  0.000  0.000  0.000
   12  0.001  0.000  0.000  0.001
   13  0.000  0.000  0.000  0.000
   14  0.000  0.000  0.000  0.000
   15  0.000  0.000  0.000  0.000
   16  0.001  0.000  0.000  0.001
   17  0.000  0.000  0.000  0.000
   18  0.000  0.000  0.000  0.000
   19  0.001  0.000  0.000  0.001
   20  0.004  0.001  0.004  0.009
   21  0.004  0.001  0.004  0.009
   22  0.001  0.000  0.000  0.001
   23  0.004  0.001  0.004  0.009
   24  0.001  0.000  0.000  0.001
   25  0.001  0.000  0.000  0.001
   26  0.001  0.000  0.000  0.001
   27  0.001  0.000  0.000  0.001
   28  0.000  0.000  0.000  0.000
   29  0.001  0.000  0.000  0.002
   30  0.001  0.000  0.000  0.002
   31  0.001  0.000  0.000  0.002
   32  0.001  0.000  0.000  0.002
   33  0.001  0.000  0.000  0.002
   34  0.001  0.000  0.000  0.002
   35  0.000  0.000  0.000  0.000
   36  0.068  0.009  0.108  0.185
   37  0.001  0.184  0.000  0.185
   38  0.065  0.403  0.000  0.468
tot    0.162  0.599  0.123  0.885
 
band     4 # energy   -6.13386954 # occ.  2.00000000
 
ion      s      p      d    tot
    1  0.006  0.001  0.000  0.007
    2  0.006  0.001  0.000  0.007
    3  0.006  0.001  0.000  0.007
    4  0.006  0.001  0.000  0.007
    5  0.006  0.001  0.000  0.006
    6  0.006  0.001  0.000  0.007
    7  0.006  0.001  0.000  0.007
    8  0.006  0.001  0.000  0.007
    9  0.006  0.001  0.000  0.007
   10  0.023  0.000  0.000  0.023
   11  0.023  0.000  0.000  0.024
   12  0.023  0.000  0.000  0.023
   13  0.023  0.000  0.000  0.024
   14  0.023  0.000  0.000  0.024
   15  0.023  0.000  0.000  0.024
   16  0.023  0.000  0.000  0.023
   17  0.023  0.000  0.000  0.024
   18  0.023  0.000  0.000  0.024
   19  0.021  0.000  0.000  0.021
   20  0.020  0.000  0.000  0.021
   21  0.020  0.000  0.000  0.021
   22  0.022  0.000  0.000  0.023
   23  0.020  0.000  0.000  0.021
   24  0.022  0.000  0.000  0.023
   25  0.021  0.000  0.000  0.021
   26  0.021  0.000  0.000  0.021
   27  0.022  0.000  0.000  0.023
   28  0.005  0.001  0.000  0.006
   29  0.005  0.001  0.000  0.006
   30  0.005  0.001  0.000  0.006
   31  0.005  0.001  0.000  0.006
   32  0.005  0.001  0.000  0.006
   33  0.005  0.001  0.000  0.006
   34  0.005  0.001  0.000  0.006
   35  0.005  0.001  0.000  0.006
   36  0.001  0.006  0.020  0.027
   37  0.002  0.013  0.000  0.014
   38  0.001  0.014  0.000  0.015
tot    0.495  0.045  0.027  0.568
 
band     5 # energy   -6.02177560 # occ.  2.00000000
 
ion      s      p      d    tot
    1  0.000  0.000  0.000  0.000
    2  0.000  0.000  0.000  0.000
    3  0.000  0.000  0.000  0.000
    4  0.000  0.000  0.000  0.000
    5  0.000  0.000  0.000  0.000
    6  0.000  0.000  0.000  0.000
    7  0.000  0.000  0.000  0.000
    8  0.000  0.000  0.000  0.000
    9  0.000  0.000  0.000  0.000
   10  0.000  0.000  0.000  0.000
   11  0.000  0.000  0.000  0.000
   12  0.000  0.000  0.000  0.000
   13  0.000  0.000  0.000  0.000
   14  0.000  0.000  0.000  0.000
   15  0.000  0.000  0.000  0.000
   16  0.000  0.000  0.000  0.000
   17  0.000  0.000  0.000  0.000
   18  0.000  0.000  0.000  0.000
   19  0.000  0.000  0.000  0.000
   20  0.000  0.000  0.001  0.002
   21  0.000  0.000  0.001  0.001
   22  0.000  0.000  0.000  0.000
   23  0.000  0.000  0.001  0.001
   24  0.000  0.000  0.000  0.000
   25  0.000  0.000  0.000  0.000
   26  0.000  0.000  0.000  0.000
   27  0.000  0.000  0.000  0.000
   28  0.000  0.000  0.000  0.000
   29  0.000  0.000  0.002  0.003
   30  0.000  0.000  0.000  0.000
   31  0.000  0.000  0.002  0.003
   32  0.000  0.000  0.002  0.003
   33  0.000  0.000  0.000  0.000
   34  0.000  0.000  0.002  0.003
   35  0.000  0.000  0.000  0.000
   36  0.000  0.003  0.062  0.066
   37  0.000  0.185  0.000  0.185
   38  0.000  0.416  0.000  0.416
tot    0.002  0.605  0.076  0.683
 
band     6 # energy   -6.02166525 # occ.  2.00000000
 
ion      s      p      d    tot
    1  0.000  0.000  0.000  0.000
    2  0.000  0.000  0.000  0.000
    3  0.000  0.000  0.000  0.000
    4  0.000  0.000  0.000  0.000
    5  0.000  0.000  0.000  0.000
    6  0.000  0.000  0.000  0.000
    7  0.000  0.000  0.000  0.000
    8  0.000  0.000  0.000  0.000
    9  0.000  0.000  0.000  0.000
   10  0.000  0.000  0.000  0.000
   11  0.000  0.000  0.000  0.000
   12  0.000  0.000  0.000  0.000
   13  0.000  0.000  0.000  0.000
   14  0.000  0.000  0.000  0.000
   15  0.000  0.000  0.000  0.000
   16  0.000  0.000  0.000  0.000
   17  0.000  0.000  0.000  0.000
   18  0.000  0.000  0.000  0.000
   19  0.000  0.000  0.000  0.000
   20  0.000  0.000  0.001  0.001
   21  0.000  0.000  0.001  0.001
   22  0.000  0.000  0.000  0.000
   23  0.000  0.000  0.001  0.001
   24  0.000  0.000  0.000  0.000
   25  0.000  0.000  0.000  0.000
   26  0.000  0.000  0.000  0.000
   27  0.000  0.000  0.000  0.000
   28  0.000  0.000  0.000  0.000
   29  0.000  0.000  0.001  0.001
   30  0.001  0.000  0.003  0.004
   31  0.000  0.000  0.001  0.001
   32  0.000  0.000  0.001  0.001
   33  0.001  0.000  0.003  0.004
   34  0.000  0.000  0.001  0.001
   35  0.000  0.000  0.000  0.000
   36  0.000  0.003  0.062  0.066
   37  0.000  0.185  0.000  0.185
   38  0.000  0.416  0.000  0.416
tot    0.002  0.605  0.076  0.683
 
band     7 # energy   -5.29245390 # occ.  2.00000000
 
ion      s      p      d    tot
    1  0.010  0.000  0.001  0.011
    2  0.009  0.000  0.001  0.010
    3  0.009  0.000  0.001  0.010
    4  0.009  0.000  0.001  0.010
    5  0.008  0.000  0.001  0.009
    6  0.009  0.000  0.001  0.010
    7  0.009  0.000  0.001  0.010
    8  0.009  0.000  0.001  0.010
    9  0.009  0.000  0.001  0.010
   10  0.012  0.001  0.011  0.023
   11  0.010  0.001  0.012  0.024
   12  0.012  0.001  0.011  0.023
   13  0.010  0.001  0.012  0.024
   14  0.010  0.001  0.012  0.024
   15  0.011  0.001  0.012  0.024
   16  0.012  0.001  0.011  0.023
   17  0.011  0.001  0.012  0.024
   18  0.011  0.001  0.012  0.024
   19  0.009  0.001  0.010  0.020
   20  0.010  0.001  0.007  0.019
   21  0.010  0.001  0.007  0.019
   22  0.011  0.001  0.012  0.023
   23  0.010  0.001  0.007  0.019
   24  0.011  0.001  0.012  0.023
   25  0.009  0.001  0.010  0.020
   26  0.009  0.001  0.010  0.020
   27  0.011  0.001  0.012  0.023
   28  0.009  0.000  0.001  0.010
   29  0.011  0.001  0.002  0.013
   30  0.011  0.001  0.002  0.013
   31  0.011  0.001  0.002  0.013
   32  0.011  0.001  0.002  0.013
   33  0.011  0.001  0.002  0.013
   34  0.011  0.001  0.002  0.013
   35  0.010  0.000  0.001  0.011
   36  0.013  0.003  0.027  0.043
   37  0.002  0.004  0.000  0.005
   38  0.000  0.002  0.000  0.002
tot    0.366  0.036  0.240  0.642
 
band     8 # energy   -5.07790183 # occ.  2.00000000
 
ion      s      p      d    tot
    1  0.003  0.000  0.010  0.013
    2  0.004  0.000  0.006  0.010
    3  0.004  0.000  0.006  0.010
    4  0.004  0.000  0.006  0.010
    5  0.003  0.000  0.005  0.008
    6  0.004  0.000  0.006  0.010
    7  0.004  0.000  0.006  0.010
    8  0.004  0.000  0.006  0.010
    9  0.005  0.000  0.005  0.010
   10  0.001  0.000  0.018  0.019
   11  0.001  0.000  0.013  0.014
   12  0.001  0.000  0.018  0.019
   13  0.001  0.000  0.013  0.014
   14  0.001  0.000  0.013  0.014
   15  0.000  0.000  0.014  0.014
   16  0.001  0.000  0.018  0.019
   17  0.000  0.000  0.014  0.014
   18  0.000  0.000  0.014  0.014
   19  0.004  0.000  0.021  0.026
   20  0.001  0.000  0.043  0.044
   21  0.001  0.000  0.043  0.044
   22  0.002  0.000  0.020  0.022
   23  0.001  0.000  0.043  0.044
   24  0.002  0.000  0.020  0.022
   25  0.004  0.000  0.021  0.026
   26  0.004  0.000  0.021  0.026
   27  0.002  0.000  0.020  0.022
   28  0.004  0.000  0.016  0.020
   29  0.009  0.000  0.021  0.031
   30  0.009  0.000  0.021  0.031
   31  0.009  0.000  0.021  0.031
   32  0.009  0.000  0.021  0.031
   33  0.009  0.000  0.021  0.031
   34  0.009  0.000  0.021  0.031
   35  0.005  0.000  0.013  0.019
   36  0.029  0.000  0.048  0.077
   37  0.001  0.001  0.000  0.001
   38  0.000  0.000  0.000  0.000
tot    0.151  0.005  0.652  0.809
 
band     9 # energy   -4.91219383 # occ.  2.00000000
 
ion      s      p      d    tot
    1  0.020  0.000  0.012  0.032
    2  0.012  0.000  0.025  0.036
    3  0.012  0.000  0.025  0.036
    4  0.012  0.000  0.025  0.036
    5  0.013  0.000  0.030  0.043
    6  0.012  0.000  0.025  0.036
    7  0.012  0.000  0.025  0.036
    8  0.012  0.000  0.025  0.036
    9  0.005  0.000  0.032  0.037
   10  0.000  0.001  0.029  0.029
   11  0.000  0.000  0.023  0.024
   12  0.000  0.001  0.029  0.029
   13  0.000  0.000  0.023  0.024
   14  0.000  0.000  0.023  0.024
   15  0.007  0.001  0.014  0.022
   16  0.000  0.001  0.029  0.029
   17  0.007  0.001  0.014  0.022
   18  0.007  0.001  0.014  0.022
   19  0.005  0.000  0.006  0.011
   20  0.000  0.000  0.013  0.014
   21  0.000  0.000  0.013  0.014
   22  0.002  0.000  0.006  0.008
   23  0.000  0.000  0.013  0.014
   24  0.002  0.000  0.006  0.008
   25  0.005  0.000  0.006  0.011
   26  0.005  0.000  0.006  0.011
   27  0.002  0.000  0.006  0.008
   28  0.000  0.000  0.006  0.007
   29  0.001  0.000  0.012  0.013
   30  0.001  0.000  0.012  0.013
   31  0.001  0.000  0.012  0.013
   32  0.001  0.000  0.012  0.013
   33  0.001  0.000  0.012  0.013
   34  0.001  0.000  0.012  0.013
   35  0.000  0.000  0.001  0.001
   36  0.016  0.001  0.020  0.037
   37  0.001  0.001  0.000  0.001
   38  0.000  0.000  0.000  0.000
tot    0.177  0.013  0.592  0.783
 
band    10 # energy   -4.88371896 # occ.  2.00000000
 
ion      s      p      d    tot
    1  0.000  0.000  0.008  0.008
    2  0.000  0.000  0.003  0.003
    3  0.001  0.000  0.004  0.005
    4  0.000  0.000  0.003  0.003
    5  0.000  0.000  0.007  0.007
    6  0.002  0.001  0.004  0.006
    7  0.001  0.000  0.004  0.005
    8  0.002  0.001  0.004  0.006
    9  0.000  0.000  0.000  0.000
   10  0.017  0.001  0.006  0.023
   11  0.005  0.001  0.030  0.036
   12  0.004  0.000  0.051  0.055
   13  0.005  0.001  0.030  0.037
   14  0.020  0.001  0.022  0.043
   15  0.000  0.001  0.023  0.024
   16  0.004  0.000  0.051  0.056
   17  0.000  0.001  0.023  0.024
   18  0.000  0.000  0.025  0.025
   19  0.001  0.001  0.016  0.018
   20  0.032  0.001  0.018  0.050
   21  0.008  0.001  0.044  0.053
   22  0.003  0.000  0.060  0.063
   23  0.008  0.001  0.044  0.053
   24  0.010  0.001  0.006  0.017
   25  0.004  0.000  0.033  0.038
   26  0.001  0.001  0.016  0.018
   27  0.003  0.000  0.061  0.064
   28  0.000  0.000  0.001  0.001
   29  0.002  0.001  0.005  0.008
   30  0.001  0.000  0.005  0.006
   31  0.002  0.001  0.005  0.008
   32  0.000  0.000  0.003  0.003
   33  0.001  0.000  0.005  0.006
   34  0.000  0.000  0.003  0.003
   35  0.000  0.000  0.005  0.005
   36  0.000  0.001  0.010  0.011
   37  0.000  0.000  0.000  0.000
   38  0.000  0.002  0.000  0.002
tot    0.138  0.021  0.637  0.796
 
band    11 # energy   -4.88370758 # occ.  2.00000000
 
ion      s      p      d    tot
    1  0.000  0.000  0.008  0.008
    2  0.002  0.000  0.004  0.006
    3  0.001  0.000  0.003  0.005
    4  0.002  0.000  0.004  0.006
    5  0.000  0.000  0.007  0.007
    6  0.000  0.000  0.003  0.003
    7  0.001  0.000  0.003  0.005
    8  0.000  0.000  0.003  0.003
    9  0.000  0.000  0.000  0.000
   10  0.000  0.000  0.066  0.066
   11  0.015  0.001  0.025  0.041
   12  0.012  0.001  0.021  0.034
   13  0.015  0.001  0.025  0.041
   14  0.000  0.001  0.033  0.034
   15  0.000  0.000  0.024  0.025
   16  0.013  0.001  0.020  0.034
   17  0.000  0.000  0.024  0.025
   18  0.000  0.001  0.022  0.023
   19  0.003  0.000  0.028  0.031
   20  0.000  0.001  0.053  0.054
   21  0.024  0.001  0.027  0.051
   22  0.008  0.001  0.025  0.033
   23  0.024  0.001  0.026  0.051
   24  0.000  0.000  0.079  0.079
   25  0.000  0.002  0.010  0.012
   26  0.003  0.001  0.027  0.031
   27  0.008  0.001  0.024  0.032
   28  0.000  0.000  0.001  0.001
   29  0.000  0.000  0.003  0.003
   30  0.001  0.000  0.004  0.005
   31  0.000  0.000  0.003  0.003
   32  0.002  0.001  0.006  0.008
   33  0.001  0.000  0.004  0.006
   34  0.002  0.001  0.006  0.009
   35  0.000  0.000  0.005  0.005
   36  0.000  0.001  0.010  0.011
   37  0.000  0.000  0.000  0.000
   38  0.000  0.002  0.000  0.002
tot    0.138  0.021  0.637  0.796
 
band    12 # energy   -4.87258399 # occ.  2.00000000
 
ion      s      p      d    tot
    1  0.000  0.000  0.003  0.003
    2  0.000  0.000  0.003  0.004
    3  0.000  0.000  0.003  0.003
    4  0.000  0.000  0.003  0.003
    5  0.000  0.000  0.003  0.003
    6  0.001  0.000  0.005  0.006
    7  0.000  0.000  0.003  0.003
    8  0.001  0.000  0.005  0.006
    9  0.000  0.000  0.009  0.009
   10  0.000  0.001  0.017  0.018
   11  0.005  0.000  0.027  0.032
   12  0.004  0.001  0.030  0.035
   13  0.005  0.000  0.025  0.031
   14  0.000  0.000  0.070  0.070
   15  0.018  0.001  0.023  0.042
   16  0.004  0.001  0.030  0.035
   17  0.018  0.001  0.023  0.042
   18  0.000  0.001  0.047  0.048
   19  0.016  0.001  0.025  0.041
   20  0.000  0.001  0.059  0.059
   21  0.001  0.000  0.032  0.033
   22  0.010  0.001  0.029  0.040
   23  0.001  0.000  0.033  0.034
   24  0.000  0.002  0.015  0.017
   25  0.000  0.000  0.069  0.070
   26  0.017  0.001  0.023  0.040
   27  0.010  0.001  0.028  0.039
   28  0.000  0.000  0.007  0.007
   29  0.001  0.000  0.004  0.006
   30  0.001  0.000  0.004  0.005
   31  0.001  0.000  0.004  0.006
   32  0.000  0.000  0.002  0.002
   33  0.001  0.000  0.004  0.005
   34  0.000  0.000  0.002  0.002
   35  0.000  0.000  0.004  0.005
   36  0.000  0.000  0.002  0.002
   37  0.000  0.000  0.000  0.000
   38  0.000  0.001  0.000  0.001
tot    0.115  0.017  0.674  0.807
 
band    13 # energy   -4.87258198 # occ.  2.00000000
 
ion      s      p      d    tot
    1  0.000  0.000  0.003  0.003
    2  0.001  0.000  0.004  0.005
    3  0.001  0.000  0.004  0.005
    4  0.001  0.000  0.004  0.005
    5  0.000  0.000  0.003  0.003
    6  0.000  0.000  0.002  0.002
    7  0.001  0.000  0.004  0.006
    8  0.000  0.000  0.002  0.002
    9  0.000  0.000  0.009  0.009
   10  0.006  0.000  0.035  0.040
   11  0.002  0.000  0.055  0.057
   12  0.001  0.001  0.021  0.024
   13  0.002  0.000  0.056  0.058
   14  0.006  0.001  0.011  0.018
   15  0.006  0.001  0.039  0.046
   16  0.001  0.001  0.021  0.024
   17  0.006  0.001  0.040  0.046
   18  0.024  0.001  0.015  0.040
   19  0.006  0.000  0.053  0.059
   20  0.001  0.000  0.023  0.025
   21  0.000  0.001  0.050  0.051
   22  0.003  0.001  0.019  0.024
   23  0.000  0.001  0.049  0.050
   24  0.013  0.000  0.033  0.047
   25  0.022  0.001  0.009  0.031
   26  0.005  0.000  0.055  0.060
   27  0.004  0.001  0.020  0.024
   28  0.000  0.000  0.007  0.007
   29  0.000  0.000  0.002  0.003
   30  0.000  0.000  0.003  0.004
   31  0.000  0.000  0.002  0.003
   32  0.001  0.000  0.005  0.006
   33  0.000  0.000  0.003  0.004
   34  0.001  0.000  0.005  0.006
   35  0.000  0.000  0.004  0.005
   36  0.000  0.000  0.002  0.002
   37  0.000  0.000  0.000  0.000
   38  0.000  0.001  0.000  0.001
tot    0.116  0.017  0.674  0.807
 
band    14 # energy   -4.87003640 # occ.  2.00000000
 
ion      s      p      d    tot
    1  0.000  0.000  0.018  0.019
    2  0.002  0.000  0.008  0.010
    3  0.002  0.000  0.008  0.010
    4  0.002  0.000  0.008  0.010
    5  0.000  0.000  0.005  0.005
    6  0.002  0.000  0.008  0.010
    7  0.002  0.000  0.008  0.010
    8  0.002  0.000  0.008  0.010
    9  0.010  0.001  0.000  0.011
   10  0.001  0.000  0.054  0.055
   11  0.011  0.001  0.007  0.019
   12  0.001  0.000  0.054  0.055
   13  0.011  0.001  0.007  0.019
   14  0.011  0.001  0.007  0.020
   15  0.009  0.000  0.042  0.051
   16  0.001  0.000  0.054  0.055
   17  0.009  0.000  0.042  0.051
   18  0.009  0.000  0.042  0.051
   19  0.000  0.000  0.038  0.038
   20  0.012  0.001  0.016  0.029
   21  0.012  0.001  0.015  0.029
   22  0.002  0.001  0.012  0.014
   23  0.012  0.001  0.015  0.029
   24  0.002  0.001  0.012  0.014
   25  0.000  0.000  0.038  0.038
   26  0.000  0.000  0.038  0.038
   27  0.002  0.001  0.012  0.014
   28  0.007  0.000  0.000  0.007
   29  0.002  0.000  0.008  0.010
   30  0.002  0.000  0.008  0.010
   31  0.002  0.000  0.008  0.010
   32  0.002  0.000  0.008  0.010
   33  0.002  0.000  0.008  0.010
   34  0.002  0.000  0.008  0.010
   35  0.002  0.000  0.004  0.006
   36  0.000  0.003  0.002  0.005
   37  0.000  0.001  0.000  0.001
   38  0.000  0.001  0.000  0.001
tot    0.142  0.020  0.632  0.793
 
band    15 # energy   -4.86207328 # occ.  2.00000000
 
ion      s      p      d    tot
    1  0.002  0.001  0.005  0.007
    2  0.000  0.000  0.004  0.005
    3  0.000  0.000  0.004  0.005
    4  0.000  0.000  0.004  0.005
    5  0.004  0.001  0.004  0.009
    6  0.000  0.000  0.004  0.005
    7  0.000  0.000  0.004  0.005
    8  0.000  0.000  0.004  0.005
    9  0.000  0.000  0.001  0.001
   10  0.012  0.001  0.016  0.029
   11  0.006  0.000  0.062  0.067
   12  0.012  0.001  0.016  0.029
   13  0.006  0.000  0.062  0.067
   14  0.006  0.000  0.061  0.067
   15  0.001  0.001  0.027  0.028
   16  0.012  0.001  0.016  0.029
   17  0.001  0.001  0.027  0.028
   18  0.001  0.001  0.026  0.028
   19  0.012  0.001  0.015  0.028
   20  0.001  0.001  0.022  0.024
   21  0.001  0.001  0.022  0.024
   22  0.005  0.000  0.059  0.064
   23  0.001  0.001  0.022  0.024
   24  0.005  0.000  0.059  0.064
   25  0.012  0.001  0.015  0.028
   26  0.012  0.001  0.015  0.028
   27  0.005  0.000  0.059  0.064
   28  0.002  0.001  0.004  0.006
   29  0.000  0.000  0.003  0.004
   30  0.000  0.000  0.003  0.004
   31  0.000  0.000  0.003  0.004
   32  0.000  0.000  0.003  0.004
   33  0.000  0.000  0.003  0.004
   34  0.000  0.000  0.003  0.004
   35  0.003  0.001  0.005  0.010
   36  0.000  0.000  0.000  0.001
   37  0.000  0.000  0.000  0.000
   38  0.000  0.000  0.000  0.000
tot    0.122  0.017  0.667  0.806
 
band    16 # energy   -4.84060681 # occ.  2.00000000
 
ion      s      p      d    tot
    1  0.000  0.000  0.008  0.008
    2  0.001  0.000  0.009  0.010
    3  0.001  0.000  0.009  0.010
    4  0.001  0.000  0.009  0.010
    5  0.000  0.000  0.001  0.001
    6  0.001  0.000  0.009  0.010
    7  0.001  0.000  0.009  0.010
    8  0.001  0.000  0.009  0.010
    9  0.006  0.000  0.009  0.015
   10  0.004  0.000  0.013  0.017
   11  0.001  0.000  0.038  0.039
   12  0.004  0.000  0.013  0.016
   13  0.001  0.000  0.038  0.039
   14  0.001  0.000  0.037  0.038
   15  0.000  0.000  0.042  0.042
   16  0.004  0.000  0.013  0.016
   17  0.000  0.000  0.042  0.042
   18  0.000  0.000  0.042  0.042
   19  0.002  0.001  0.002  0.005
   20  0.001  0.000  0.038  0.039
   21  0.001  0.000  0.038  0.039
   22  0.003  0.000  0.063  0.066
   23  0.001  0.000  0.038  0.039
   24  0.003  0.000  0.063  0.067
   25  0.002  0.001  0.002  0.005
   26  0.002  0.001  0.002  0.005
   27  0.003  0.000  0.063  0.066
   28  0.008  0.000  0.001  0.009
   29  0.002  0.000  0.013  0.015
   30  0.002  0.000  0.013  0.015
   31  0.002  0.000  0.013  0.015
   32  0.002  0.000  0.013  0.015
   33  0.002  0.000  0.013  0.015
   34  0.002  0.000  0.013  0.015
   35  0.004  0.000  0.025  0.028
   36  0.000  0.000  0.000  0.001
   37  0.000  0.000  0.000  0.000
   38  0.000  0.000  0.000  0.000
tot    0.067  0.007  0.761  0.835
 
band    17 # energy   -4.83922140 # occ.  2.00000000
 
ion      s      p      d    tot
    1  0.000  0.000  0.014  0.015
    2  0.001  0.000  0.007  0.009
    3  0.000  0.000  0.010  0.010
    4  0.001  0.000  0.007  0.009
    5  0.000  0.000  0.011  0.011
    6  0.003  0.001  0.005  0.009
    7  0.000  0.000  0.010  0.010
    8  0.003  0.001  0.005  0.009
    9  0.000  0.000  0.004  0.005
   10  0.000  0.000  0.083  0.084
   11  0.001  0.000  0.036  0.037
   12  0.010  0.000  0.033  0.043
   13  0.001  0.000  0.036  0.037
   14  0.000  0.000  0.012  0.012
   15  0.005  0.000  0.029  0.034
   16  0.010  0.000  0.032  0.042
   17  0.005  0.000  0.029  0.035
   18  0.000  0.000  0.073  0.073
   19  0.000  0.000  0.031  0.031
   20  0.000  0.000  0.060  0.060
   21  0.004  0.000  0.023  0.027
   22  0.003  0.000  0.023  0.026
   23  0.004  0.000  0.022  0.027
   24  0.000  0.000  0.033  0.033
   25  0.000  0.000  0.021  0.021
   26  0.000  0.000  0.031  0.031
   27  0.003  0.000  0.023  0.026
   28  0.000  0.000  0.013  0.013
   29  0.002  0.000  0.006  0.008
   30  0.003  0.001  0.005  0.009
   31  0.002  0.000  0.006  0.008
   32  0.000  0.000  0.006  0.007
   33  0.003  0.001  0.005  0.009
   34  0.000  0.000  0.006  0.007
   35  0.000  0.000  0.003  0.003
   36  0.000  0.001  0.009  0.009
   37  0.000  0.000  0.000  0.000
   38  0.000  0.000  0.000  0.000
tot    0.065  0.009  0.764  0.838
 
band    18 # energy   -4.83919071 # occ.  2.00000000
 
ion      s      p      d    tot
    1  0.000  0.000  0.014  0.015
    2  0.002  0.001  0.008  0.010
    3  0.003  0.000  0.005  0.009
    4  0.002  0.001  0.008  0.010
    5  0.000  0.000  0.011  0.011
    6  0.000  0.000  0.009  0.010
    7  0.003  0.000  0.005  0.009
    8  0.000  0.000  0.009  0.010
    9  0.000  0.000  0.004  0.005
   10  0.013  0.000  0.015  0.029
   11  0.000  0.000  0.019  0.020
   12  0.003  0.000  0.066  0.070
   13  0.000  0.000  0.020  0.020
   14  0.001  0.000  0.045  0.046
   15  0.002  0.000  0.058  0.060
   16  0.003  0.000  0.067  0.070
   17  0.002  0.000  0.057  0.059
   18  0.007  0.000  0.015  0.022
   19  0.000  0.000  0.024  0.024
   20  0.005  0.000  0.010  0.016
   21  0.001  0.000  0.047  0.049
   22  0.001  0.000  0.030  0.031
   23  0.001  0.000  0.048  0.049
   24  0.004  0.000  0.020  0.024
   25  0.000  0.000  0.034  0.034
   26  0.000  0.000  0.024  0.025
   27  0.001  0.000  0.030  0.031
   28  0.000  0.000  0.013  0.013
   29  0.001  0.000  0.006  0.008
   30  0.000  0.000  0.007  0.007
   31  0.001  0.000  0.006  0.008
   32  0.003  0.000  0.005  0.009
   33  0.000  0.000  0.007  0.007
   34  0.003  0.000  0.005  0.009
   35  0.000  0.000  0.003  0.003
   36  0.000  0.001  0.009  0.009
   37  0.000  0.000  0.000  0.000
   38  0.000  0.000  0.000  0.000
tot    0.065  0.009  0.764  0.838
 
band    19 # energy   -4.83279934 # occ.  2.00000000
 
ion      s      p      d    tot
    1  0.000  0.000  0.008  0.008
    2  0.002  0.000  0.007  0.009
    3  0.000  0.000  0.009  0.009
    4  0.002  0.000  0.007  0.009
    5  0.000  0.000  0.005  0.006
    6  0.002  0.000  0.005  0.008
    7  0.000  0.000  0.009  0.009
    8  0.002  0.000  0.005  0.008
    9  0.000  0.000  0.018  0.018
   10  0.000  0.000  0.035  0.035
   11  0.002  0.000  0.055  0.057
   12  0.000  0.000  0.021  0.021
   13  0.002  0.000  0.053  0.055
   14  0.007  0.000  0.006  0.014
   15  0.001  0.000  0.041  0.042
   16  0.000  0.000  0.020  0.020
   17  0.001  0.000  0.041  0.042
   18  0.004  0.000  0.034  0.038
   19  0.002  0.000  0.063  0.065
   20  0.000  0.000  0.044  0.044
   21  0.000  0.000  0.022  0.022
   22  0.002  0.000  0.047  0.049
   23  0.000  0.000  0.021  0.021
   24  0.007  0.000  0.031  0.039
   25  0.008  0.000  0.005  0.013
   26  0.002  0.000  0.061  0.063
   27  0.002  0.000  0.048  0.050
   28  0.000  0.000  0.005  0.006
   29  0.001  0.000  0.008  0.009
   30  0.002  0.000  0.004  0.006
   31  0.001  0.000  0.008  0.009
   32  0.000  0.000  0.009  0.009
   33  0.002  0.000  0.004  0.006
   34  0.000  0.000  0.009  0.009
   35  0.000  0.000  0.014  0.014
   36  0.000  0.000  0.005  0.005
   37  0.000  0.000  0.000  0.000
   38  0.000  0.000  0.000  0.000
tot    0.054  0.007  0.785  0.846
 
band    20 # energy   -4.83276436 # occ.  2.00000000
 
ion      s      p      d    tot
    1  0.000  0.000  0.007  0.008
    2  0.001  0.000  0.007  0.008
    3  0.003  0.000  0.005  0.008
    4  0.001  0.000  0.007  0.008
    5  0.000  0.000  0.005  0.006
    6  0.000  0.000  0.009  0.009
    7  0.003  0.000  0.005  0.008
    8  0.000  0.000  0.009  0.009
    9  0.000  0.000  0.018  0.018
   10  0.000  0.000  0.015  0.015
   11  0.005  0.000  0.021  0.027
   12  0.000  0.000  0.030  0.030
   13  0.005  0.000  0.023  0.028
   14  0.000  0.000  0.070  0.070
   15  0.003  0.000  0.036  0.039
   16  0.000  0.000  0.030  0.031
   17  0.003  0.000  0.037  0.039
   18  0.000  0.000  0.043  0.043
   19  0.006  0.000  0.023  0.029
   20  0.000  0.000  0.014  0.014
   21  0.000  0.000  0.036  0.037
   22  0.005  0.000  0.037  0.043
   23  0.000  0.000  0.037  0.037
   24  0.000  0.000  0.053  0.053
   25  0.000  0.000  0.080  0.080
   26  0.006  0.000  0.025  0.031
   27  0.005  0.000  0.037  0.042
   28  0.000  0.000  0.005  0.006
   29  0.001  0.000  0.006  0.007
   30  0.000  0.000  0.010  0.010
   31  0.001  0.000  0.005  0.007
   32  0.002  0.000  0.005  0.007
   33  0.000  0.000  0.010  0.010
   34  0.002  0.000  0.005  0.007
   35  0.000  0.000  0.014  0.014
   36  0.000  0.000  0.005  0.005
   37  0.000  0.000  0.000  0.000
   38  0.000  0.000  0.000  0.000
tot    0.054  0.007  0.785  0.846
 
band    21 # energy   -4.81842346 # occ.  2.00000000
 
ion      s      p      d    tot
    1  0.004  0.000  0.003  0.008
    2  0.000  0.000  0.011  0.011
    3  0.000  0.000  0.011  0.011
    4  0.000  0.000  0.011  0.011
    5  0.005  0.001  0.000  0.006
    6  0.000  0.000  0.011  0.011
    7  0.000  0.000  0.011  0.011
    8  0.000  0.000  0.011  0.011
    9  0.000  0.000  0.007  0.007
   10  0.001  0.000  0.041  0.042
   11  0.002  0.000  0.015  0.018
   12  0.001  0.000  0.041  0.042
   13  0.002  0.000  0.015  0.018
   14  0.002  0.000  0.016  0.018
   15  0.001  0.000  0.031  0.032
   16  0.001  0.000  0.041  0.042