PROCAR new format
# of k-points:   10         # of bands:  252         # of ions:   37

 k-point     1 :    0.00000000 0.00000000 0.00000000     weight = 0.01562500

band     1 # energy   -6.39443378 # occ.  2.00000000
 
ion      s      p      d    tot
    1  0.006  0.001  0.000  0.007
    2  0.006  0.001  0.000  0.007
    3  0.006  0.001  0.000  0.007
    4  0.006  0.001  0.000  0.007
    5  0.006  0.001  0.000  0.007
    6  0.006  0.001  0.000  0.007
    7  0.006  0.001  0.000  0.007
    8  0.006  0.001  0.000  0.007
    9  0.006  0.001  0.000  0.007
   10  0.023  0.000  0.000  0.024
   11  0.024  0.000  0.000  0.024
   12  0.023  0.000  0.000  0.024
   13  0.024  0.000  0.000  0.024
   14  0.024  0.000  0.000  0.024
   15  0.023  0.000  0.000  0.024
   16  0.023  0.000  0.000  0.024
   17  0.023  0.000  0.000  0.024
   18  0.023  0.000  0.000  0.024
   19  0.022  0.000  0.000  0.023
   20  0.024  0.000  0.000  0.025
   21  0.024  0.000  0.000  0.025
   22  0.023  0.000  0.000  0.023
   23  0.024  0.000  0.000  0.025
   24  0.023  0.000  0.000  0.023
   25  0.022  0.000  0.000  0.023
   26  0.022  0.000  0.000  0.023
   27  0.023  0.000  0.000  0.023
   28  0.005  0.001  0.000  0.006
   29  0.005  0.001  0.000  0.006
   30  0.005  0.001  0.000  0.006
   31  0.005  0.001  0.000  0.006
   32  0.005  0.001  0.000  0.006
   33  0.005  0.001  0.000  0.006
   34  0.005  0.001  0.000  0.006
   35  0.005  0.001  0.000  0.006
   36  0.007  0.000  0.000  0.008
   37  0.001  0.000  0.000  0.001
tot    0.525  0.013  0.006  0.544
 
band     2 # energy   -5.52588696 # occ.  2.00000000
 
ion      s      p      d    tot
    1  0.008  0.000  0.000  0.009
    2  0.008  0.000  0.000  0.009
    3  0.008  0.000  0.000  0.009
    4  0.008  0.000  0.000  0.009
    5  0.008  0.000  0.000  0.009
    6  0.008  0.000  0.000  0.009
    7  0.008  0.000  0.000  0.009
    8  0.008  0.000  0.000  0.009
    9  0.008  0.000  0.000  0.009
   10  0.011  0.001  0.015  0.027
   11  0.011  0.001  0.014  0.026
   12  0.011  0.001  0.015  0.027
   13  0.011  0.001  0.014  0.026
   14  0.011  0.001  0.014  0.026
   15  0.011  0.001  0.014  0.026
   16  0.011  0.001  0.015  0.027
   17  0.011  0.001  0.014  0.026
   18  0.011  0.001  0.014  0.026
   19  0.012  0.001  0.016  0.028
   20  0.014  0.001  0.017  0.032
   21  0.014  0.001  0.017  0.032
   22  0.011  0.001  0.015  0.027
   23  0.014  0.001  0.017  0.032
   24  0.011  0.001  0.015  0.027
   25  0.012  0.001  0.016  0.028
   26  0.012  0.001  0.016  0.028
   27  0.011  0.001  0.015  0.027
   28  0.007  0.000  0.000  0.007
   29  0.007  0.000  0.000  0.007
   30  0.007  0.000  0.000  0.007
   31  0.007  0.000  0.000  0.007
   32  0.007  0.000  0.000  0.007
   33  0.007  0.000  0.000  0.007
   34  0.007  0.000  0.000  0.007
   35  0.006  0.000  0.000  0.007
   36  0.010  0.000  0.001  0.011
   37  0.002  0.000  0.000  0.002
tot    0.346  0.025  0.280  0.650
 
band     3 # energy   -5.23315604 # occ.  2.00000000
 
ion      s      p      d    tot
    1  0.012  0.000  0.027  0.040
    2  0.015  0.000  0.024  0.039
    3  0.015  0.000  0.024  0.039
    4  0.015  0.000  0.024  0.039
    5  0.015  0.000  0.023  0.038
    6  0.015  0.000  0.024  0.039
    7  0.015  0.000  0.024  0.039
    8  0.015  0.000  0.024  0.039
    9  0.017  0.000  0.023  0.040
   10  0.001  0.000  0.020  0.021
   11  0.001  0.000  0.025  0.026
   12  0.001  0.000  0.020  0.021
   13  0.001  0.000  0.025  0.026
   14  0.001  0.000  0.025  0.026
   15  0.000  0.000  0.024  0.025
   16  0.001  0.000  0.020  0.021
   17  0.000  0.000  0.024  0.025
   18  0.000  0.000  0.024  0.025
   19  0.000  0.000  0.009  0.009
   20  0.000  0.000  0.014  0.014
   21  0.000  0.000  0.014  0.014
   22  0.000  0.000  0.011  0.012
   23  0.000  0.000  0.014  0.014
   24  0.000  0.000  0.011  0.012
   25  0.000  0.000  0.009  0.009
   26  0.000  0.000  0.009  0.009
   27  0.000  0.000  0.011  0.012
   28  0.004  0.000  0.007  0.011
   29  0.005  0.000  0.006  0.011
   30  0.005  0.000  0.006  0.011
   31  0.005  0.000  0.006  0.011
   32  0.005  0.000  0.006  0.011
   33  0.005  0.000  0.006  0.011
   34  0.005  0.000  0.006  0.011
   35  0.004  0.000  0.007  0.011
   36  0.008  0.000  0.000  0.008
   37  0.001  0.000  0.000  0.001
tot    0.188  0.006  0.574  0.768
 
band     4 # energy   -5.13604024 # occ.  2.00000000
 
ion      s      p      d    tot
    1  0.010  0.001  0.000  0.012
    2  0.001  0.000  0.007  0.008
    3  0.001  0.000  0.007  0.008
    4  0.001  0.000  0.007  0.008
    5  0.000  0.000  0.006  0.006
    6  0.001  0.000  0.007  0.008
    7  0.001  0.000  0.007  0.008
    8  0.001  0.000  0.007  0.008
    9  0.000  0.001  0.007  0.008
   10  0.004  0.000  0.051  0.055
   11  0.000  0.001  0.022  0.023
   12  0.004  0.000  0.051  0.055
   13  0.000  0.001  0.022  0.023
   14  0.000  0.001  0.022  0.023
   15  0.012  0.001  0.006  0.020
   16  0.004  0.000  0.051  0.055
   17  0.012  0.001  0.006  0.020
   18  0.012  0.001  0.006  0.020
   19  0.000  0.001  0.031  0.032
   20  0.006  0.000  0.064  0.070
   21  0.006  0.000  0.064  0.070
   22  0.015  0.001  0.005  0.021
   23  0.006  0.000  0.064  0.070
   24  0.015  0.001  0.005  0.021
   25  0.000  0.001  0.031  0.032
   26  0.000  0.001  0.031  0.032
   27  0.015  0.001  0.005  0.021
   28  0.000  0.000  0.004  0.004
   29  0.000  0.000  0.006  0.006
   30  0.000  0.000  0.006  0.006
   31  0.000  0.000  0.006  0.006
   32  0.000  0.000  0.006  0.006
   33  0.000  0.000  0.006  0.006
   34  0.000  0.000  0.006  0.006
   35  0.002  0.001  0.004  0.006
   36  0.012  0.001  0.002  0.015
   37  0.002  0.000  0.000  0.002
tot    0.147  0.016  0.636  0.799
 
band     5 # energy   -5.11076405 # occ.  2.00000000
 
ion      s      p      d    tot
    1  0.001  0.000  0.000  0.001
    2  0.000  0.000  0.005  0.006
    3  0.000  0.000  0.005  0.006
    4  0.000  0.000  0.005  0.006
    5  0.004  0.001  0.004  0.010
    6  0.000  0.000  0.005  0.006
    7  0.000  0.000  0.005  0.006
    8  0.000  0.000  0.005  0.006
    9  0.002  0.000  0.004  0.005
   10  0.008  0.001  0.005  0.014
   11  0.013  0.001  0.040  0.053
   12  0.008  0.001  0.005  0.013
   13  0.013  0.001  0.040  0.053
   14  0.013  0.001  0.040  0.053
   15  0.001  0.000  0.052  0.053
   16  0.008  0.001  0.005  0.013
   17  0.001  0.000  0.052  0.053
   18  0.001  0.000  0.052  0.053
   19  0.012  0.001  0.030  0.043
   20  0.006  0.001  0.013  0.020
   21  0.006  0.001  0.013  0.020
   22  0.001  0.000  0.054  0.055
   23  0.006  0.001  0.013  0.020
   24  0.001  0.000  0.054  0.055
   25  0.012  0.001  0.030  0.042
   26  0.012  0.001  0.030  0.043
   27  0.001  0.000  0.054  0.055
   28  0.004  0.001  0.005  0.009
   29  0.000  0.000  0.003  0.004
   30  0.000  0.000  0.003  0.004
   31  0.000  0.000  0.003  0.004
   32  0.000  0.000  0.003  0.004
   33  0.000  0.000  0.003  0.004
   34  0.000  0.000  0.003  0.004
   35  0.002  0.000  0.005  0.008
   36  0.000  0.000  0.000  0.000
   37  0.000  0.000  0.000  0.000
tot    0.131  0.017  0.652  0.800
 
band     6 # energy   -5.10494964 # occ.  2.00000000
 
ion      s      p      d    tot
    1  0.000  0.000  0.000  0.000
    2  0.000  0.000  0.004  0.004
    3  0.002  0.001  0.006  0.008
    4  0.000  0.000  0.004  0.004
    5  0.000  0.000  0.008  0.009
    6  0.001  0.000  0.003  0.004
    7  0.002  0.001  0.006  0.008
    8  0.001  0.000  0.003  0.004
    9  0.000  0.000  0.006  0.007
   10  0.000  0.000  0.029  0.029
   11  0.006  0.000  0.077  0.083
   12  0.000  0.001  0.039  0.040
   13  0.006  0.000  0.077  0.083
   14  0.023  0.001  0.003  0.027
   15  0.005  0.001  0.025  0.032
   16  0.000  0.001  0.039  0.040
   17  0.005  0.001  0.025  0.032
   18  0.022  0.000  0.031  0.054
   19  0.002  0.000  0.043  0.045
   20  0.004  0.000  0.031  0.035
   21  0.001  0.001  0.020  0.022
   22  0.005  0.001  0.034  0.040
   23  0.001  0.001  0.020  0.022
   24  0.021  0.001  0.014  0.036
   25  0.007  0.001  0.009  0.017
   26  0.002  0.000  0.043  0.045
   27  0.005  0.001  0.034  0.040
   28  0.000  0.000  0.003  0.003
   29  0.001  0.000  0.003  0.005
   30  0.000  0.000  0.002  0.002
   31  0.001  0.000  0.003  0.005
   32  0.001  0.000  0.003  0.004
   33  0.000  0.000  0.002  0.002
   34  0.001  0.000  0.003  0.004
   35  0.000  0.000  0.008  0.008
   36  0.000  0.000  0.000  0.000
   37  0.000  0.000  0.000  0.000
tot    0.126  0.017  0.660  0.802
 
band     7 # energy   -5.10494285 # occ.  2.00000000
 
ion      s      p      d    tot
    1  0.000  0.000  0.000  0.000
    2  0.002  0.001  0.005  0.007
    3  0.000  0.000  0.003  0.003
    4  0.002  0.001  0.005  0.007
    5  0.000  0.000  0.008  0.009
    6  0.001  0.000  0.005  0.007
    7  0.000  0.000  0.003  0.003
    8  0.001  0.000  0.005  0.007
    9  0.000  0.000  0.006  0.007
   10  0.000  0.001  0.043  0.044
   11  0.017  0.001  0.028  0.046
   12  0.000  0.000  0.032  0.032
   13  0.017  0.001  0.028  0.046
   14  0.000  0.000  0.101  0.101
   15  0.016  0.001  0.029  0.047
   16  0.000  0.000  0.032  0.032
   17  0.016  0.001  0.029  0.047
   18  0.000  0.002  0.022  0.024
   19  0.005  0.000  0.020  0.026
   20  0.000  0.001  0.017  0.018
   21  0.003  0.000  0.027  0.031
   22  0.016  0.001  0.021  0.037
   23  0.003  0.000  0.027  0.031
   24  0.000  0.001  0.040  0.041
   25  0.000  0.000  0.054  0.054
   26  0.005  0.000  0.020  0.026
   27  0.016  0.001  0.021  0.037
   28  0.000  0.000  0.003  0.003
   29  0.000  0.000  0.002  0.003
   30  0.002  0.000  0.004  0.005
   31  0.000  0.000  0.002  0.003
   32  0.000  0.000  0.002  0.003
   33  0.002  0.000  0.004  0.005
   34  0.000  0.000  0.002  0.003
   35  0.000  0.000  0.008  0.008
   36  0.000  0.000  0.000  0.000
   37  0.000  0.000  0.000  0.000
tot    0.126  0.017  0.660  0.802
 
band     8 # energy   -5.09909852 # occ.  2.00000000
 
ion      s      p      d    tot
    1  0.000  0.000  0.009  0.010
    2  0.001  0.000  0.004  0.006
    3  0.000  0.000  0.003  0.003
    4  0.001  0.001  0.005  0.007
    5  0.000  0.000  0.002  0.002
    6  0.001  0.000  0.005  0.007
    7  0.000  0.000  0.003  0.003
    8  0.001  0.000  0.005  0.006
    9  0.000  0.000  0.003  0.003
   10  0.026  0.001  0.015  0.042
   11  0.001  0.001  0.017  0.020
   12  0.009  0.001  0.042  0.052
   13  0.002  0.001  0.021  0.024
   14  0.007  0.000  0.038  0.045
   15  0.001  0.000  0.070  0.071
   16  0.005  0.001  0.048  0.053
   17  0.002  0.000  0.059  0.062
   18  0.007  0.001  0.011  0.019
   19  0.002  0.001  0.018  0.022
   20  0.019  0.001  0.007  0.028
   21  0.006  0.000  0.050  0.057
   22  0.000  0.000  0.040  0.041
   23  0.004  0.000  0.059  0.063
   24  0.001  0.000  0.023  0.024
   25  0.013  0.001  0.028  0.042
   26  0.004  0.001  0.020  0.025
   27  0.000  0.001  0.044  0.044
   28  0.000  0.000  0.004  0.004
   29  0.000  0.000  0.003  0.003
   30  0.001  0.000  0.004  0.006
   31  0.000  0.000  0.002  0.003
   32  0.000  0.000  0.002  0.002
   33  0.001  0.000  0.004  0.005
   34  0.000  0.000  0.002  0.002
   35  0.000  0.000  0.001  0.001
   36  0.000  0.000  0.001  0.001
   37  0.000  0.000  0.000  0.000
tot    0.117  0.016  0.673  0.807
 
band     9 # energy   -5.09909702 # occ.  2.00000000
 
ion      s      p      d    tot
    1  0.000  0.000  0.009  0.010
    2  0.000  0.000  0.004  0.004
    3  0.002  0.001  0.005  0.007
    4  0.000  0.000  0.003  0.003
    5  0.000  0.000  0.002  0.002
    6  0.000  0.000  0.003  0.004
    7  0.002  0.001  0.005  0.007
    8  0.001  0.000  0.003  0.004
    9  0.000  0.000  0.003  0.003
   10  0.000  0.001  0.055  0.056
   11  0.005  0.000  0.034  0.040
   12  0.018  0.001  0.028  0.047
   13  0.004  0.001  0.030  0.035
   14  0.000  0.002  0.013  0.014
   15  0.006  0.000  0.024  0.030
   16  0.022  0.001  0.022  0.045
   17  0.005  0.000  0.034  0.039
   18  0.000  0.000  0.082  0.083
   19  0.011  0.001  0.026  0.037
   20  0.000  0.000  0.070  0.071
   21  0.013  0.001  0.027  0.041
   22  0.000  0.000  0.031  0.032
   23  0.016  0.001  0.018  0.035
   24  0.000  0.001  0.048  0.049
   25  0.000  0.001  0.016  0.017
   26  0.009  0.001  0.024  0.034
   27  0.000  0.000  0.028  0.028
   28  0.000  0.000  0.004  0.004
   29  0.001  0.000  0.003  0.004
   30  0.000  0.000  0.001  0.001
   31  0.001  0.000  0.003  0.004
   32  0.001  0.000  0.004  0.005
   33  0.000  0.000  0.002  0.002
   34  0.001  0.000  0.004  0.005
   35  0.000  0.000  0.001  0.001
   36  0.000  0.000  0.001  0.001
   37  0.000  0.000  0.000  0.000
tot    0.117  0.016  0.673  0.807
 
band    10 # energy   -5.08271422 # occ.  2.00000000
 
ion      s      p      d    tot
    1  0.001  0.001  0.007  0.009
    2  0.000  0.000  0.009  0.009
    3  0.000  0.000  0.009  0.009
    4  0.000  0.000  0.009  0.009
    5  0.001  0.000  0.005  0.006
    6  0.000  0.000  0.009  0.009
    7  0.000  0.000  0.009  0.009
    8  0.000  0.000  0.009  0.009
    9  0.006  0.000  0.001  0.008
   10  0.004  0.000  0.020  0.024
   11  0.000  0.000  0.059  0.059
   12  0.004  0.000  0.020  0.024
   13  0.000  0.000  0.059  0.059
   14  0.000  0.000  0.059  0.059
   15  0.001  0.000  0.025  0.027
   16  0.004  0.000  0.020  0.024
   17  0.001  0.000  0.025  0.027
   18  0.001  0.000  0.025  0.027
   19  0.004  0.000  0.007  0.011
   20  0.001  0.000  0.047  0.048
   21  0.001  0.000  0.047  0.048
   22  0.002  0.000  0.058  0.060
   23  0.001  0.000  0.047  0.048
   24  0.002  0.000  0.058  0.060
   25  0.004  0.000  0.007  0.011
   26  0.004  0.000  0.007  0.011
   27  0.002  0.000  0.058  0.060
   28  0.005  0.001  0.001  0.007
   29  0.000  0.000  0.009  0.009
   30  0.000  0.000  0.009  0.009
   31  0.000  0.000  0.009  0.009
   32  0.000  0.000  0.009  0.009
   33  0.000  0.000  0.009  0.009
   34  0.000  0.000  0.009  0.009
   35  0.000  0.000  0.013  0.014
   36  0.003  0.000  0.000  0.003
   37  0.000  0.000  0.000  0.000
tot    0.055  0.007  0.781  0.843
 
band    11 # energy   -5.07342913 # occ.  2.00000000
 
ion      s      p      d    tot
    1  0.005  0.000  0.014  0.018
    2  0.001  0.000  0.010  0.011
    3  0.001  0.000  0.010  0.011
    4  0.001  0.000  0.010  0.011
    5  0.001  0.001  0.002  0.004
    6  0.001  0.000  0.010  0.011
    7  0.001  0.000  0.010  0.011
    8  0.001  0.000  0.010  0.011
    9  0.001  0.000  0.003  0.004
   10  0.000  0.000  0.069  0.069
   11  0.006  0.000  0.008  0.014
   12  0.000  0.000  0.069  0.069
   13  0.006  0.000  0.008  0.014
   14  0.006  0.000  0.007  0.014
   15  0.003  0.000  0.044  0.047
   16  0.000  0.000  0.069  0.069
   17  0.003  0.000  0.044  0.047
   18  0.003  0.000  0.044  0.047
   19  0.001  0.000  0.053  0.054
   20  0.001  0.001  0.013  0.015
   21  0.001  0.001  0.013  0.015
   22  0.001  0.000  0.026  0.027
   23  0.001  0.001  0.013  0.015
   24  0.001  0.000  0.026  0.027
   25  0.001  0.000  0.053  0.054
   26  0.001  0.000  0.053  0.054
   27  0.001  0.000  0.026  0.027
   28  0.003  0.000  0.015  0.018
   29  0.001  0.000  0.007  0.008
   30  0.001  0.000  0.007  0.008
   31  0.001  0.000  0.007  0.008
   32  0.001  0.000  0.007  0.008
   33  0.001  0.000  0.007  0.008
   34  0.001  0.000  0.007  0.008
   35  0.000  0.000  0.002  0.002
   36  0.004  0.000  0.001  0.005
   37  0.001  0.000  0.000  0.001
tot    0.059  0.007  0.776  0.842
 
band    12 # energy   -5.06240917 # occ.  2.00000000
 
ion      s      p      d    tot
    1  0.000  0.000  0.019  0.019
    2  0.003  0.000  0.006  0.009
    3  0.001  0.000  0.009  0.010
    4  0.003  0.000  0.006  0.009
    5  0.000  0.000  0.007  0.007
    6  0.001  0.000  0.007  0.009
    7  0.001  0.000  0.009  0.010
    8  0.001  0.000  0.007  0.009
    9  0.000  0.000  0.007  0.007
   10  0.000  0.000  0.042  0.042
   11  0.001  0.000  0.031  0.032
   12  0.002  0.000  0.036  0.038
   13  0.001  0.000  0.031  0.032
   14  0.000  0.000  0.017  0.017
   15  0.005  0.000  0.022  0.027
   16  0.002  0.000  0.036  0.038
   17  0.005  0.000  0.022  0.027
   18  0.000  0.000  0.068  0.068
   19  0.006  0.000  0.035  0.041
   20  0.000  0.000  0.088  0.088
   21  0.006  0.000  0.027  0.034
   22  0.000  0.000  0.032  0.032
   23  0.006  0.000  0.027  0.034
   24  0.000  0.000  0.014  0.015
   25  0.000  0.000  0.053  0.054
   26  0.006  0.000  0.035  0.041
   27  0.000  0.000  0.032  0.032
   28  0.000  0.000  0.012  0.012
   29  0.000  0.000  0.007  0.008
   30  0.002  0.000  0.004  0.006
   31  0.000  0.000  0.007  0.008
   32  0.002  0.001  0.005  0.007
   33  0.002  0.000  0.004  0.006
   34  0.002  0.001  0.005  0.007
   35  0.000  0.000  0.005  0.005
   36  0.000  0.000  0.001  0.001
   37  0.000  0.000  0.000  0.000
tot    0.057  0.008  0.780  0.844
 
band    13 # energy   -5.06236848 # occ.  2.00000000
 
ion      s      p      d    tot
    1  0.000  0.000  0.019  0.020
    2  0.000  0.000  0.009  0.009
    3  0.002  0.000  0.006  0.009
    4  0.000  0.000  0.009  0.009
    5  0.000  0.000  0.007  0.007
    6  0.002  0.000  0.008  0.010
    7  0.002  0.000  0.006  0.009
    8  0.002  0.000  0.008  0.010
    9  0.000  0.000  0.007  0.007
   10  0.003  0.000  0.034  0.037
   11  0.000  0.000  0.022  0.022
   12  0.001  0.000  0.040  0.041
   13  0.000  0.000  0.022  0.022
   14  0.001  0.000  0.036  0.037
   15  0.002  0.000  0.052  0.054
   16  0.001  0.000  0.040  0.041
   17  0.002  0.000  0.052  0.054
   18  0.006  0.000  0.007  0.013
   19  0.002  0.000  0.048  0.050
   20  0.008  0.000  0.007  0.016
   21  0.002  0.000  0.068  0.070
   22  0.000  0.000  0.020  0.021
   23  0.002  0.000  0.068  0.070
   24  0.000  0.000  0.039  0.039
   25  0.008  0.000  0.029  0.037
   26  0.002  0.000  0.048  0.050
   27  0.000  0.000  0.020  0.021
   28  0.000  0.000  0.012  0.012
   29  0.002  0.000  0.004  0.006
   30  0.001  0.000  0.007  0.008
   31  0.002  0.000  0.004  0.006
   32  0.001  0.000  0.006  0.007
   33  0.001  0.000  0.007  0.008
   34  0.001  0.000  0.006  0.007
   35  0.000  0.000  0.005  0.005
   36  0.000  0.000  0.001  0.001
   37  0.000  0.000  0.000  0.000
tot    0.057  0.008  0.780  0.844
 
band    14 # energy   -5.05067000 # occ.  2.00000000
 
ion      s      p      d    tot
    1  0.000  0.000  0.005  0.005
    2  0.004  0.001  0.006  0.011
    3  0.001  0.000  0.010  0.011
    4  0.004  0.001  0.006  0.011
    5  0.000  0.000  0.015  0.016
    6  0.001  0.000  0.009  0.010
    7  0.001  0.000  0.010  0.011
    8  0.001  0.000  0.009  0.010
    9  0.000  0.000  0.018  0.018
   10  0.007  0.000  0.013  0.020
   11  0.002  0.000  0.050  0.051
   12  0.002  0.000  0.043  0.045
   13  0.002  0.000  0.049  0.051
   14  0.007  0.000  0.018  0.025
   15  0.000  0.000  0.024  0.024
   16  0.002  0.000  0.043  0.045
   17  0.000  0.000  0.025  0.025
   18  0.000  0.000  0.047  0.047
   19  0.001  0.000  0.047  0.049
   20  0.001  0.000  0.043  0.045
   21  0.000  0.000  0.021  0.021
   22  0.003  0.000  0.063  0.066
   23  0.000  0.000  0.021  0.021
   24  0.012  0.000  0.012  0.024
   25  0.005  0.000  0.015  0.020
   26  0.001  0.000  0.047  0.048
   27  0.003  0.000  0.063  0.066
   28  0.000  0.000  0.003  0.003
   29  0.000  0.000  0.006  0.006
   30  0.001  0.000  0.002  0.003
   31  0.000  0.000  0.006  0.007
   32  0.001  0.001  0.005  0.007
   33  0.001  0.000  0.002  0.003
   34  0.001  0.001  0.005  0.007
   35  0.000  0.000  0.007  0.007
   36  0.000  0.000  0.001  0.001
   37  0.000  0.000  0.000  0.000
tot    0.064  0.008  0.771  0.842
 
band    15 # energy   -5.05063314 # occ.  2.00000000
 
ion      s      p      d    tot
    1  0.000  0.000  0.005  0.005
    2  0.000  0.000  0.011  0.011
    3  0.003  0.001  0.007  0.010
    4  0.000  0.000  0.011  0.011
    5  0.000  0.000  0.015  0.016
    6  0.003  0.000  0.008  0.011
    7  0.003  0.001  0.007  0.010
    8  0.003  0.000  0.008  0.011
    9  0.000  0.000  0.018  0.018
   10  0.000  0.000  0.053  0.053
   11  0.005  0.000  0.028  0.034
   12  0.005  0.000  0.024  0.029
   13  0.005  0.000  0.029  0.034
   14  0.000  0.000  0.060  0.060
   15  0.000  0.000  0.039  0.040
   16  0.005  0.000  0.023  0.028
   17  0.000  0.000  0.039  0.039
   18  0.000  0.000  0.017  0.017
   19  0.003  0.000  0.026  0.029
   20  0.000  0.000  0.013  0.013
   21  0.001  0.000  0.035  0.037
   22  0.009  0.000  0.029  0.038
   23  0.001  0.000  0.036  0.037
   24  0.000  0.000  0.080  0.080
   25  0.000  0.000  0.058  0.058
   26  0.003  0.000  0.026  0.029
   27  0.009  0.000  0.029  0.038
   28  0.000  0.000  0.003  0.003
   29  0.002  0.000  0.002  0.005
   30  0.001  0.000  0.007  0.008
   31  0.002  0.000  0.002  0.004
   32  0.000  0.000  0.004  0.004
   33  0.001  0.000  0.007  0.008
   34  0.000  0.000  0.004  0.004
   35  0.000  0.000  0.007  0.007
   36  0.000  0.000  0.001  0.001
   37  0.000  0.000  0.000  0.000
tot    0.063  0.008  0.771  0.842
 
band    16 # energy   -5.01906018 # occ.  2.00000000
 
ion      s      p      d    tot
    1  0.001  0.000  0.004  0.004
    2  0.002  0.000  0.010  0.012
    3  0.002  0.000  0.010  0.012
    4  0.002  0.000  0.010  0.012
    5  0.006  0.000  0.005  0.011
    6  0.002  0.000  0.010  0.012
    7  0.002  0.000  0.010  0.012
    8  0.002  0.000  0.010  0.012
    9  0.001  0.000  0.017  0.019
   10  0.002  0.000  0.004  0.006
   11  0.001  0.000  0.011  0.012
   12  0.002  0.000  0.004  0.006
   13  0.001  0.000  0.011  0.012
   14  0.001  0.000  0.011  0.012
   15  0.001  0.000  0.017  0.018
   16  0.002  0.000  0.004  0.006
   17  0.001  0.000  0.017  0.018
   18  0.001  0.000  0.017  0.018
   19  0.002  0.000  0.017  0.020
   20  0.004  0.001  0.031  0.036
   21  0.004  0.001  0.031  0.036
   22  0.001  0.001  0.023  0.024
   23  0.004  0.001  0.031  0.036
   24  0.001  0.001  0.023  0.024
   25  0.002  0.000  0.017  0.020
   26  0.002  0.000  0.017  0.020
   27  0.001  0.001  0.023  0.024
   28  0.008  0.000  0.018  0.026
   29  0.012  0.000  0.027  0.039
   30  0.012  0.000  0.027  0.039
   31  0.012  0.000  0.027  0.039
   32  0.012  0.000  0.027  0.039
   33  0.012  0.000  0.027  0.039
   34  0.012  0.000  0.027  0.039
   35  0.023  0.000  0.024  0.048
   36  0.009  0.001  0.001  0.011
   37  0.002  0.000  0.000  0.002
tot    0.165  0.010  0.604  0.779
 
band    17 # energy   -4.90159903 # occ.  2.00000000
 
ion      s      p      d    tot
    1  0.002  0.001  0.001  0.003
    2  0.000  0.000  0.009  0.010
    3  0.000  0.000  0.009  0.009
    4  0.000  0.000  0.009  0.010
    5  0.001  0.000  0.013  0.014
    6  0.000  0.000  0.009  0.009
    7  0.000  0.000  0.009  0.009
    8  0.000  0.000  0.009  0.009
    9  0.001  0.000  0.008  0.009
   10  0.000  0.000  0.018  0.018
   11  0.000  0.000  0.048  0.049
   12  0.000  0.000  0.017  0.018
   13  0.000  0.000  0.048  0.049
   14  0.000  0.000  0.048  0.049
   15  0.001  0.001  0.052  0.054
   16  0.000  0.000  0.017  0.018
   17  0.001  0.001  0.052  0.054
   18  0.001  0.001  0.052  0.054
   19  0.000  0.000  0.023  0.024
   20  0.000  0.000  0.053  0.054
   21  0.000  0.000  0.053  0.053
   22  0.002  0.001  0.030  0.032
   23  0.000  0.000  0.053  0.053
   24  0.002  0.001  0.030  0.032
   25  0.000  0.000  0.023  0.024
   26  0.000  0.000  0.023  0.024
   27  0.002  0.001  0.030  0.032
   28  0.009  0.001  0.003  0.012
   29  0.001  0.000  0.010  0.012
   30  0.001  0.000  0.010  0.012
   31  0.001  0.000  0.010  0.012
   32  0.001  0.000  0.010  0.012
   33  0.001  0.000  0.010  0.012
   34  0.001  0.000  0.010  0.012
   35  0.001  0.000  0.000  0.001
   36  0.001  0.001  0.002  0.004
   37  0.000  0.000  0.000  0.000
tot    0.034  0.014  0.813  0.861
 
band    18 # energy   -4.89597465 # occ.  2.00000000
 
ion      s      p      d    tot
    1  0.000  0.000  0.008  0.009
    2  0.000  0.000  0.010  0.011
    3  0.000  0.000  0.010  0.011
    4  0.000  0.000  0.010  0.011
    5  0.003  0.001  0.006  0.009
    6  0.000  0.000  0.010  0.011
    7  0.000  0.000  0.010  0.011
    8  0.000  0.000  0.010  0.011
    9  0.002  0.000  0.001  0.004
   10  0.002  0.001  0.058  0.060
   11  0.000  0.001  0.039  0.039
   12  0.002  0.001  0.057  0.060
   13  0.000  0.001  0.039  0.039
   14  0.000  0.001  0.038  0.039
   15  0.001  0.000  0.020  0.021
   16  0.002  0.001  0.057  0.060
   17  0.001  0.000  0.020  0.021
   18  0.001  0.000  0.020  0.021
   19  0.002  0.001  0.055  0.057
   20  0.001  0.000  0.026  0.028
   21  0.001  0.000  0.026  0.027
   22  0.000  0.000  0.032  0.032
   23  0.001  0.000  0.026  0.027
   24  0.000  0.000  0.031  0.031
   25  0.002  0.001  0.054  0.057
   26  0.002  0.001  0.055  0.057
   27  0.000  0.000  0.032  0.032
   28  0.001  0.000  0.007  0.008
   29  0.000  0.000  0.008  0.008
   30  0.000  0.000  0.008  0.008
   31  0.000  0.000  0.008  0.008
   32  0.000  0.000  0.008  0.008
   33  0.000  0.000  0.008  0.008
   34  0.000  0.000  0.008  0.008
   35  0.002  0.001  0.004  0.007
   36  0.002  0.000  0.001  0.002
   37  0.000  0.000  0.000  0.000
tot    0.027  0.015  0.818  0.860
 
band    19 # energy   -4.88866216 # occ.  2.00000000
 
ion      s      p      d    tot
    1  0.000  0.000  0.005  0.005
    2  0.000  0.000  0.011  0.011
    3  0.001  0.000  0.005  0.007
    4  0.000  0.000  0.011  0.011
    5  0.000  0.001  0.018  0.019
    6  0.001  0.001  0.008  0.010
    7  0.001  0.000  0.005  0.007
    8  0.001  0.001  0.008  0.010
    9  0.000  0.000  0.006  0.006
   10  0.000  0.000  0.072  0.073
   11  0.002  0.000  0.054  0.056
   12  0.000  0.001  0.036  0.037
   13  0.002  0.000  0.055  0.056
   14  0.000  0.000  0.072  0.072
   15  0.001  0.001  0.028  0.030
   16  0.000  0.001  0.036  0.036
   17  0.001  0.001  0.027  0.029
   18  0.000  0.000  0.000  0.000
   19  0.003  0.000  0.040  0.043
   20  0.000  0.000  0.078  0.078
   21  0.001  0.000  0.041  0.043
   22  0.000  0.001  0.019  0.020
   23  0.001  0.000  0.041  0.042
   24  0.000  0.000  0.009  0.009
   25  0.000  0.000  0.033  0.033
   26  0.003  0.000  0.040  0.043
   27  0.000  0.001  0.019  0.021
   28  0.000  0.001  0.015  0.016
   29  0.000  0.000  0.006  0.007
   30  0.002  0.001  0.005  0.007
   31  0.000  0.000  0.006  0.007
   32  0.000  0.000  0.005  0.005
   33  0.002  0.001  0.005  0.007
   34  0.000  0.000  0.004  0.005
   35  0.000  0.000  0.001  0.001
   36  0.000  0.001  0.001  0.002
   37  0.000  0.000  0.000  0.000
tot    0.024  0.015  0.826  0.865
 
band    20 # energy   -4.88861856 # occ.  2.00000000
 
ion      s      p      d    tot
    1  0.000  0.000  0.005  0.005
    2  0.002  0.001  0.005  0.008
    3  0.001  0.001  0.011  0.012
    4  0.002  0.001  0.005  0.008
    5  0.000  0.001  0.018  0.019
    6  0.000  0.000  0.008  0.008
    7  0.001  0.001  0.011  0.012
    8  0.000  0.000  0.008  0.008
    9  0.000  0.000  0.006  0.006
   10  0.000  0.001  0.023  0.024
   11  0.001  0.000  0.068  0.069
   12  0.000  0.000  0.059  0.059
   13  0.001  0.000  0.068  0.068
   14  0.002  0.000  0.048  0.051
   15  0.000  0.000  0.009  0.010
   16  0.000  0.000  0.059  0.060
   17  0.000  0.000  0.010  0.011
   18  0.001  0.001  0.038  0.040
   19  0.001  0.000  0.034  0.035
   20  0.002  0.000  0.029  0.030
   21  0.000  0.000  0.066  0.066
   22  0.000  0.000  0.013  0.014
   23  0.000  0.000  0.067  0.067
   24  0.000  0.001  0.022  0.024
   25  0.003  0.001  0.043  0.047
   26  0.001  0.000  0.034  0.035
   27  0.000  0.000  0.013  0.014
   28  0.000  0.001  0.015  0.016
   29  0.001  0.000  0.004  0.006
   30  0.000  0.000  0.006  0.006
   31  0.001  0.000  0.004  0.006
   32  0.001  0.001  0.006  0.008
   33  0.000  0.000  0.006  0.006
   34  0.001  0.001  0.006  0.008
   35  0.000  0.000  0.001  0.001
   36  0.000  0.001  0.001  0.002
   37  0.000  0.000  0.000  0.000
tot    0.024  0.015  0.825  0.865
 
band    21 # energy   -4.88724145 # occ.  2.00000000
 
ion      s      p      d    tot
    1  0.000  0.001  0.015  0.015
    2  0.000  0.000  0.010  0.010
    3  0.001  0.000  0.005  0.006
    4  0.000  0.000  0.010  0.011
    5  0.000  0.000  0.000  0.000
    6  0.001  0.001  0.009  0.011
    7  0.001  0.000  0.005  0.006
    8  0.001  0.001  0.009  0.011
    9  0.000  0.001  0.015  0.016
   10  0.002  0.001  0.050  0.053
   11  0.000  0.000  0.023  0.024
   12  0.001  0.000  0.029  0.030
   13  0.000  0.000  0.023  0.024
   14  0.000  0.001  0.025  0.026
   15  0.000  0.000  0.082  0.082
   16  0.001  0.000  0.029  0.029
   17  0.000  0.000  0.080  0.081
   18  0.002  0.000  0.034  0.036
   19  0.000  0.000  0.040  0.040
   20  0.002  0.001  0.032  0.036
   21  0.001  0.000  0.010  0.011
   22  0.001  0.000  0.063  0.064
   23  0.001  0.000  0.009  0.010
   24  0.003  0.000  0.043  0.046
   25  0.000  0.001  0.019  0.019
   26  0.000  0.000  0.039  0.040
   27  0.001  0.000  0.064  0.065
   28  0.000  0.000  0.002  0.002
   29  0.000  0.000  0.007  0.008
   30  0.001  0.001  0.004  0.006
   31  0.000  0.000  0.007  0.008
   32  0.000  0.000  0.005  0.006
   33  0.001  0.001  0.004  0.006
   34  0.000  0.000  0.005  0.006
   35  0.000  0.001  0.017  0.018
   36  0.000  0.000  0.001  0.001