PROCAR new format
# of k-points:   10         # of bands:  252         # of ions:   38

 k-point     1 :    0.00000000 0.00000000 0.00000000     weight = 0.01562500

band     1 # energy  -55.41544137 # occ.  2.00000000
 
ion      s      p      d    tot
    1  0.000  0.000  0.000  0.000
    2  0.000  0.000  0.000  0.000
    3  0.000  0.000  0.000  0.000
    4  0.000  0.000  0.000  0.000
    5  0.000  0.000  0.000  0.000
    6  0.000  0.000  0.000  0.000
    7  0.000  0.000  0.000  0.000
    8  0.000  0.000  0.000  0.000
    9  0.000  0.000  0.000  0.000
   10  0.000  0.000  0.000  0.000
   11  0.000  0.000  0.000  0.000
   12  0.000  0.000  0.000  0.000
   13  0.000  0.000  0.000  0.000
   14  0.000  0.000  0.000  0.000
   15  0.000  0.000  0.000  0.000
   16  0.000  0.000  0.000  0.000
   17  0.000  0.000  0.000  0.000
   18  0.000  0.000  0.000  0.000
   19  0.000  0.000  0.000  0.000
   20  0.000  0.000  0.000  0.000
   21  0.000  0.000  0.000  0.000
   22  0.000  0.000  0.000  0.000
   23  0.000  0.000  0.000  0.000
   24  0.000  0.000  0.000  0.000
   25  0.000  0.000  0.000  0.000
   26  0.000  0.000  0.000  0.000
   27  0.000  0.000  0.000  0.000
   28  0.000  0.000  0.000  0.000
   29  0.000  0.000  0.000  0.000
   30  0.000  0.000  0.000  0.000
   31  0.000  0.000  0.000  0.000
   32  0.000  0.000  0.000  0.000
   33  0.000  0.000  0.000  0.000
   34  0.000  0.000  0.000  0.000
   35  0.000  0.000  0.000  0.000
   36  0.992  0.000  0.000  0.992
   37  0.000  0.000  0.000  0.000
   38  0.000  0.000  0.000  0.000
tot    0.992  0.000  0.000  0.993
 
band     2 # energy  -31.57281959 # occ.  2.00000000
 
ion      s      p      d    tot
    1  0.000  0.000  0.000  0.000
    2  0.000  0.000  0.000  0.000
    3  0.000  0.000  0.000  0.000
    4  0.000  0.000  0.000  0.000
    5  0.000  0.000  0.000  0.000
    6  0.000  0.000  0.000  0.000
    7  0.000  0.000  0.000  0.000
    8  0.000  0.000  0.000  0.000
    9  0.000  0.000  0.000  0.000
   10  0.000  0.000  0.000  0.000
   11  0.000  0.000  0.000  0.000
   12  0.000  0.000  0.000  0.000
   13  0.000  0.000  0.000  0.000
   14  0.000  0.000  0.000  0.000
   15  0.000  0.000  0.000  0.000
   16  0.000  0.000  0.000  0.000
   17  0.000  0.000  0.000  0.000
   18  0.000  0.000  0.000  0.000
   19  0.000  0.000  0.000  0.000
   20  0.000  0.000  0.000  0.000
   21  0.000  0.000  0.000  0.000
   22  0.000  0.000  0.000  0.000
   23  0.000  0.000  0.000  0.000
   24  0.000  0.000  0.000  0.000
   25  0.000  0.000  0.000  0.000
   26  0.000  0.000  0.000  0.000
   27  0.000  0.000  0.000  0.000
   28  0.000  0.000  0.000  0.000
   29  0.000  0.000  0.000  0.000
   30  0.000  0.000  0.000  0.001
   31  0.000  0.000  0.000  0.000
   32  0.000  0.000  0.000  0.000
   33  0.000  0.000  0.000  0.001
   34  0.000  0.000  0.000  0.000
   35  0.000  0.000  0.000  0.000
   36  0.000  0.971  0.000  0.971
   37  0.000  0.000  0.000  0.000
   38  0.000  0.000  0.000  0.000
tot    0.001  0.972  0.001  0.973
 
band     3 # energy  -31.57281080 # occ.  2.00000000
 
ion      s      p      d    tot
    1  0.000  0.000  0.000  0.000
    2  0.000  0.000  0.000  0.000
    3  0.000  0.000  0.000  0.000
    4  0.000  0.000  0.000  0.000
    5  0.000  0.000  0.000  0.000
    6  0.000  0.000  0.000  0.000
    7  0.000  0.000  0.000  0.000
    8  0.000  0.000  0.000  0.000
    9  0.000  0.000  0.000  0.000
   10  0.000  0.000  0.000  0.000
   11  0.000  0.000  0.000  0.000
   12  0.000  0.000  0.000  0.000
   13  0.000  0.000  0.000  0.000
   14  0.000  0.000  0.000  0.000
   15  0.000  0.000  0.000  0.000
   16  0.000  0.000  0.000  0.000
   17  0.000  0.000  0.000  0.000
   18  0.000  0.000  0.000  0.000
   19  0.000  0.000  0.000  0.000
   20  0.000  0.000  0.000  0.000
   21  0.000  0.000  0.000  0.000
   22  0.000  0.000  0.000  0.000
   23  0.000  0.000  0.000  0.000
   24  0.000  0.000  0.000  0.000
   25  0.000  0.000  0.000  0.000
   26  0.000  0.000  0.000  0.000
   27  0.000  0.000  0.000  0.000
   28  0.000  0.000  0.000  0.000
   29  0.000  0.000  0.000  0.001
   30  0.000  0.000  0.000  0.000
   31  0.000  0.000  0.000  0.001
   32  0.000  0.000  0.000  0.001
   33  0.000  0.000  0.000  0.000
   34  0.000  0.000  0.000  0.001
   35  0.000  0.000  0.000  0.000
   36  0.000  0.971  0.000  0.971
   37  0.000  0.000  0.000  0.000
   38  0.000  0.000  0.000  0.000
tot    0.001  0.972  0.001  0.973
 
band     4 # energy  -31.44910752 # occ.  2.00000000
 
ion      s      p      d    tot
    1  0.000  0.000  0.000  0.000
    2  0.000  0.000  0.000  0.000
    3  0.000  0.000  0.000  0.000
    4  0.000  0.000  0.000  0.000
    5  0.000  0.000  0.000  0.000
    6  0.000  0.000  0.000  0.000
    7  0.000  0.000  0.000  0.000
    8  0.000  0.000  0.000  0.000
    9  0.000  0.000  0.000  0.000
   10  0.000  0.000  0.000  0.000
   11  0.000  0.000  0.000  0.000
   12  0.000  0.000  0.000  0.000
   13  0.000  0.000  0.000  0.000
   14  0.000  0.000  0.000  0.000
   15  0.000  0.000  0.000  0.000
   16  0.000  0.000  0.000  0.000
   17  0.000  0.000  0.000  0.000
   18  0.000  0.000  0.000  0.000
   19  0.000  0.000  0.000  0.000
   20  0.000  0.000  0.000  0.000
   21  0.000  0.000  0.000  0.000
   22  0.000  0.000  0.000  0.000
   23  0.000  0.000  0.000  0.000
   24  0.000  0.000  0.000  0.000
   25  0.000  0.000  0.000  0.000
   26  0.000  0.000  0.000  0.000
   27  0.000  0.000  0.000  0.000
   28  0.000  0.000  0.000  0.000
   29  0.000  0.000  0.000  0.000
   30  0.000  0.000  0.000  0.000
   31  0.000  0.000  0.000  0.000
   32  0.000  0.000  0.000  0.000
   33  0.000  0.000  0.000  0.000
   34  0.000  0.000  0.000  0.000
   35  0.000  0.000  0.000  0.000
   36  0.000  0.967  0.000  0.967
   37  0.001  0.001  0.000  0.003
   38  0.000  0.000  0.000  0.000
tot    0.002  0.969  0.000  0.971
 
band     5 # energy  -23.89870734 # occ.  2.00000000
 
ion      s      p      d    tot
    1  0.000  0.000  0.000  0.000
    2  0.000  0.000  0.000  0.000
    3  0.000  0.000  0.000  0.000
    4  0.000  0.000  0.000  0.000
    5  0.000  0.000  0.000  0.000
    6  0.000  0.000  0.000  0.000
    7  0.000  0.000  0.000  0.000
    8  0.000  0.000  0.000  0.000
    9  0.000  0.000  0.000  0.000
   10  0.000  0.000  0.000  0.000
   11  0.000  0.000  0.000  0.000
   12  0.000  0.000  0.000  0.000
   13  0.000  0.000  0.000  0.000
   14  0.000  0.000  0.000  0.000
   15  0.000  0.000  0.000  0.000
   16  0.000  0.000  0.000  0.000
   17  0.000  0.000  0.000  0.000
   18  0.000  0.000  0.000  0.000
   19  0.000  0.000  0.000  0.000
   20  0.000  0.000  0.000  0.000
   21  0.000  0.000  0.000  0.000
   22  0.000  0.000  0.000  0.000
   23  0.000  0.000  0.000  0.000
   24  0.000  0.000  0.000  0.000
   25  0.000  0.000  0.000  0.000
   26  0.000  0.000  0.000  0.000
   27  0.000  0.000  0.000  0.000
   28  0.000  0.000  0.000  0.000
   29  0.000  0.000  0.000  0.000
   30  0.000  0.000  0.000  0.000
   31  0.000  0.000  0.000  0.000
   32  0.000  0.000  0.000  0.000
   33  0.000  0.000  0.000  0.000
   34  0.000  0.000  0.000  0.000
   35  0.000  0.000  0.000  0.000
   36  0.000  0.000  0.000  0.000
   37  0.156  0.117  0.000  0.273
   38  0.641  0.095  0.000  0.735
tot    0.797  0.212  0.000  1.009
 
band     6 # energy   -9.39860425 # occ.  2.00000000
 
ion      s      p      d    tot
    1  0.002  0.000  0.000  0.003
    2  0.002  0.000  0.000  0.003
    3  0.002  0.000  0.000  0.003
    4  0.002  0.000  0.000  0.003
    5  0.002  0.000  0.000  0.003
    6  0.002  0.000  0.000  0.003
    7  0.002  0.000  0.000  0.003
    8  0.002  0.000  0.000  0.003
    9  0.002  0.000  0.000  0.003
   10  0.010  0.000  0.000  0.010
   11  0.010  0.000  0.000  0.010
   12  0.010  0.000  0.000  0.010
   13  0.010  0.000  0.000  0.010
   14  0.010  0.000  0.000  0.010
   15  0.009  0.000  0.000  0.010
   16  0.010  0.000  0.000  0.010
   17  0.009  0.000  0.000  0.010
   18  0.009  0.000  0.000  0.010
   19  0.011  0.000  0.000  0.012
   20  0.013  0.000  0.000  0.014
   21  0.013  0.000  0.000  0.014
   22  0.011  0.000  0.000  0.011
   23  0.013  0.000  0.000  0.014
   24  0.011  0.000  0.000  0.011
   25  0.011  0.000  0.000  0.012
   26  0.011  0.000  0.000  0.012
   27  0.011  0.000  0.000  0.011
   28  0.004  0.000  0.000  0.004
   29  0.005  0.000  0.000  0.005
   30  0.005  0.000  0.000  0.005
   31  0.005  0.000  0.000  0.005
   32  0.005  0.000  0.000  0.005
   33  0.005  0.000  0.000  0.005
   34  0.005  0.000  0.000  0.005
   35  0.004  0.000  0.000  0.004
   36  0.010  0.001  0.009  0.021
   37  0.145  0.000  0.000  0.145
   38  0.083  0.150  0.000  0.234
tot    0.491  0.158  0.009  0.658
 
band     7 # energy   -9.22981581 # occ.  2.00000000
 
ion      s      p      d    tot
    1  0.005  0.000  0.000  0.005
    2  0.004  0.000  0.000  0.005
    3  0.004  0.000  0.000  0.005
    4  0.004  0.000  0.000  0.005
    5  0.004  0.000  0.000  0.005
    6  0.004  0.000  0.000  0.005
    7  0.004  0.000  0.000  0.005
    8  0.004  0.000  0.000  0.005
    9  0.004  0.000  0.000  0.005
   10  0.016  0.000  0.000  0.016
   11  0.015  0.000  0.000  0.015
   12  0.016  0.000  0.000  0.016
   13  0.015  0.000  0.000  0.015
   14  0.015  0.000  0.000  0.015
   15  0.015  0.000  0.000  0.015
   16  0.016  0.000  0.000  0.016
   17  0.015  0.000  0.000  0.015
   18  0.015  0.000  0.000  0.015
   19  0.014  0.000  0.000  0.014
   20  0.010  0.000  0.000  0.011
   21  0.010  0.000  0.000  0.011
   22  0.013  0.000  0.000  0.013
   23  0.010  0.000  0.000  0.011
   24  0.013  0.000  0.000  0.013
   25  0.014  0.000  0.000  0.014
   26  0.014  0.000  0.000  0.014
   27  0.013  0.000  0.000  0.013
   28  0.003  0.000  0.000  0.004
   29  0.002  0.000  0.000  0.003
   30  0.002  0.000  0.000  0.003
   31  0.002  0.000  0.000  0.003
   32  0.002  0.000  0.000  0.003
   33  0.002  0.000  0.000  0.003
   34  0.002  0.000  0.000  0.003
   35  0.003  0.000  0.000  0.003
   36  0.000  0.004  0.006  0.010
   37  0.113  0.000  0.000  0.113
   38  0.072  0.147  0.000  0.219
tot    0.494  0.161  0.007  0.662
 
band     8 # energy   -8.01146282 # occ.  2.00000000
 
ion      s      p      d    tot
    1  0.018  0.001  0.000  0.019
    2  0.017  0.001  0.000  0.019
    3  0.017  0.001  0.000  0.019
    4  0.017  0.001  0.000  0.019
    5  0.018  0.001  0.000  0.019
    6  0.017  0.001  0.000  0.019
    7  0.017  0.001  0.000  0.019
    8  0.017  0.001  0.000  0.019
    9  0.017  0.001  0.000  0.019
   10  0.010  0.002  0.001  0.012
   11  0.010  0.002  0.000  0.013
   12  0.010  0.002  0.001  0.012
   13  0.010  0.002  0.000  0.013
   14  0.010  0.002  0.000  0.013
   15  0.009  0.002  0.001  0.012
   16  0.010  0.002  0.001  0.012
   17  0.009  0.002  0.001  0.012
   18  0.009  0.002  0.001  0.012
   19  0.011  0.002  0.000  0.014
   20  0.009  0.002  0.001  0.011
   21  0.009  0.002  0.001  0.011
   22  0.011  0.002  0.000  0.013
   23  0.009  0.002  0.001  0.011
   24  0.011  0.002  0.000  0.013
   25  0.011  0.002  0.000  0.014
   26  0.011  0.002  0.000  0.014
   27  0.011  0.002  0.000  0.013
   28  0.020  0.001  0.001  0.022
   29  0.019  0.001  0.001  0.020
   30  0.019  0.001  0.001  0.020
   31  0.019  0.001  0.001  0.020
   32  0.019  0.001  0.001  0.020
   33  0.019  0.001  0.001  0.020
   34  0.019  0.001  0.001  0.020
   35  0.020  0.001  0.001  0.021
   36  0.008  0.000  0.000  0.008
   37  0.001  0.003  0.000  0.003
   38  0.002  0.011  0.000  0.013
tot    0.494  0.066  0.019  0.579
 
band     9 # energy   -6.66246593 # occ.  2.00000000
 
ion      s      p      d    tot
    1  0.000  0.000  0.000  0.000
    2  0.000  0.000  0.000  0.000
    3  0.000  0.000  0.000  0.000
    4  0.000  0.000  0.000  0.000
    5  0.000  0.000  0.000  0.000
    6  0.000  0.000  0.000  0.000
    7  0.000  0.000  0.000  0.000
    8  0.000  0.000  0.000  0.000
    9  0.000  0.000  0.000  0.000
   10  0.000  0.000  0.000  0.000
   11  0.000  0.000  0.000  0.000
   12  0.000  0.000  0.000  0.000
   13  0.000  0.000  0.000  0.000
   14  0.000  0.000  0.000  0.000
   15  0.000  0.000  0.000  0.000
   16  0.000  0.000  0.000  0.000
   17  0.000  0.000  0.000  0.000
   18  0.000  0.000  0.000  0.000
   19  0.000  0.000  0.000  0.000
   20  0.000  0.000  0.000  0.000
   21  0.000  0.000  0.000  0.000
   22  0.000  0.000  0.000  0.000
   23  0.000  0.000  0.000  0.000
   24  0.000  0.000  0.000  0.000
   25  0.000  0.000  0.000  0.000
   26  0.000  0.000  0.000  0.000
   27  0.000  0.000  0.000  0.000
   28  0.000  0.000  0.000  0.000
   29  0.000  0.000  0.000  0.001
   30  0.000  0.000  0.000  0.000
   31  0.000  0.000  0.000  0.001
   32  0.000  0.000  0.000  0.001
   33  0.000  0.000  0.000  0.000
   34  0.000  0.000  0.000  0.001
   35  0.000  0.000  0.000  0.000
   36  0.000  0.000  0.006  0.007
   37  0.000  0.171  0.000  0.171
   38  0.000  0.493  0.000  0.493
tot    0.001  0.665  0.009  0.675
 
band    10 # energy   -6.66238881 # occ.  2.00000000
 
ion      s      p      d    tot
    1  0.000  0.000  0.000  0.000
    2  0.000  0.000  0.000  0.000
    3  0.000  0.000  0.000  0.000
    4  0.000  0.000  0.000  0.000
    5  0.000  0.000  0.000  0.000
    6  0.000  0.000  0.000  0.000
    7  0.000  0.000  0.000  0.000
    8  0.000  0.000  0.000  0.000
    9  0.000  0.000  0.000  0.000
   10  0.000  0.000  0.000  0.000
   11  0.000  0.000  0.000  0.000
   12  0.000  0.000  0.000  0.000
   13  0.000  0.000  0.000  0.000
   14  0.000  0.000  0.000  0.000
   15  0.000  0.000  0.000  0.000
   16  0.000  0.000  0.000  0.000
   17  0.000  0.000  0.000  0.000
   18  0.000  0.000  0.000  0.000
   19  0.000  0.000  0.000  0.000
   20  0.000  0.000  0.000  0.000
   21  0.000  0.000  0.000  0.000
   22  0.000  0.000  0.000  0.000
   23  0.000  0.000  0.000  0.000
   24  0.000  0.000  0.000  0.000
   25  0.000  0.000  0.000  0.000
   26  0.000  0.000  0.000  0.000
   27  0.000  0.000  0.000  0.000
   28  0.000  0.000  0.000  0.000
   29  0.000  0.000  0.000  0.000
   30  0.000  0.000  0.001  0.001
   31  0.000  0.000  0.000  0.000
   32  0.000  0.000  0.000  0.000
   33  0.000  0.000  0.001  0.001
   34  0.000  0.000  0.000  0.000
   35  0.000  0.000  0.000  0.000
   36  0.000  0.000  0.006  0.007
   37  0.000  0.171  0.000  0.171
   38  0.000  0.493  0.000  0.493
tot    0.001  0.665  0.009  0.675
 
band    11 # energy   -6.49378385 # occ.  2.00000000
 
ion      s      p      d    tot
    1  0.002  0.000  0.001  0.003
    2  0.003  0.000  0.002  0.005
    3  0.003  0.000  0.002  0.005
    4  0.003  0.000  0.002  0.005
    5  0.011  0.000  0.000  0.012
    6  0.003  0.000  0.002  0.005
    7  0.003  0.000  0.002  0.005
    8  0.003  0.000  0.002  0.005
    9  0.001  0.000  0.002  0.003
   10  0.001  0.002  0.002  0.005
   11  0.002  0.002  0.001  0.005
   12  0.001  0.002  0.002  0.005
   13  0.002  0.002  0.001  0.005
   14  0.002  0.002  0.001  0.005
   15  0.006  0.001  0.001  0.008
   16  0.001  0.002  0.002  0.005
   17  0.006  0.001  0.001  0.008
   18  0.006  0.001  0.001  0.008
   19  0.009  0.000  0.003  0.012
   20  0.004  0.004  0.004  0.011
   21  0.004  0.004  0.004  0.011
   22  0.006  0.002  0.001  0.009
   23  0.004  0.004  0.004  0.011
   24  0.006  0.002  0.001  0.009
   25  0.009  0.000  0.003  0.012
   26  0.009  0.000  0.003  0.012
   27  0.006  0.002  0.001  0.009
   28  0.000  0.001  0.002  0.002
   29  0.002  0.001  0.001  0.004
   30  0.002  0.001  0.001  0.004
   31  0.002  0.001  0.001  0.004
   32  0.002  0.001  0.001  0.004
   33  0.002  0.001  0.001  0.004
   34  0.002  0.001  0.001  0.004
   35  0.000  0.001  0.001  0.002
   36  0.033  0.004  0.040  0.077
   37  0.030  0.159  0.000  0.189
   38  0.008  0.167  0.000  0.175
tot    0.198  0.371  0.098  0.667
 
band    12 # energy   -6.43500517 # occ.  2.00000000
 
ion      s      p      d    tot
    1  0.014  0.000  0.005  0.019
    2  0.012  0.000  0.005  0.017
    3  0.012  0.000  0.005  0.017
    4  0.012  0.000  0.005  0.017
    5  0.004  0.001  0.006  0.010
    6  0.012  0.000  0.005  0.017
    7  0.012  0.000  0.005  0.017
    8  0.012  0.000  0.005  0.017
    9  0.023  0.000  0.003  0.026
   10  0.002  0.003  0.003  0.008
   11  0.013  0.005  0.001  0.019
   12  0.002  0.003  0.003  0.008
   13  0.013  0.005  0.001  0.019
   14  0.013  0.005  0.001  0.019
   15  0.000  0.002  0.004  0.006
   16  0.002  0.003  0.003  0.008
   17  0.000  0.002  0.004  0.006
   18  0.000  0.002  0.004  0.006
   19  0.000  0.002  0.006  0.009
   20  0.023  0.005  0.003  0.031
   21  0.023  0.005  0.003  0.031
   22  0.000  0.004  0.004  0.008
   23  0.023  0.005  0.003  0.031
   24  0.000  0.004  0.004  0.008
   25  0.000  0.002  0.006  0.009
   26  0.000  0.002  0.006  0.009
   27  0.000  0.004  0.004  0.008
   28  0.022  0.000  0.005  0.027
   29  0.015  0.001  0.008  0.023
   30  0.015  0.001  0.008  0.023
   31  0.015  0.001  0.008  0.023
   32  0.015  0.001  0.008  0.023
   33  0.015  0.001  0.008  0.023
   34  0.015  0.001  0.008  0.023
   35  0.028  0.000  0.005  0.033
   36  0.000  0.000  0.019  0.020
   37  0.001  0.005  0.000  0.007
   38  0.000  0.004  0.000  0.004
tot    0.373  0.079  0.180  0.632
 
band    13 # energy   -6.34632444 # occ.  2.00000000
 
ion      s      p      d    tot
    1  0.000  0.003  0.005  0.008
    2  0.007  0.002  0.002  0.011
    3  0.006  0.002  0.002  0.010
    4  0.007  0.002  0.002  0.011
    5  0.000  0.001  0.002  0.003
    6  0.000  0.001  0.002  0.003
    7  0.006  0.002  0.002  0.010
    8  0.000  0.001  0.002  0.003
    9  0.000  0.001  0.004  0.005
   10  0.051  0.002  0.006  0.059
   11  0.000  0.008  0.003  0.012
   12  0.013  0.006  0.008  0.027
   13  0.000  0.008  0.003  0.012
   14  0.002  0.001  0.005  0.007
   15  0.008  0.001  0.011  0.021
   16  0.012  0.007  0.008  0.027
   17  0.009  0.001  0.011  0.021
   18  0.034  0.004  0.002  0.040
   19  0.015  0.006  0.009  0.030
   20  0.034  0.005  0.003  0.041
   21  0.009  0.002  0.013  0.024
   22  0.001  0.009  0.003  0.013
   23  0.008  0.002  0.013  0.023
   24  0.004  0.000  0.006  0.010
   25  0.060  0.002  0.006  0.069
   26  0.016  0.006  0.009  0.031
   27  0.001  0.010  0.003  0.013
   28  0.000  0.004  0.006  0.010
   29  0.008  0.002  0.003  0.013
   30  0.013  0.003  0.004  0.019
   31  0.008  0.002  0.003  0.013
   32  0.001  0.001  0.003  0.005
   33  0.013  0.003  0.004  0.019
   34  0.001  0.001  0.003  0.005
   35  0.000  0.001  0.003  0.004
   36  0.000  0.000  0.006  0.006
   37  0.000  0.000  0.000  0.000
   38  0.000  0.001  0.000  0.001
tot    0.345  0.113  0.180  0.638
 
band    14 # energy   -6.34614336 # occ.  2.00000000
 
ion      s      p      d    tot
    1  0.000  0.003  0.005  0.008
    2  0.002  0.001  0.002  0.004
    3  0.003  0.001  0.002  0.006
    4  0.002  0.001  0.002  0.005
    5  0.000  0.001  0.002  0.003
    6  0.009  0.002  0.002  0.013
    7  0.003  0.001  0.002  0.006
    8  0.009  0.002  0.002  0.013
    9  0.000  0.001  0.004  0.005
   10  0.000  0.008  0.009  0.017
   11  0.001  0.003  0.004  0.009
   12  0.038  0.004  0.006  0.048
   13  0.001  0.003  0.004  0.009
   14  0.000  0.011  0.003  0.013
   15  0.026  0.003  0.005  0.034
   16  0.038  0.004  0.006  0.048
   17  0.025  0.003  0.005  0.034
   18  0.000  0.000  0.014  0.015
   19  0.046  0.004  0.007  0.056
   20  0.000  0.001  0.017  0.017
   21  0.025  0.004  0.006  0.035
   22  0.003  0.004  0.005  0.011
   23  0.025  0.004  0.006  0.035
   24  0.000  0.013  0.002  0.014
   25  0.000  0.008  0.010  0.018
   26  0.045  0.004  0.007  0.056
   27  0.003  0.003  0.005  0.011
   28  0.000  0.004  0.006  0.010
   29  0.006  0.002  0.004  0.011
   30  0.001  0.001  0.003  0.006
   31  0.006  0.002  0.004  0.012
   32  0.013  0.003  0.003  0.020
   33  0.001  0.001  0.003  0.006
   34  0.013  0.003  0.003  0.019
   35  0.000  0.001  0.003  0.004
   36  0.000  0.000  0.006  0.006
   37  0.000  0.000  0.000  0.000
   38  0.000  0.001  0.000  0.001
tot    0.345  0.113  0.180  0.638
 
band    15 # energy   -6.31788197 # occ.  2.00000000
 
ion      s      p      d    tot
    1  0.021  0.003  0.001  0.025
    2  0.000  0.002  0.004  0.006
    3  0.000  0.002  0.004  0.006
    4  0.000  0.002  0.004  0.006
    5  0.001  0.000  0.000  0.002
    6  0.000  0.002  0.004  0.006
    7  0.000  0.002  0.004  0.006
    8  0.000  0.002  0.004  0.006
    9  0.008  0.001  0.000  0.010
   10  0.029  0.006  0.006  0.041
   11  0.005  0.000  0.011  0.017
   12  0.030  0.006  0.006  0.041
   13  0.005  0.000  0.011  0.017
   14  0.005  0.000  0.011  0.017
   15  0.012  0.008  0.003  0.023
   16  0.030  0.006  0.006  0.041
   17  0.012  0.008  0.003  0.023
   18  0.012  0.008  0.003  0.023
   19  0.022  0.009  0.002  0.034
   20  0.000  0.002  0.011  0.013
   21  0.000  0.002  0.011  0.013
   22  0.026  0.002  0.009  0.036
   23  0.000  0.002  0.011  0.013
   24  0.025  0.002  0.009  0.036
   25  0.022  0.009  0.002  0.034
   26  0.022  0.009  0.002  0.034
   27  0.026  0.002  0.009  0.036
   28  0.019  0.003  0.000  0.022
   29  0.000  0.002  0.005  0.007
   30  0.000  0.002  0.005  0.007
   31  0.000  0.002  0.005  0.007
   32  0.000  0.002  0.005  0.007
   33  0.000  0.002  0.005  0.007
   34  0.000  0.002  0.005  0.007
   35  0.014  0.002  0.001  0.017
   36  0.000  0.000  0.000  0.000
   37  0.000  0.000  0.000  0.000
   38  0.000  0.000  0.000  0.000
tot    0.344  0.114  0.182  0.640
 
band    16 # energy   -6.30867525 # occ.  2.00000000
 
ion      s      p      d    tot
    1  0.000  0.000  0.003  0.003
    2  0.008  0.002  0.002  0.012
    3  0.007  0.002  0.002  0.011
    4  0.007  0.002  0.002  0.012
    5  0.000  0.003  0.006  0.008
    6  0.000  0.001  0.002  0.003
    7  0.007  0.002  0.002  0.011
    8  0.000  0.001  0.002  0.003
    9  0.000  0.002  0.003  0.005
   10  0.000  0.005  0.010  0.015
   11  0.045  0.004  0.006  0.056
   12  0.006  0.003  0.005  0.015
   13  0.044  0.004  0.007  0.055
   14  0.000  0.002  0.015  0.017
   15  0.017  0.003  0.005  0.026
   16  0.007  0.003  0.005  0.015
   17  0.017  0.004  0.005  0.026
   18  0.000  0.013  0.002  0.015
   19  0.004  0.003  0.005  0.012
   20  0.000  0.014  0.003  0.016
   21  0.023  0.004  0.006  0.033
   22  0.044  0.004  0.006  0.054
   23  0.024  0.004  0.006  0.034
   24  0.000  0.001  0.016  0.017
   25  0.000  0.006  0.009  0.015
   26  0.004  0.004  0.005  0.012
   27  0.045  0.004  0.006  0.055
   28  0.000  0.000  0.003  0.003
   29  0.008  0.002  0.002  0.012
   30  0.008  0.002  0.004  0.014
   31  0.007  0.002  0.002  0.012
   32  0.000  0.001  0.003  0.004
   33  0.008  0.002  0.004  0.014
   34  0.000  0.001  0.003  0.004
   35  0.000  0.003  0.006  0.009
   36  0.000  0.001  0.004  0.006
   37  0.000  0.000  0.000  0.000
   38  0.000  0.000  0.000  0.000
tot    0.342  0.114  0.180  0.636
 
band    17 # energy   -6.30850881 # occ.  2.00000000
 
ion      s      p      d    tot
    1  0.000  0.000  0.003  0.003
    2  0.002  0.001  0.002  0.005
    3  0.003  0.001  0.002  0.006
    4  0.002  0.001  0.002  0.006
    5  0.000  0.003  0.006  0.008
    6  0.010  0.002  0.002  0.015
    7  0.003  0.001  0.002  0.006
    8  0.010  0.002  0.002  0.015
    9  0.000  0.002  0.003  0.005
   10  0.009  0.003  0.003  0.015
   11  0.014  0.003  0.012  0.029
   12  0.002  0.004  0.008  0.015
   13  0.015  0.003  0.012  0.030
   14  0.060  0.004  0.004  0.068
   15  0.006  0.010  0.003  0.019
   16  0.002  0.004  0.008  0.015
   17  0.006  0.010  0.003  0.019
   18  0.023  0.000  0.006  0.029
   19  0.001  0.005  0.008  0.014
   20  0.031  0.000  0.007  0.039
   21  0.008  0.010  0.004  0.022
   22  0.015  0.002  0.013  0.030
   23  0.008  0.010  0.004  0.022
   24  0.060  0.005  0.003  0.068
   25  0.005  0.003  0.003  0.011
   26  0.001  0.005  0.008  0.014
   27  0.014  0.002  0.013  0.029
   28  0.000  0.000  0.003  0.003
   29  0.003  0.002  0.004  0.008
   30  0.002  0.001  0.002  0.006
   31  0.003  0.002  0.004  0.008
   32  0.010  0.003  0.003  0.016
   33  0.002  0.001  0.002  0.006
   34  0.010  0.003  0.003  0.016
   35  0.000  0.003  0.006  0.009
   36  0.000  0.001  0.004  0.006
   37  0.000  0.000  0.000  0.000
   38  0.000  0.000  0.000  0.000
tot    0.342  0.114  0.180  0.636
 
band    18 # energy   -6.09625023 # occ.  2.00000000
 
ion      s      p      d    tot
    1  0.000  0.000  0.000  0.001
    2  0.001  0.002  0.006  0.009
    3  0.001  0.002  0.006  0.009
    4  0.001  0.002  0.006  0.009
    5  0.034  0.003  0.000  0.037
    6  0.001  0.002  0.006  0.009
    7  0.001  0.002  0.006  0.009
    8  0.001  0.002  0.006  0.009
    9  0.006  0.002  0.003  0.011
   10  0.002  0.003  0.008  0.013
   11  0.019  0.008  0.003  0.029
   12  0.002  0.003  0.008  0.013
   13  0.019  0.008  0.003  0.029
   14  0.019  0.008  0.003  0.029
   15  0.023  0.001  0.011  0.035
   16  0.002  0.003  0.008  0.013
   17  0.023  0.001  0.011  0.035
   18  0.023  0.001  0.011  0.035
   19  0.002  0.002  0.004  0.008
   20  0.008  0.001  0.011  0.020
   21  0.008  0.001  0.011  0.020
   22  0.003  0.004  0.004  0.012
   23  0.008  0.001  0.011  0.020
   24  0.003  0.004  0.004  0.012
   25  0.002  0.002  0.004  0.008
   26  0.002  0.002  0.004  0.008
   27  0.003  0.004  0.004  0.012
   28  0.003  0.000  0.002  0.005
   29  0.002  0.000  0.003  0.005
   30  0.002  0.000  0.003  0.005
   31  0.002  0.000  0.003  0.005
   32  0.002  0.000  0.003  0.005
   33  0.002  0.000  0.003  0.005
   34  0.002  0.000  0.003  0.005
   35  0.001  0.000  0.001  0.002
   36  0.001  0.006  0.028  0.035
   37  0.019  0.068  0.000  0.087
   38  0.002  0.059  0.000  0.061
tot    0.256  0.210  0.206  0.672
 
band    19 # energy   -5.61829718 # occ.  2.00000000
 
ion      s      p      d    tot
    1  0.000  0.004  0.010  0.014
    2  0.004  0.002  0.005  0.010
    3  0.020  0.004  0.005  0.028
    4  0.003  0.002  0.005  0.010
    5  0.000  0.000  0.010  0.010
    6  0.006  0.002  0.005  0.013
    7  0.020  0.004  0.005  0.029
    8  0.007  0.002  0.005  0.014
    9  0.000  0.005  0.008  0.013
   10  0.011  0.001  0.006  0.018
   11  0.001  0.002  0.013  0.016
   12  0.003  0.004  0.014  0.021
   13  0.001  0.002  0.012  0.016
   14  0.004  0.001  0.007  0.012
   15  0.007  0.001  0.017  0.025
   16  0.003  0.004  0.014  0.021
   17  0.007  0.001  0.017  0.025
   18  0.027  0.005  0.005  0.037
   19  0.003  0.002  0.012  0.016
   20  0.000  0.001  0.010  0.012
   21  0.000  0.002  0.014  0.016
   22  0.002  0.002  0.022  0.026
   23  0.000  0.002  0.014  0.016
   24  0.008  0.003  0.003  0.013
   25  0.011  0.006  0.009  0.026
   26  0.003  0.002  0.012  0.017
   27  0.002  0.002  0.023  0.027
   28  0.000  0.004  0.008  0.013
   29  0.006  0.002  0.009  0.017
   30  0.027  0.003  0.010  0.040
   31  0.006  0.002  0.009  0.017
   32  0.008  0.002  0.009  0.019
   33  0.027  0.003  0.010  0.040
   34  0.008  0.002  0.009  0.019
   35  0.000  0.005  0.010  0.016
   36  0.000  0.000  0.016  0.016
   37  0.000  0.000  0.000  0.000
   38  0.000  0.000  0.000  0.000
tot    0.234  0.092  0.371  0.697
 
band    20 # energy   -5.61827064 # occ.  2.00000000
 
ion      s      p      d    tot
    1  0.000  0.004  0.010  0.013
    2  0.016  0.003  0.005  0.024
    3  0.000  0.001  0.005  0.006
    4  0.017  0.003  0.005  0.025
    5  0.000  0.000  0.010  0.010
    6  0.013  0.003  0.005  0.021
    7  0.000  0.001  0.005  0.006
    8  0.013  0.003  0.005  0.021
    9  0.000  0.005  0.008  0.013
   10  0.000  0.005  0.017  0.021
   11  0.003  0.002  0.009  0.014
   12  0.008  0.002  0.009  0.019
   13  0.003  0.002  0.009  0.014
   14  0.000  0.003  0.014  0.017
   15  0.021  0.004  0.009  0.033
   16  0.008  0.002  0.009  0.019
   17  0.020  0.004  0.009  0.033
   18  0.000  0.000  0.021  0.021
   19  0.008  0.005  0.010  0.023
   20  0.000  0.002  0.016  0.018
   21  0.000  0.001  0.012  0.013
   22  0.006  0.003  0.009  0.018
   23  0.000  0.001  0.012  0.013
   24  0.000  0.002  0.029  0.031
   25  0.000  0.000  0.013  0.013
   26  0.008  0.005  0.010  0.023
   27  0.006  0.003  0.009  0.018
   28  0.000  0.004  0.008  0.013
   29  0.021  0.003  0.009  0.034
   30  0.000  0.002  0.008  0.010
   31  0.022  0.003  0.009  0.034
   32  0.019  0.003  0.010  0.032
   33  0.000  0.002  0.008  0.010
   34  0.019  0.003  0.010  0.031
   35  0.000  0.005  0.010  0.016
   36  0.000  0.000  0.016  0.016
   37  0.000  0.000  0.000  0.000
   38  0.000  0.000  0.000  0.000
tot    0.234  0.092  0.371  0.697
 
band    21 # energy   -5.59041137 # occ.  2.00000000
 
ion      s      p      d    tot
    1  0.003  0.001  0.010  0.014
    2  0.006  0.001  0.010  0.016
    3  0.006  0.001  0.010  0.016
    4  0.006  0.001  0.010  0.016
    5  0.002  0.001  0.009  0.012
    6  0.006  0.001  0.010  0.016
    7  0.006  0.001  0.010  0.016
    8  0.006  0.001  0.010  0.016
    9  0.015  0.000  0.008  0.023
   10  0.010  0.000  0.025  0.035
   11  0.008  0.000  0.022  0.030
   12  0.010  0.000  0.025  0.035
   13  0.008  0.000  0.022  0.030
   14  0.008  0.000  0.022  0.030
   15  0.003  0.000  0.023  0.026
   16  0.010  0.000  0.025  0.035