PROCAR new format
# of k-points:   10         # of bands:  256         # of ions:   38

 k-point     1 :    0.00000000 0.00000000 0.00000000     weight = 0.01562500

band     1 # energy  -17.88914928 # occ.  2.00000000
 
ion      s      p      d    tot
    1  0.000  0.000  0.000  0.000
    2  0.000  0.000  0.000  0.000
    3  0.000  0.000  0.000  0.000
    4  0.000  0.000  0.000  0.000
    5  0.000  0.000  0.000  0.000
    6  0.000  0.000  0.000  0.000
    7  0.000  0.000  0.000  0.000
    8  0.000  0.000  0.000  0.000
    9  0.000  0.000  0.000  0.000
   10  0.000  0.000  0.000  0.000
   11  0.000  0.000  0.000  0.000
   12  0.000  0.000  0.000  0.000
   13  0.000  0.000  0.000  0.000
   14  0.000  0.000  0.000  0.000
   15  0.000  0.000  0.000  0.000
   16  0.000  0.000  0.000  0.000
   17  0.000  0.000  0.000  0.000
   18  0.000  0.000  0.000  0.000
   19  0.000  0.000  0.000  0.000
   20  0.000  0.000  0.000  0.000
   21  0.000  0.000  0.000  0.000
   22  0.000  0.000  0.000  0.000
   23  0.000  0.000  0.000  0.000
   24  0.000  0.000  0.000  0.000
   25  0.000  0.000  0.000  0.000
   26  0.000  0.000  0.000  0.000
   27  0.000  0.000  0.000  0.000
   28  0.000  0.000  0.000  0.000
   29  0.000  0.000  0.000  0.000
   30  0.000  0.000  0.000  0.000
   31  0.000  0.000  0.000  0.000
   32  0.000  0.000  0.000  0.000
   33  0.000  0.000  0.000  0.000
   34  0.000  0.000  0.000  0.000
   35  0.000  0.000  0.000  0.000
   36  0.005  0.007  0.009  0.020
   37  0.730  0.021  0.000  0.751
   38  0.123  0.024  0.000  0.148
tot    0.858  0.052  0.009  0.919
 
band     2 # energy   -6.89127744 # occ.  2.00000000
 
ion      s      p      d    tot
    1  0.006  0.001  0.000  0.006
    2  0.006  0.001  0.000  0.006
    3  0.006  0.001  0.000  0.006
    4  0.006  0.001  0.000  0.006
    5  0.006  0.001  0.000  0.006
    6  0.006  0.001  0.000  0.006
    7  0.006  0.001  0.000  0.006
    8  0.006  0.001  0.000  0.006
    9  0.006  0.001  0.000  0.006
   10  0.022  0.000  0.000  0.023
   11  0.022  0.000  0.000  0.023
   12  0.022  0.000  0.000  0.023
   13  0.022  0.000  0.000  0.023
   14  0.022  0.000  0.000  0.023
   15  0.022  0.000  0.000  0.023
   16  0.022  0.000  0.000  0.023
   17  0.022  0.000  0.000  0.023
   18  0.022  0.000  0.000  0.023
   19  0.022  0.000  0.000  0.022
   20  0.023  0.000  0.000  0.023
   21  0.023  0.000  0.000  0.023
   22  0.022  0.000  0.000  0.023
   23  0.023  0.000  0.000  0.023
   24  0.022  0.000  0.000  0.023
   25  0.022  0.000  0.000  0.022
   26  0.022  0.000  0.000  0.022
   27  0.022  0.000  0.000  0.023
   28  0.006  0.001  0.000  0.006
   29  0.006  0.001  0.000  0.006
   30  0.006  0.001  0.000  0.006
   31  0.006  0.001  0.000  0.006
   32  0.006  0.001  0.000  0.006
   33  0.006  0.001  0.000  0.006
   34  0.006  0.001  0.000  0.006
   35  0.006  0.001  0.000  0.006
   36  0.013  0.000  0.004  0.017
   37  0.001  0.020  0.000  0.021
   38  0.007  0.001  0.000  0.008
tot    0.517  0.032  0.010  0.560
 
band     3 # energy   -6.45433447 # occ.  2.00000000
 
ion      s      p      d    tot
    1  0.001  0.000  0.000  0.001
    2  0.001  0.000  0.000  0.001
    3  0.001  0.000  0.000  0.001
    4  0.001  0.000  0.000  0.001
    5  0.001  0.000  0.000  0.002
    6  0.001  0.000  0.000  0.001
    7  0.001  0.000  0.000  0.001
    8  0.001  0.000  0.000  0.001
    9  0.002  0.000  0.000  0.002
   10  0.002  0.000  0.001  0.003
   11  0.003  0.000  0.000  0.003
   12  0.002  0.000  0.001  0.003
   13  0.003  0.000  0.000  0.003
   14  0.003  0.000  0.000  0.003
   15  0.004  0.000  0.000  0.004
   16  0.002  0.000  0.001  0.003
   17  0.004  0.000  0.000  0.004
   18  0.004  0.000  0.000  0.004
   19  0.000  0.000  0.000  0.001
   20  0.000  0.001  0.005  0.006
   21  0.000  0.001  0.005  0.006
   22  0.001  0.000  0.000  0.001
   23  0.000  0.001  0.005  0.006
   24  0.001  0.000  0.000  0.001
   25  0.000  0.000  0.000  0.001
   26  0.000  0.000  0.000  0.001
   27  0.001  0.000  0.000  0.001
   28  0.000  0.000  0.000  0.000
   29  0.000  0.000  0.001  0.001
   30  0.000  0.000  0.001  0.001
   31  0.000  0.000  0.001  0.001
   32  0.000  0.000  0.001  0.001
   33  0.000  0.000  0.001  0.001
   34  0.000  0.000  0.001  0.001
   35  0.000  0.000  0.000  0.000
   36  0.049  0.021  0.116  0.185
   37  0.024  0.420  0.000  0.444
   38  0.144  0.013  0.000  0.158
tot    0.263  0.459  0.145  0.867
 
band     4 # energy   -5.97689644 # occ.  2.00000000
 
ion      s      p      d    tot
    1  0.008  0.000  0.000  0.008
    2  0.007  0.000  0.000  0.007
    3  0.007  0.000  0.000  0.007
    4  0.007  0.000  0.000  0.007
    5  0.006  0.000  0.000  0.007
    6  0.007  0.000  0.000  0.007
    7  0.007  0.000  0.000  0.007
    8  0.007  0.000  0.000  0.007
    9  0.006  0.000  0.000  0.007
   10  0.010  0.001  0.014  0.025
   11  0.009  0.001  0.016  0.026
   12  0.010  0.001  0.014  0.025
   13  0.009  0.001  0.016  0.026
   14  0.009  0.001  0.016  0.026
   15  0.008  0.001  0.017  0.026
   16  0.010  0.001  0.014  0.025
   17  0.008  0.001  0.017  0.026
   18  0.008  0.001  0.017  0.026
   19  0.014  0.001  0.019  0.034
   20  0.010  0.001  0.019  0.029
   21  0.010  0.001  0.019  0.029
   22  0.016  0.001  0.018  0.035
   23  0.010  0.001  0.019  0.029
   24  0.016  0.001  0.018  0.035
   25  0.014  0.001  0.019  0.034
   26  0.014  0.001  0.019  0.034
   27  0.016  0.001  0.018  0.035
   28  0.007  0.001  0.000  0.008
   29  0.006  0.001  0.000  0.006
   30  0.006  0.001  0.000  0.006
   31  0.006  0.001  0.000  0.006
   32  0.006  0.001  0.000  0.006
   33  0.006  0.001  0.000  0.006
   34  0.006  0.001  0.000  0.006
   35  0.008  0.001  0.000  0.008
   36  0.000  0.002  0.007  0.009
   37  0.001  0.016  0.000  0.017
   38  0.005  0.000  0.000  0.006
tot    0.316  0.041  0.320  0.677
 
band     5 # energy   -5.72259420 # occ.  2.00000000
 
ion      s      p      d    tot
    1  0.018  0.000  0.024  0.042
    2  0.016  0.000  0.025  0.041
    3  0.016  0.000  0.025  0.041
    4  0.016  0.000  0.025  0.041
    5  0.015  0.000  0.026  0.041
    6  0.016  0.000  0.025  0.041
    7  0.016  0.000  0.025  0.041
    8  0.016  0.000  0.025  0.041
    9  0.015  0.000  0.026  0.042
   10  0.000  0.000  0.022  0.023
   11  0.001  0.000  0.021  0.022
   12  0.000  0.000  0.022  0.023
   13  0.001  0.000  0.021  0.022
   14  0.001  0.000  0.021  0.022
   15  0.001  0.001  0.021  0.023
   16  0.000  0.000  0.022  0.023
   17  0.001  0.001  0.021  0.023
   18  0.001  0.001  0.021  0.023
   19  0.000  0.000  0.008  0.008
   20  0.000  0.000  0.006  0.006
   21  0.000  0.000  0.006  0.006
   22  0.000  0.000  0.011  0.011
   23  0.000  0.000  0.006  0.006
   24  0.000  0.000  0.011  0.011
   25  0.000  0.000  0.008  0.008
   26  0.000  0.000  0.008  0.008
   27  0.000  0.000  0.011  0.011
   28  0.007  0.000  0.007  0.014
   29  0.005  0.000  0.007  0.012
   30  0.005  0.000  0.007  0.012
   31  0.005  0.000  0.007  0.012
   32  0.005  0.000  0.007  0.012
   33  0.005  0.000  0.007  0.012
   34  0.005  0.000  0.007  0.012
   35  0.007  0.000  0.007  0.015
   36  0.002  0.000  0.005  0.006
   37  0.000  0.001  0.000  0.001
   38  0.000  0.000  0.000  0.000
tot    0.198  0.008  0.556  0.761
 
band     6 # energy   -5.60049032 # occ.  2.00000000
 
ion      s      p      d    tot
    1  0.000  0.000  0.000  0.000
    2  0.001  0.000  0.005  0.006
    3  0.002  0.001  0.005  0.008
    4  0.001  0.000  0.005  0.006
    5  0.000  0.000  0.007  0.007
    6  0.000  0.000  0.003  0.003
    7  0.002  0.001  0.005  0.008
    8  0.000  0.000  0.003  0.003
    9  0.000  0.000  0.010  0.010
   10  0.002  0.000  0.033  0.035
   11  0.004  0.000  0.068  0.072
   12  0.000  0.001  0.020  0.021
   13  0.004  0.000  0.066  0.070
   14  0.014  0.001  0.004  0.019
   15  0.007  0.001  0.040  0.048
   16  0.000  0.001  0.020  0.021
   17  0.007  0.001  0.040  0.048
   18  0.027  0.001  0.023  0.051
   19  0.003  0.000  0.050  0.053
   20  0.002  0.000  0.027  0.029
   21  0.000  0.001  0.016  0.017
   22  0.006  0.001  0.035  0.043
   23  0.000  0.001  0.016  0.017
   24  0.024  0.001  0.020  0.044
   25  0.011  0.001  0.005  0.017
   26  0.003  0.000  0.049  0.052
   27  0.006  0.001  0.036  0.043
   28  0.000  0.000  0.006  0.006
   29  0.001  0.000  0.004  0.005
   30  0.000  0.000  0.002  0.002
   31  0.001  0.000  0.004  0.006
   32  0.002  0.001  0.004  0.007
   33  0.000  0.000  0.002  0.002
   34  0.002  0.001  0.004  0.007
   35  0.000  0.000  0.010  0.010
   36  0.000  0.000  0.000  0.000
   37  0.000  0.000  0.000  0.000
   38  0.000  0.000  0.000  0.000
tot    0.136  0.018  0.644  0.798
 
band     7 # energy   -5.60047716 # occ.  2.00000000
 
ion      s      p      d    tot
    1  0.000  0.000  0.000  0.000
    2  0.001  0.000  0.004  0.005
    3  0.000  0.000  0.003  0.003
    4  0.001  0.001  0.004  0.006
    5  0.000  0.000  0.007  0.007
    6  0.002  0.001  0.006  0.008
    7  0.000  0.000  0.003  0.003
    8  0.002  0.001  0.006  0.008
    9  0.000  0.000  0.010  0.010
   10  0.000  0.001  0.016  0.017
   11  0.011  0.001  0.024  0.036
   12  0.001  0.000  0.028  0.030
   13  0.011  0.001  0.026  0.038
   14  0.000  0.000  0.087  0.087
   15  0.021  0.001  0.028  0.050
   16  0.001  0.000  0.029  0.030
   17  0.020  0.001  0.028  0.050
   18  0.000  0.001  0.047  0.048
   19  0.009  0.001  0.019  0.029
   20  0.000  0.001  0.012  0.014
   21  0.001  0.000  0.023  0.025
   22  0.018  0.001  0.025  0.044
   23  0.002  0.000  0.023  0.025
   24  0.000  0.001  0.042  0.043
   25  0.000  0.000  0.064  0.064
   26  0.008  0.001  0.021  0.030
   27  0.018  0.001  0.024  0.044
   28  0.000  0.000  0.006  0.006
   29  0.001  0.000  0.003  0.004
   30  0.002  0.001  0.005  0.007
   31  0.001  0.000  0.003  0.004
   32  0.000  0.000  0.003  0.003
   33  0.002  0.001  0.005  0.007
   34  0.000  0.000  0.003  0.003
   35  0.000  0.000  0.010  0.010
   36  0.000  0.000  0.000  0.000
   37  0.000  0.000  0.000  0.000
   38  0.000  0.000  0.000  0.000
tot    0.136  0.018  0.644  0.798
 
band     8 # energy   -5.59949278 # occ.  2.00000000
 
ion      s      p      d    tot
    1  0.000  0.000  0.000  0.001
    2  0.000  0.000  0.005  0.005
    3  0.000  0.000  0.005  0.005
    4  0.000  0.000  0.005  0.005
    5  0.005  0.001  0.004  0.011
    6  0.000  0.000  0.005  0.006
    7  0.000  0.000  0.005  0.005
    8  0.000  0.000  0.005  0.006
    9  0.002  0.001  0.007  0.009
   10  0.006  0.001  0.009  0.016
   11  0.014  0.001  0.033  0.048
   12  0.006  0.001  0.009  0.017
   13  0.014  0.001  0.033  0.048
   14  0.015  0.001  0.034  0.049
   15  0.002  0.000  0.067  0.070
   16  0.007  0.001  0.009  0.017
   17  0.002  0.000  0.067  0.070
   18  0.002  0.000  0.066  0.068
   19  0.010  0.000  0.028  0.039
   20  0.006  0.001  0.007  0.014
   21  0.006  0.001  0.008  0.015
   22  0.001  0.000  0.047  0.048
   23  0.006  0.001  0.008  0.015
   24  0.001  0.000  0.046  0.047
   25  0.011  0.000  0.029  0.040
   26  0.010  0.000  0.028  0.039
   27  0.001  0.000  0.047  0.048
   28  0.004  0.001  0.004  0.009
   29  0.000  0.000  0.004  0.004
   30  0.000  0.000  0.004  0.004
   31  0.000  0.000  0.004  0.004
   32  0.000  0.000  0.004  0.004
   33  0.000  0.000  0.004  0.004
   34  0.000  0.000  0.004  0.004
   35  0.003  0.001  0.003  0.007
   36  0.000  0.000  0.000  0.000
   37  0.000  0.000  0.000  0.000
   38  0.000  0.000  0.000  0.000
tot    0.133  0.017  0.652  0.801
 
band     9 # energy   -5.59324972 # occ.  2.00000000
 
ion      s      p      d    tot
    1  0.000  0.000  0.009  0.010
    2  0.000  0.000  0.004  0.004
    3  0.001  0.001  0.006  0.008
    4  0.000  0.000  0.004  0.005
    5  0.000  0.000  0.002  0.002
    6  0.000  0.000  0.003  0.004
    7  0.001  0.001  0.006  0.008
    8  0.000  0.000  0.003  0.003
    9  0.000  0.000  0.003  0.003
   10  0.000  0.000  0.082  0.083
   11  0.007  0.001  0.031  0.039
   12  0.022  0.001  0.029  0.051
   13  0.008  0.001  0.034  0.042
   14  0.000  0.002  0.007  0.009
   15  0.003  0.000  0.039  0.043
   16  0.020  0.001  0.034  0.054
   17  0.003  0.000  0.034  0.038
   18  0.000  0.000  0.094  0.095
   19  0.004  0.001  0.027  0.031
   20  0.000  0.000  0.033  0.033
   21  0.012  0.001  0.016  0.029
   22  0.002  0.000  0.025  0.028
   23  0.011  0.001  0.017  0.029
   24  0.000  0.000  0.051  0.051
   25  0.000  0.001  0.021  0.022
   26  0.004  0.001  0.027  0.032
   27  0.002  0.000  0.027  0.030
   28  0.000  0.000  0.005  0.005
   29  0.001  0.000  0.002  0.003
   30  0.000  0.000  0.002  0.002
   31  0.001  0.000  0.002  0.003
   32  0.001  0.000  0.003  0.004
   33  0.000  0.000  0.002  0.002
   34  0.001  0.000  0.003  0.004
   35  0.000  0.000  0.002  0.002
   36  0.000  0.000  0.002  0.002
   37  0.000  0.000  0.000  0.000
   38  0.000  0.000  0.000  0.000
tot    0.105  0.015  0.693  0.813
 
band    10 # energy   -5.59324393 # occ.  2.00000000
 
ion      s      p      d    tot
    1  0.000  0.000  0.009  0.010
    2  0.001  0.001  0.005  0.007
    3  0.000  0.000  0.003  0.003
    4  0.001  0.000  0.005  0.006
    5  0.000  0.000  0.002  0.002
    6  0.001  0.000  0.006  0.007
    7  0.000  0.000  0.002  0.003
    8  0.001  0.000  0.006  0.007
    9  0.000  0.000  0.003  0.003
   10  0.028  0.001  0.014  0.043
   11  0.003  0.001  0.017  0.021
   12  0.006  0.000  0.067  0.074
   13  0.002  0.001  0.015  0.018
   14  0.010  0.000  0.041  0.051
   15  0.001  0.000  0.072  0.074
   16  0.008  0.000  0.063  0.071
   17  0.001  0.000  0.078  0.079
   18  0.004  0.000  0.018  0.022
   19  0.002  0.001  0.023  0.026
   20  0.016  0.001  0.011  0.028
   21  0.003  0.001  0.028  0.032
   22  0.001  0.000  0.044  0.044
   23  0.004  0.001  0.026  0.031
   24  0.003  0.000  0.018  0.021
   25  0.006  0.000  0.029  0.035
   26  0.001  0.001  0.023  0.025
   27  0.001  0.000  0.042  0.042
   28  0.000  0.000  0.005  0.005
   29  0.000  0.000  0.003  0.003
   30  0.001  0.000  0.003  0.004
   31  0.000  0.000  0.003  0.003
   32  0.000  0.000  0.002  0.002
   33  0.001  0.000  0.003  0.004
   34  0.000  0.000  0.002  0.002
   35  0.000  0.000  0.002  0.002
   36  0.000  0.000  0.002  0.002
   37  0.000  0.000  0.000  0.000
   38  0.000  0.000  0.000  0.000
tot    0.105  0.015  0.693  0.813
 
band    11 # energy   -5.58897254 # occ.  2.00000000
 
ion      s      p      d    tot
    1  0.000  0.001  0.018  0.018
    2  0.000  0.000  0.006  0.006
    3  0.000  0.000  0.006  0.006
    4  0.000  0.000  0.006  0.006
    5  0.000  0.000  0.000  0.000
    6  0.000  0.000  0.006  0.006
    7  0.000  0.000  0.006  0.006
    8  0.000  0.000  0.006  0.006
    9  0.004  0.001  0.001  0.006
   10  0.007  0.000  0.086  0.093
   11  0.003  0.001  0.032  0.035
   12  0.007  0.000  0.085  0.093
   13  0.003  0.001  0.032  0.035
   14  0.003  0.001  0.032  0.035
   15  0.012  0.001  0.022  0.035
   16  0.007  0.000  0.085  0.093
   17  0.012  0.001  0.022  0.035
   18  0.012  0.001  0.022  0.035
   19  0.003  0.001  0.019  0.023
   20  0.002  0.001  0.016  0.019
   21  0.002  0.001  0.016  0.019
   22  0.004  0.001  0.029  0.033
   23  0.002  0.001  0.016  0.019
   24  0.004  0.001  0.029  0.033
   25  0.003  0.001  0.019  0.023
   26  0.003  0.001  0.019  0.023
   27  0.004  0.001  0.029  0.033
   28  0.001  0.000  0.002  0.004
   29  0.000  0.000  0.005  0.006
   30  0.000  0.000  0.005  0.006
   31  0.000  0.000  0.005  0.006
   32  0.000  0.000  0.005  0.006
   33  0.000  0.000  0.005  0.006
   34  0.000  0.000  0.005  0.006
   35  0.001  0.000  0.000  0.001
   36  0.000  0.001  0.000  0.001
   37  0.000  0.001  0.000  0.001
   38  0.000  0.000  0.000  0.000
tot    0.101  0.016  0.698  0.815
 
band    12 # energy   -5.56517976 # occ.  2.00000000
 
ion      s      p      d    tot
    1  0.000  0.000  0.010  0.011
    2  0.001  0.000  0.011  0.012
    3  0.001  0.000  0.011  0.012
    4  0.001  0.000  0.011  0.012
    5  0.000  0.000  0.000  0.000
    6  0.001  0.000  0.011  0.012
    7  0.001  0.000  0.011  0.012
    8  0.001  0.000  0.011  0.012
    9  0.009  0.000  0.009  0.018
   10  0.004  0.000  0.014  0.018
   11  0.000  0.000  0.030  0.030
   12  0.004  0.000  0.014  0.018
   13  0.000  0.000  0.030  0.030
   14  0.000  0.000  0.030  0.030
   15  0.000  0.000  0.032  0.032
   16  0.004  0.000  0.014  0.018
   17  0.000  0.000  0.032  0.032
   18  0.000  0.000  0.032  0.032
   19  0.002  0.001  0.006  0.008
   20  0.002  0.000  0.028  0.030
   21  0.002  0.000  0.028  0.030
   22  0.003  0.000  0.069  0.072
   23  0.002  0.000  0.028  0.030
   24  0.003  0.000  0.069  0.072
   25  0.002  0.001  0.006  0.008
   26  0.002  0.001  0.006  0.008
   27  0.003  0.000  0.069  0.072
   28  0.011  0.001  0.001  0.012
   29  0.003  0.000  0.014  0.018
   30  0.003  0.000  0.014  0.018
   31  0.003  0.000  0.014  0.018
   32  0.003  0.000  0.014  0.018
   33  0.003  0.000  0.014  0.018
   34  0.003  0.000  0.014  0.018
   35  0.004  0.000  0.033  0.037
   36  0.000  0.000  0.001  0.001
   37  0.000  0.000  0.000  0.000
   38  0.000  0.000  0.000  0.000
tot    0.084  0.007  0.738  0.829
 
band    13 # energy   -5.55433852 # occ.  2.00000000
 
ion      s      p      d    tot
    1  0.000  0.000  0.014  0.014
    2  0.002  0.000  0.008  0.010
    3  0.000  0.000  0.009  0.010
    4  0.002  0.000  0.008  0.010
    5  0.000  0.000  0.005  0.005
    6  0.004  0.001  0.006  0.011
    7  0.000  0.000  0.009  0.010
    8  0.004  0.001  0.006  0.011
    9  0.000  0.000  0.017  0.017
   10  0.002  0.000  0.033  0.035
   11  0.002  0.000  0.047  0.049
   12  0.001  0.000  0.029  0.030
   13  0.003  0.000  0.041  0.044
   14  0.010  0.000  0.008  0.018
   15  0.001  0.000  0.033  0.033
   16  0.000  0.000  0.029  0.029
   17  0.001  0.000  0.032  0.033
   18  0.003  0.000  0.028  0.031
   19  0.003  0.000  0.072  0.075
   20  0.003  0.000  0.024  0.027
   21  0.001  0.000  0.037  0.038
   22  0.001  0.000  0.026  0.028
   23  0.001  0.000  0.039  0.040
   24  0.004  0.000  0.039  0.043
   25  0.015  0.000  0.006  0.021
   26  0.005  0.000  0.062  0.067
   27  0.001  0.000  0.024  0.025
   28  0.000  0.000  0.008  0.009
   29  0.002  0.000  0.005  0.007
   30  0.002  0.001  0.005  0.008
   31  0.001  0.000  0.005  0.007
   32  0.000  0.000  0.009  0.009
   33  0.002  0.001  0.005  0.008
   34  0.000  0.000  0.009  0.010
   35  0.000  0.000  0.011  0.011
   36  0.000  0.000  0.001  0.002
   37  0.000  0.000  0.000  0.000
   38  0.000  0.000  0.000  0.000
tot    0.076  0.009  0.750  0.835
 
band    14 # energy   -5.55433299 # occ.  2.00000000
 
ion      s      p      d    tot
    1  0.000  0.000  0.014  0.014
    2  0.002  0.001  0.007  0.010
    3  0.004  0.001  0.006  0.010
    4  0.002  0.001  0.008  0.010
    5  0.000  0.000  0.005  0.005
    6  0.000  0.000  0.009  0.010
    7  0.004  0.000  0.006  0.010
    8  0.000  0.000  0.009  0.010
    9  0.000  0.000  0.017  0.017
   10  0.000  0.000  0.027  0.028
   11  0.008  0.000  0.017  0.025
   12  0.001  0.000  0.032  0.033
   13  0.007  0.000  0.023  0.030
   14  0.000  0.000  0.056  0.056
   15  0.002  0.000  0.029  0.031
   16  0.002  0.000  0.032  0.034
   17  0.002  0.000  0.030  0.032
   18  0.000  0.000  0.034  0.034
   19  0.012  0.000  0.021  0.034
   20  0.000  0.000  0.043  0.043
   21  0.002  0.000  0.030  0.032
   22  0.003  0.000  0.034  0.037
   23  0.003  0.000  0.027  0.030
   24  0.000  0.000  0.021  0.021
   25  0.000  0.000  0.087  0.088
   26  0.010  0.000  0.031  0.041
   27  0.003  0.000  0.036  0.039
   28  0.000  0.000  0.008  0.009
   29  0.001  0.001  0.008  0.010
   30  0.000  0.000  0.008  0.008
   31  0.001  0.001  0.007  0.009
   32  0.003  0.001  0.004  0.007
   33  0.000  0.000  0.007  0.008
   34  0.002  0.000  0.004  0.007
   35  0.000  0.000  0.011  0.011
   36  0.000  0.000  0.001  0.002
   37  0.000  0.000  0.000  0.000
   38  0.000  0.000  0.000  0.000
tot    0.076  0.009  0.750  0.835
 
band    15 # energy   -5.54254363 # occ.  2.00000000
 
ion      s      p      d    tot
    1  0.000  0.000  0.012  0.012
    2  0.001  0.000  0.009  0.011
    3  0.000  0.000  0.008  0.008
    4  0.001  0.000  0.009  0.011
    5  0.000  0.000  0.019  0.019
    6  0.002  0.000  0.006  0.009
    7  0.000  0.000  0.008  0.008
    8  0.002  0.000  0.006  0.008
    9  0.000  0.000  0.003  0.003
   10  0.000  0.000  0.071  0.071
   11  0.001  0.000  0.041  0.042
   12  0.003  0.000  0.028  0.031
   13  0.001  0.000  0.040  0.041
   14  0.000  0.000  0.035  0.036
   15  0.001  0.000  0.028  0.028
   16  0.003  0.000  0.022  0.025
   17  0.000  0.000  0.026  0.027
   18  0.000  0.000  0.015  0.015
   19  0.002  0.000  0.039  0.040
   20  0.000  0.000  0.080  0.080
   21  0.008  0.000  0.037  0.046
   22  0.003  0.000  0.032  0.035
   23  0.009  0.000  0.032  0.041
   24  0.000  0.000  0.076  0.076
   25  0.000  0.000  0.008  0.008
   26  0.002  0.000  0.035  0.037
   27  0.003  0.000  0.026  0.029
   28  0.000  0.000  0.007  0.007
   29  0.001  0.000  0.004  0.005
   30  0.002  0.000  0.003  0.005
   31  0.000  0.000  0.005  0.005
   32  0.000  0.000  0.007  0.008
   33  0.002  0.000  0.004  0.006
   34  0.000  0.000  0.007  0.008
   35  0.000  0.000  0.003  0.003
   36  0.000  0.000  0.003  0.004
   37  0.000  0.000  0.000  0.000
   38  0.000  0.000  0.000  0.000
tot    0.049  0.007  0.793  0.849
 
band    16 # energy   -5.54253429 # occ.  2.00000000
 
ion      s      p      d    tot
    1  0.000  0.000  0.012  0.012
    2  0.001  0.000  0.006  0.008
    3  0.003  0.000  0.007  0.010
    4  0.001  0.000  0.006  0.008
    5  0.000  0.000  0.019  0.019
    6  0.000  0.000  0.009  0.009
    7  0.002  0.000  0.008  0.010
    8  0.000  0.000  0.009  0.010
    9  0.000  0.000  0.003  0.003
   10  0.004  0.000  0.009  0.014
   11  0.000  0.000  0.037  0.037
   12  0.001  0.000  0.053  0.054
   13  0.000  0.000  0.037  0.038
   14  0.001  0.000  0.042  0.044
   15  0.000  0.000  0.018  0.019
   16  0.001  0.000  0.059  0.060
   17  0.000  0.000  0.020  0.020
   18  0.001  0.000  0.031  0.032
   19  0.000  0.000  0.015  0.016
   20  0.012  0.000  0.019  0.031
   21  0.003  0.000  0.062  0.065
   22  0.001  0.000  0.057  0.059
   23  0.002  0.000  0.068  0.070
   24  0.004  0.000  0.013  0.017
   25  0.002  0.000  0.047  0.049
   26  0.001  0.000  0.019  0.020
   27  0.001  0.000  0.063  0.064
   28  0.000  0.000  0.007  0.007
   29  0.001  0.000  0.006  0.007
   30  0.000  0.000  0.007  0.007
   31  0.001  0.000  0.005  0.007
   32  0.001  0.000  0.003  0.005
   33  0.000  0.000  0.007  0.007
   34  0.001  0.000  0.003  0.005
   35  0.000  0.000  0.003  0.003
   36  0.000  0.000  0.003  0.004
   37  0.000  0.000  0.000  0.000
   38  0.000  0.000  0.000  0.000
tot    0.049  0.007  0.793  0.849
 
band    17 # energy   -5.52866988 # occ.  2.00000000
 
ion      s      p      d    tot
    1  0.006  0.000  0.001  0.008
    2  0.000  0.000  0.011  0.011
    3  0.000  0.000  0.011  0.011
    4  0.000  0.000  0.011  0.011
    5  0.004  0.001  0.001  0.006
    6  0.000  0.000  0.011  0.011
    7  0.000  0.000  0.011  0.011
    8  0.000  0.000  0.011  0.011
    9  0.000  0.000  0.004  0.005
   10  0.002  0.000  0.022  0.024
   11  0.001  0.000  0.025  0.026
   12  0.002  0.000  0.022  0.024
   13  0.001  0.000  0.025  0.026
   14  0.001  0.000  0.025  0.026
   15  0.001  0.000  0.022  0.023
   16  0.002  0.000  0.022  0.024
   17  0.001  0.000  0.022  0.023
   18  0.001  0.000  0.022  0.023
   19  0.000  0.000  0.075  0.076
   20  0.009  0.000  0.046  0.055
   21  0.009  0.000  0.046  0.055
   22  0.009  0.001  0.002  0.012
   23  0.009  0.000  0.046  0.055
   24  0.009  0.001  0.002  0.012
   25  0.000  0.000  0.075  0.076
   26  0.000  0.000  0.075  0.076
   27  0.009  0.001  0.002  0.012
   28  0.002  0.000  0.011  0.014
   29  0.000  0.000  0.010  0.011
   30  0.000  0.000  0.010  0.011
   31  0.000  0.000  0.010  0.011
   32  0.000  0.000  0.010  0.011
   33  0.000  0.000  0.010  0.011
   34  0.000  0.000  0.010  0.011
   35  0.004  0.001  0.001  0.006
   36  0.001  0.003  0.000  0.003
   37  0.001  0.006  0.000  0.007
   38  0.002  0.000  0.000  0.002
tot    0.085  0.019  0.726  0.830
 
band    18 # energy   -5.51573034 # occ.  2.00000000
 
ion      s      p      d    tot
    1  0.005  0.000  0.001  0.005
    2  0.002  0.000  0.011  0.013
    3  0.002  0.000  0.011  0.013
    4  0.002  0.000  0.011  0.013
    5  0.005  0.000  0.019  0.024
    6  0.002  0.000  0.011  0.013
    7  0.002  0.000  0.011  0.013
    8  0.002  0.000  0.011  0.013
    9  0.000  0.001  0.006  0.007
   10  0.000  0.000  0.012  0.012
   11  0.001  0.000  0.038  0.039
   12  0.000  0.000  0.012  0.012
   13  0.001  0.000  0.038  0.039
   14  0.001  0.000  0.038  0.039
   15  0.006  0.000  0.009  0.015
   16  0.000  0.000  0.012  0.012
   17  0.006  0.000  0.009  0.015
   18  0.006  0.000  0.009  0.015
   19  0.002  0.000  0.021  0.024
   20  0.000  0.000  0.023  0.023
   21  0.000  0.000  0.023  0.023
   22  0.000  0.001  0.014  0.016
   23  0.000  0.000  0.023  0.023
   24  0.000  0.001  0.014  0.016
   25  0.002  0.000  0.021  0.024
   26  0.002  0.000  0.021  0.024
   27  0.000  0.001  0.014  0.016
   28  0.008  0.000  0.037  0.045
   29  0.011  0.000  0.021  0.032
   30  0.011  0.000  0.021  0.032
   31  0.011  0.000  0.021  0.032
   32  0.011  0.000  0.021  0.032
   33  0.011  0.000  0.021  0.032
   34  0.011  0.000  0.021  0.032
   35  0.016  0.000  0.014  0.031
   36  0.008  0.000  0.014  0.022
   37  0.000  0.002  0.000  0.002
   38  0.000  0.000  0.000  0.001
tot    0.147  0.010  0.639  0.796
 
band    19 # energy   -5.39247555 # occ.  2.00000000
 
ion      s      p      d    tot
    1  0.000  0.001  0.018  0.019
    2  0.002  0.001  0.007  0.009
    3  0.000  0.000  0.010  0.011
    4  0.001  0.001  0.007  0.010
    5  0.000  0.000  0.002  0.003
    6  0.001  0.000  0.006  0.007
    7  0.000  0.000  0.011  0.011
    8  0.001  0.000  0.005  0.007
    9  0.000  0.000  0.010  0.010
   10  0.000  0.000  0.046  0.046
   11  0.001  0.001  0.023  0.025
   12  0.002  0.000  0.047  0.049
   13  0.001  0.001  0.025  0.027
   14  0.000  0.000  0.003  0.003
   15  0.001  0.000  0.043  0.044
   16  0.002  0.000  0.047  0.049
   17  0.001  0.000  0.039  0.040
   18  0.000  0.000  0.082  0.082
   19  0.000  0.000  0.036  0.037
   20  0.000  0.000  0.003  0.003
   21  0.001  0.001  0.019  0.021
   22  0.003  0.000  0.051  0.054
   23  0.001  0.001  0.018  0.019
   24  0.000  0.000  0.053  0.053
   25  0.000  0.000  0.068  0.068
   26  0.000  0.000  0.033  0.034
   27  0.002  0.000  0.051  0.054
   28  0.000  0.000  0.006  0.006
   29  0.001  0.000  0.005  0.006
   30  0.000  0.000  0.009  0.009
   31  0.001  0.000  0.005  0.006
   32  0.001  0.001  0.006  0.007
   33  0.000  0.000  0.009  0.009
   34  0.001  0.001  0.005  0.007
   35  0.000  0.001  0.019  0.020
   36  0.000  0.000  0.001  0.001
   37  0.000  0.000  0.000  0.000
   38  0.000  0.000  0.000  0.000
tot    0.023  0.015  0.828  0.865
 
band    20 # energy   -5.39246025 # occ.  2.00000000
 
ion      s      p      d    tot
    1  0.000  0.001  0.018  0.019
    2  0.000  0.000  0.009  0.009
    3  0.002  0.001  0.005  0.007
    4  0.000  0.000  0.008  0.008
    5  0.000  0.000  0.002  0.003
    6  0.001  0.001  0.010  0.011
    7  0.002  0.001  0.005  0.007
    8  0.001  0.001  0.010  0.011
    9  0.000  0.000  0.010  0.010
   10  0.003  0.000  0.047  0.050
   11  0.000  0.000  0.011  0.012
   12  0.001  0.000  0.046  0.047
   13  0.000  0.000  0.009  0.010
   14  0.001  0.001  0.031  0.033
   15  0.000  0.000  0.067  0.067
   16  0.001  0.000  0.046  0.047
   17  0.000  0.000  0.070  0.071
   18  0.001  0.000  0.027  0.029
   19  0.000  0.000  0.055  0.056
   20  0.001  0.001  0.024  0.026
   21  0.000  0.000  0.008  0.008
   22  0.001  0.000  0.052  0.053
   23  0.000  0.000  0.009  0.010
   24  0.003  0.000  0.050  0.054
   25  0.000  0.000  0.024  0.024
   26  0.000  0.000  0.058  0.059
   27  0.001  0.000  0.052  0.053
   28  0.000  0.000  0.006  0.006
   29  0.001  0.000  0.008  0.009
   30  0.001  0.001  0.004  0.006
   31  0.001  0.001  0.008  0.009
   32  0.000  0.000  0.007  0.007
   33  0.001  0.001  0.004  0.006
   34  0.000  0.000  0.007  0.008
   35  0.000  0.001  0.019  0.020
   36  0.000  0.000  0.001  0.001
   37  0.000  0.000  0.000  0.000
   38  0.000  0.000  0.000  0.000
tot    0.023  0.015  0.828  0.865
 
band    21 # energy   -5.38813730 # occ.  2.00000000
 
ion      s      p      d    tot
    1  0.002  0.001  0.012  0.014
    2  0.000  0.000  0.008  0.009
    3  0.000  0.000  0.008  0.009
    4  0.000  0.000  0.008  0.009
    5  0.003  0.001  0.002  0.006
    6  0.000  0.000  0.008  0.009
    7  0.000  0.000  0.008  0.009
    8  0.000  0.000  0.008  0.009
    9  0.000  0.000  0.006  0.006
   10  0.001  0.001  0.065  0.066
   11  0.000  0.000  0.023  0.024
   12  0.001  0.001  0.065  0.066
   13  0.000  0.000  0.023  0.024
   14  0.000  0.000  0.023  0.024
   15  0.001  0.000  0.039  0.040
   16  0.001  0.001  0.065  0.066