PROCAR new format
# of k-points:   10         # of bands:  252         # of ions:   36

 k-point     1 :    0.00000000 0.00000000 0.00000000     weight = 0.01562500

band     1 # energy  -54.63533139 # occ.  2.00000000
 
ion      s      p      d    tot
    1  0.000  0.000  0.000  0.000
    2  0.000  0.000  0.000  0.000
    3  0.000  0.000  0.000  0.000
    4  0.000  0.000  0.000  0.000
    5  0.000  0.000  0.000  0.000
    6  0.000  0.000  0.000  0.000
    7  0.000  0.000  0.000  0.000
    8  0.000  0.000  0.000  0.000
    9  0.000  0.000  0.000  0.000
   10  0.000  0.000  0.000  0.000
   11  0.000  0.000  0.000  0.000
   12  0.000  0.000  0.000  0.000
   13  0.000  0.000  0.000  0.000
   14  0.000  0.000  0.000  0.000
   15  0.000  0.000  0.000  0.000
   16  0.000  0.000  0.000  0.000
   17  0.000  0.000  0.000  0.000
   18  0.000  0.000  0.000  0.000
   19  0.000  0.000  0.000  0.000
   20  0.000  0.000  0.000  0.000
   21  0.000  0.000  0.000  0.000
   22  0.000  0.000  0.000  0.000
   23  0.000  0.000  0.000  0.000
   24  0.000  0.000  0.000  0.000
   25  0.000  0.000  0.000  0.000
   26  0.000  0.000  0.000  0.000
   27  0.000  0.000  0.000  0.000
   28  0.000  0.000  0.000  0.000
   29  0.000  0.000  0.000  0.000
   30  0.000  0.000  0.000  0.000
   31  0.000  0.000  0.000  0.000
   32  0.000  0.000  0.000  0.000
   33  0.000  0.000  0.000  0.000
   34  0.000  0.000  0.000  0.000
   35  0.000  0.000  0.000  0.000
   36  0.993  0.000  0.000  0.993
tot    0.993  0.000  0.000  0.993
 
band     2 # energy  -30.68209596 # occ.  2.00000000
 
ion      s      p      d    tot
    1  0.000  0.000  0.000  0.000
    2  0.000  0.000  0.000  0.000
    3  0.000  0.000  0.000  0.000
    4  0.000  0.000  0.000  0.000
    5  0.000  0.000  0.000  0.000
    6  0.000  0.000  0.000  0.000
    7  0.000  0.000  0.000  0.000
    8  0.000  0.000  0.000  0.000
    9  0.000  0.000  0.000  0.000
   10  0.000  0.000  0.000  0.000
   11  0.000  0.000  0.000  0.000
   12  0.000  0.000  0.000  0.000
   13  0.000  0.000  0.000  0.000
   14  0.000  0.000  0.000  0.000
   15  0.000  0.000  0.000  0.000
   16  0.000  0.000  0.000  0.000
   17  0.000  0.000  0.000  0.000
   18  0.000  0.000  0.000  0.000
   19  0.000  0.000  0.000  0.000
   20  0.000  0.000  0.000  0.000
   21  0.000  0.000  0.000  0.000
   22  0.000  0.000  0.000  0.000
   23  0.000  0.000  0.000  0.000
   24  0.000  0.000  0.000  0.000
   25  0.000  0.000  0.000  0.000
   26  0.000  0.000  0.000  0.000
   27  0.000  0.000  0.000  0.000
   28  0.000  0.000  0.000  0.000
   29  0.000  0.000  0.000  0.000
   30  0.000  0.000  0.000  0.000
   31  0.000  0.000  0.000  0.000
   32  0.000  0.000  0.000  0.000
   33  0.000  0.000  0.000  0.000
   34  0.000  0.000  0.000  0.000
   35  0.000  0.000  0.000  0.000
   36  0.000  0.974  0.000  0.974
tot    0.000  0.975  0.000  0.975
 
band     3 # energy  -30.66774418 # occ.  2.00000000
 
ion      s      p      d    tot
    1  0.000  0.000  0.000  0.000
    2  0.000  0.000  0.000  0.000
    3  0.000  0.000  0.000  0.000
    4  0.000  0.000  0.000  0.000
    5  0.000  0.000  0.000  0.000
    6  0.000  0.000  0.000  0.000
    7  0.000  0.000  0.000  0.000
    8  0.000  0.000  0.000  0.000
    9  0.000  0.000  0.000  0.000
   10  0.000  0.000  0.000  0.000
   11  0.000  0.000  0.000  0.000
   12  0.000  0.000  0.000  0.000
   13  0.000  0.000  0.000  0.000
   14  0.000  0.000  0.000  0.000
   15  0.000  0.000  0.000  0.000
   16  0.000  0.000  0.000  0.000
   17  0.000  0.000  0.000  0.000
   18  0.000  0.000  0.000  0.000
   19  0.000  0.000  0.000  0.000
   20  0.000  0.000  0.000  0.000
   21  0.000  0.000  0.000  0.000
   22  0.000  0.000  0.000  0.000
   23  0.000  0.000  0.000  0.000
   24  0.000  0.000  0.000  0.000
   25  0.000  0.000  0.000  0.000
   26  0.000  0.000  0.000  0.000
   27  0.000  0.000  0.000  0.000
   28  0.000  0.000  0.000  0.000
   29  0.000  0.000  0.000  0.000
   30  0.000  0.000  0.000  0.000
   31  0.000  0.000  0.000  0.000
   32  0.000  0.000  0.000  0.000
   33  0.000  0.000  0.000  0.000
   34  0.000  0.000  0.000  0.000
   35  0.000  0.000  0.000  0.000
   36  0.000  0.973  0.000  0.973
tot    0.000  0.974  0.000  0.974
 
band     4 # energy  -30.66773729 # occ.  2.00000000
 
ion      s      p      d    tot
    1  0.000  0.000  0.000  0.000
    2  0.000  0.000  0.000  0.000
    3  0.000  0.000  0.000  0.000
    4  0.000  0.000  0.000  0.000
    5  0.000  0.000  0.000  0.000
    6  0.000  0.000  0.000  0.000
    7  0.000  0.000  0.000  0.000
    8  0.000  0.000  0.000  0.000
    9  0.000  0.000  0.000  0.000
   10  0.000  0.000  0.000  0.000
   11  0.000  0.000  0.000  0.000
   12  0.000  0.000  0.000  0.000
   13  0.000  0.000  0.000  0.000
   14  0.000  0.000  0.000  0.000
   15  0.000  0.000  0.000  0.000
   16  0.000  0.000  0.000  0.000
   17  0.000  0.000  0.000  0.000
   18  0.000  0.000  0.000  0.000
   19  0.000  0.000  0.000  0.000
   20  0.000  0.000  0.000  0.000
   21  0.000  0.000  0.000  0.000
   22  0.000  0.000  0.000  0.000
   23  0.000  0.000  0.000  0.000
   24  0.000  0.000  0.000  0.000
   25  0.000  0.000  0.000  0.000
   26  0.000  0.000  0.000  0.000
   27  0.000  0.000  0.000  0.000
   28  0.000  0.000  0.000  0.000
   29  0.000  0.000  0.000  0.000
   30  0.000  0.000  0.000  0.000
   31  0.000  0.000  0.000  0.000
   32  0.000  0.000  0.000  0.000
   33  0.000  0.000  0.000  0.000
   34  0.000  0.000  0.000  0.000
   35  0.000  0.000  0.000  0.000
   36  0.000  0.973  0.000  0.973
tot    0.000  0.974  0.000  0.974
 
band     5 # energy   -6.20121303 # occ.  2.00000000
 
ion      s      p      d    tot
    1  0.006  0.001  0.000  0.007
    2  0.006  0.001  0.000  0.007
    3  0.006  0.001  0.000  0.007
    4  0.006  0.001  0.000  0.007
    5  0.006  0.001  0.000  0.007
    6  0.006  0.001  0.000  0.007
    7  0.006  0.001  0.000  0.007
    8  0.006  0.001  0.000  0.007
    9  0.006  0.001  0.000  0.007
   10  0.024  0.000  0.000  0.024
   11  0.024  0.000  0.000  0.024
   12  0.024  0.000  0.000  0.024
   13  0.024  0.000  0.000  0.024
   14  0.024  0.000  0.000  0.024
   15  0.023  0.000  0.000  0.023
   16  0.024  0.000  0.000  0.024
   17  0.023  0.000  0.000  0.023
   18  0.023  0.000  0.000  0.023
   19  0.022  0.000  0.000  0.023
   20  0.024  0.000  0.000  0.024
   21  0.024  0.000  0.000  0.024
   22  0.022  0.000  0.000  0.022
   23  0.024  0.000  0.000  0.024
   24  0.022  0.000  0.000  0.022
   25  0.022  0.000  0.000  0.023
   26  0.022  0.000  0.000  0.023
   27  0.022  0.000  0.000  0.022
   28  0.006  0.001  0.000  0.006
   29  0.006  0.001  0.000  0.006
   30  0.006  0.001  0.000  0.006
   31  0.006  0.001  0.000  0.006
   32  0.006  0.001  0.000  0.006
   33  0.006  0.001  0.000  0.006
   34  0.006  0.001  0.000  0.006
   35  0.005  0.001  0.000  0.006
   36  0.003  0.000  0.000  0.004
tot    0.520  0.012  0.006  0.538
 
band     6 # energy   -5.33958195 # occ.  2.00000000
 
ion      s      p      d    tot
    1  0.008  0.000  0.000  0.009
    2  0.008  0.000  0.000  0.009
    3  0.008  0.000  0.000  0.009
    4  0.008  0.000  0.000  0.009
    5  0.008  0.000  0.000  0.009
    6  0.008  0.000  0.000  0.009
    7  0.008  0.000  0.000  0.009
    8  0.008  0.000  0.000  0.009
    9  0.008  0.000  0.000  0.009
   10  0.011  0.001  0.015  0.027
   11  0.011  0.001  0.014  0.026
   12  0.011  0.001  0.015  0.027
   13  0.011  0.001  0.014  0.026
   14  0.011  0.001  0.014  0.026
   15  0.010  0.001  0.013  0.024
   16  0.011  0.001  0.015  0.027
   17  0.010  0.001  0.013  0.024
   18  0.010  0.001  0.013  0.024
   19  0.012  0.001  0.014  0.027
   20  0.012  0.001  0.018  0.031
   21  0.012  0.001  0.018  0.031
   22  0.012  0.001  0.013  0.026
   23  0.012  0.001  0.018  0.031
   24  0.012  0.001  0.013  0.026
   25  0.012  0.001  0.014  0.027
   26  0.012  0.001  0.014  0.027
   27  0.012  0.001  0.013  0.026
   28  0.009  0.000  0.000  0.009
   29  0.008  0.000  0.000  0.009
   30  0.008  0.000  0.000  0.009
   31  0.008  0.000  0.000  0.009
   32  0.008  0.000  0.000  0.009
   33  0.008  0.000  0.000  0.009
   34  0.008  0.000  0.000  0.009
   35  0.008  0.000  0.000  0.009
   36  0.004  0.000  0.000  0.005
tot    0.347  0.025  0.269  0.641
 
band     7 # energy   -5.07696142 # occ.  2.00000000
 
ion      s      p      d    tot
    1  0.010  0.000  0.019  0.030
    2  0.011  0.000  0.016  0.027
    3  0.010  0.000  0.016  0.027
    4  0.011  0.000  0.016  0.027
    5  0.010  0.000  0.014  0.024
    6  0.010  0.000  0.016  0.026
    7  0.010  0.000  0.016  0.027
    8  0.010  0.000  0.016  0.026
    9  0.011  0.000  0.015  0.026
   10  0.000  0.000  0.021  0.022
   11  0.000  0.000  0.018  0.018
   12  0.000  0.000  0.021  0.022
   13  0.000  0.000  0.018  0.018
   14  0.000  0.000  0.018  0.018
   15  0.000  0.000  0.015  0.015
   16  0.000  0.000  0.021  0.022
   17  0.000  0.000  0.015  0.015
   18  0.000  0.000  0.015  0.015
   19  0.000  0.000  0.015  0.015
   20  0.000  0.000  0.026  0.026
   21  0.000  0.000  0.026  0.026
   22  0.000  0.000  0.012  0.013
   23  0.000  0.000  0.026  0.026
   24  0.000  0.000  0.012  0.013
   25  0.000  0.000  0.015  0.015
   26  0.000  0.000  0.015  0.015
   27  0.000  0.000  0.012  0.013
   28  0.008  0.000  0.013  0.021
   29  0.010  0.000  0.014  0.024
   30  0.010  0.000  0.014  0.024
   31  0.010  0.000  0.014  0.024
   32  0.010  0.000  0.014  0.024
   33  0.010  0.000  0.014  0.024
   34  0.010  0.000  0.014  0.024
   35  0.009  0.000  0.013  0.023
   36  0.005  0.000  0.004  0.009
tot    0.180  0.005  0.580  0.765
 
band     8 # energy   -4.94521103 # occ.  2.00000000
 
ion      s      p      d    tot
    1  0.006  0.001  0.004  0.011
    2  0.000  0.000  0.005  0.005
    3  0.000  0.000  0.005  0.005
    4  0.000  0.000  0.005  0.005
    5  0.002  0.000  0.001  0.003
    6  0.000  0.000  0.005  0.005
    7  0.000  0.000  0.005  0.005
    8  0.000  0.000  0.005  0.005
    9  0.002  0.000  0.000  0.002
   10  0.008  0.000  0.040  0.049
   11  0.000  0.000  0.030  0.031
   12  0.008  0.000  0.040  0.048
   13  0.000  0.000  0.030  0.031
   14  0.000  0.000  0.030  0.031
   15  0.008  0.001  0.003  0.012
   16  0.008  0.000  0.040  0.048
   17  0.008  0.001  0.003  0.012
   18  0.008  0.001  0.003  0.012
   19  0.002  0.001  0.028  0.031
   20  0.006  0.000  0.086  0.092
   21  0.006  0.000  0.086  0.092
   22  0.014  0.001  0.010  0.025
   23  0.006  0.000  0.086  0.092
   24  0.014  0.001  0.010  0.025
   25  0.002  0.001  0.028  0.031
   26  0.002  0.001  0.028  0.031
   27  0.014  0.001  0.010  0.025
   28  0.000  0.000  0.001  0.001
   29  0.000  0.000  0.004  0.005
   30  0.000  0.000  0.004  0.004
   31  0.000  0.000  0.004  0.005
   32  0.000  0.000  0.004  0.004
   33  0.000  0.000  0.004  0.004
   34  0.000  0.000  0.004  0.004
   35  0.004  0.001  0.002  0.008
   36  0.002  0.001  0.003  0.006
tot    0.128  0.015  0.662  0.805
 
band     9 # energy   -4.93094945 # occ.  2.00000000
 
ion      s      p      d    tot
    1  0.000  0.000  0.002  0.002
    2  0.000  0.000  0.005  0.005
    3  0.000  0.000  0.002  0.002
    4  0.000  0.000  0.005  0.005
    5  0.000  0.000  0.006  0.006
    6  0.000  0.000  0.004  0.005
    7  0.000  0.000  0.002  0.002
    8  0.000  0.000  0.004  0.005
    9  0.000  0.000  0.004  0.004
   10  0.000  0.001  0.055  0.056
   11  0.012  0.000  0.031  0.044
   12  0.000  0.001  0.037  0.038
   13  0.012  0.000  0.033  0.045
   14  0.000  0.000  0.093  0.093
   15  0.012  0.001  0.025  0.038
   16  0.000  0.001  0.036  0.037
   17  0.011  0.001  0.025  0.037
   18  0.000  0.001  0.012  0.014
   19  0.010  0.000  0.024  0.034
   20  0.000  0.001  0.074  0.075
   21  0.000  0.000  0.045  0.046
   22  0.007  0.001  0.022  0.029
   23  0.000  0.000  0.044  0.045
   24  0.000  0.001  0.011  0.012
   25  0.000  0.000  0.051  0.051
   26  0.010  0.000  0.025  0.035
   27  0.007  0.001  0.022  0.029
   28  0.000  0.000  0.004  0.004
   29  0.000  0.000  0.004  0.005
   30  0.000  0.000  0.003  0.003
   31  0.000  0.000  0.004  0.005
   32  0.000  0.000  0.003  0.003
   33  0.000  0.000  0.003  0.003
   34  0.000  0.000  0.003  0.003
   35  0.000  0.000  0.004  0.004
   36  0.000  0.000  0.001  0.001
tot    0.082  0.012  0.731  0.825
 
band    10 # energy   -4.93092775 # occ.  2.00000000
 
ion      s      p      d    tot
    1  0.000  0.000  0.002  0.002
    2  0.000  0.000  0.003  0.003
    3  0.000  0.000  0.005  0.006
    4  0.000  0.000  0.003  0.003
    5  0.000  0.000  0.006  0.006
    6  0.000  0.000  0.003  0.003
    7  0.000  0.000  0.005  0.006
    8  0.000  0.000  0.003  0.004
    9  0.000  0.000  0.004  0.004
   10  0.000  0.000  0.031  0.031
   11  0.004  0.000  0.074  0.078
   12  0.000  0.001  0.049  0.050
   13  0.004  0.000  0.072  0.076
   14  0.016  0.001  0.012  0.028
   15  0.004  0.001  0.017  0.021
   16  0.000  0.001  0.049  0.050
   17  0.004  0.001  0.017  0.022
   18  0.015  0.001  0.030  0.045
   19  0.003  0.000  0.043  0.046
   20  0.000  0.000  0.035  0.035
   21  0.000  0.000  0.064  0.064
   22  0.002  0.001  0.015  0.018
   23  0.000  0.000  0.065  0.065
   24  0.009  0.001  0.025  0.035
   25  0.013  0.001  0.015  0.029
   26  0.003  0.000  0.042  0.045
   27  0.002  0.001  0.014  0.017
   28  0.000  0.000  0.004  0.004
   29  0.000  0.000  0.002  0.003
   30  0.000  0.000  0.004  0.004
   31  0.000  0.000  0.002  0.003
   32  0.000  0.000  0.004  0.004
   33  0.000  0.000  0.004  0.004
   34  0.000  0.000  0.004  0.004
   35  0.000  0.000  0.004  0.004
   36  0.000  0.000  0.001  0.001
tot    0.082  0.012  0.731  0.825
 
band    11 # energy   -4.92769242 # occ.  2.00000000
 
ion      s      p      d    tot
    1  0.000  0.000  0.012  0.012
    2  0.001  0.000  0.005  0.007
    3  0.002  0.001  0.004  0.007
    4  0.001  0.000  0.005  0.007
    5  0.000  0.000  0.005  0.005
    6  0.000  0.000  0.003  0.003
    7  0.002  0.001  0.004  0.007
    8  0.000  0.000  0.003  0.003
    9  0.000  0.000  0.001  0.001
   10  0.000  0.000  0.076  0.077
   11  0.013  0.001  0.028  0.041
   12  0.019  0.001  0.023  0.043
   13  0.013  0.001  0.028  0.041
   14  0.000  0.002  0.019  0.020
   15  0.001  0.000  0.022  0.023
   16  0.019  0.001  0.023  0.042
   17  0.001  0.000  0.022  0.023
   18  0.000  0.001  0.035  0.036
   19  0.010  0.001  0.025  0.035
   20  0.000  0.000  0.082  0.082
   21  0.021  0.001  0.026  0.048
   22  0.002  0.000  0.022  0.024
   23  0.021  0.001  0.026  0.048
   24  0.000  0.000  0.041  0.041
   25  0.000  0.002  0.013  0.014
   26  0.010  0.001  0.025  0.035
   27  0.002  0.000  0.022  0.024
   28  0.000  0.000  0.003  0.004
   29  0.001  0.000  0.004  0.005
   30  0.000  0.000  0.003  0.003
   31  0.001  0.000  0.004  0.005
   32  0.002  0.001  0.004  0.007
   33  0.000  0.000  0.003  0.003
   34  0.002  0.001  0.004  0.007
   35  0.000  0.000  0.002  0.002
   36  0.000  0.000  0.003  0.003
tot    0.142  0.018  0.632  0.792
 
band    12 # energy   -4.92768103 # occ.  2.00000000
 
ion      s      p      d    tot
    1  0.000  0.000  0.012  0.012
    2  0.001  0.000  0.003  0.005
    3  0.000  0.000  0.004  0.004
    4  0.001  0.000  0.003  0.005
    5  0.000  0.000  0.005  0.005
    6  0.002  0.001  0.005  0.008
    7  0.000  0.000  0.004  0.004
    8  0.002  0.001  0.005  0.008
    9  0.000  0.000  0.001  0.001
   10  0.025  0.001  0.005  0.031
   11  0.004  0.001  0.022  0.027
   12  0.006  0.000  0.058  0.065
   13  0.004  0.001  0.022  0.028
   14  0.017  0.000  0.031  0.048
   15  0.000  0.001  0.031  0.032
   16  0.006  0.000  0.059  0.065
   17  0.000  0.001  0.031  0.032
   18  0.001  0.000  0.018  0.019
   19  0.003  0.001  0.017  0.021
   20  0.028  0.001  0.007  0.036
   21  0.007  0.001  0.063  0.071
   22  0.001  0.000  0.035  0.035
   23  0.007  0.001  0.063  0.071
   24  0.002  0.000  0.015  0.018
   25  0.013  0.000  0.029  0.042
   26  0.003  0.001  0.017  0.021
   27  0.001  0.000  0.035  0.036
   28  0.000  0.000  0.003  0.004
   29  0.001  0.000  0.004  0.005
   30  0.002  0.000  0.005  0.007
   31  0.001  0.000  0.004  0.005
   32  0.000  0.000  0.003  0.003
   33  0.002  0.000  0.005  0.007
   34  0.000  0.000  0.003  0.003
   35  0.000  0.000  0.002  0.002
   36  0.000  0.000  0.003  0.003
tot    0.142  0.018  0.632  0.792
 
band    13 # energy   -4.92303637 # occ.  2.00000000
 
ion      s      p      d    tot
    1  0.007  0.000  0.003  0.009
    2  0.004  0.000  0.013  0.016
    3  0.004  0.000  0.013  0.016
    4  0.004  0.000  0.013  0.016
    5  0.002  0.000  0.027  0.030
    6  0.004  0.000  0.013  0.016
    7  0.004  0.000  0.013  0.016
    8  0.004  0.000  0.013  0.016
    9  0.004  0.000  0.006  0.009
   10  0.002  0.001  0.006  0.008
   11  0.009  0.001  0.050  0.060
   12  0.002  0.001  0.006  0.008
   13  0.009  0.001  0.050  0.060
   14  0.009  0.001  0.050  0.060
   15  0.001  0.000  0.034  0.036
   16  0.002  0.001  0.006  0.008
   17  0.001  0.000  0.034  0.036
   18  0.001  0.000  0.034  0.036
   19  0.000  0.000  0.029  0.029
   20  0.005  0.001  0.038  0.044
   21  0.005  0.001  0.037  0.043
   22  0.000  0.001  0.005  0.005
   23  0.005  0.001  0.037  0.043
   24  0.000  0.001  0.005  0.005
   25  0.000  0.000  0.029  0.029
   26  0.000  0.000  0.029  0.029
   27  0.000  0.001  0.005  0.005
   28  0.004  0.000  0.002  0.006
   29  0.004  0.000  0.011  0.015
   30  0.004  0.000  0.011  0.015
   31  0.004  0.000  0.011  0.015
   32  0.004  0.000  0.011  0.015
   33  0.004  0.000  0.011  0.015
   34  0.004  0.000  0.011  0.015
   35  0.002  0.000  0.008  0.010
   36  0.003  0.000  0.004  0.006
tot    0.117  0.010  0.675  0.802
 
band    14 # energy   -4.91536922 # occ.  2.00000000
 
ion      s      p      d    tot
    1  0.001  0.000  0.001  0.002
    2  0.002  0.000  0.011  0.013
    3  0.002  0.000  0.011  0.013
    4  0.002  0.000  0.011  0.013
    5  0.012  0.001  0.002  0.015
    6  0.002  0.000  0.011  0.013
    7  0.002  0.000  0.011  0.013
    8  0.002  0.000  0.011  0.013
    9  0.000  0.001  0.023  0.024
   10  0.005  0.001  0.027  0.032
   11  0.007  0.001  0.012  0.020
   12  0.005  0.001  0.027  0.032
   13  0.007  0.001  0.012  0.020
   14  0.007  0.001  0.012  0.020
   15  0.008  0.000  0.051  0.059
   16  0.005  0.001  0.027  0.032
   17  0.008  0.000  0.051  0.059
   18  0.007  0.000  0.051  0.059
   19  0.011  0.001  0.010  0.022
   20  0.002  0.001  0.019  0.022
   21  0.002  0.001  0.019  0.022
   22  0.000  0.000  0.030  0.030
   23  0.002  0.001  0.019  0.022
   24  0.000  0.000  0.030  0.030
   25  0.011  0.001  0.010  0.022
   26  0.011  0.001  0.010  0.022
   27  0.000  0.000  0.030  0.030
   28  0.001  0.001  0.009  0.011
   29  0.002  0.000  0.012  0.015
   30  0.002  0.000  0.012  0.015
   31  0.002  0.000  0.012  0.015
   32  0.002  0.000  0.012  0.015
   33  0.002  0.000  0.012  0.015
   34  0.002  0.000  0.012  0.015
   35  0.008  0.000  0.001  0.009
   36  0.003  0.000  0.002  0.005
tot    0.151  0.015  0.622  0.788
 
band    15 # energy   -4.90230945 # occ.  2.00000000
 
ion      s      p      d    tot
    1  0.002  0.000  0.026  0.028
    2  0.002  0.000  0.010  0.013
    3  0.002  0.000  0.010  0.013
    4  0.002  0.000  0.010  0.013
    5  0.000  0.000  0.001  0.001
    6  0.002  0.000  0.010  0.013
    7  0.002  0.000  0.010  0.013
    8  0.002  0.000  0.010  0.013
    9  0.008  0.000  0.001  0.009
   10  0.003  0.000  0.056  0.059
   11  0.002  0.000  0.028  0.030
   12  0.003  0.000  0.056  0.059
   13  0.002  0.000  0.028  0.030
   14  0.002  0.000  0.028  0.030
   15  0.002  0.001  0.004  0.006
   16  0.003  0.000  0.056  0.059
   17  0.002  0.001  0.004  0.006
   18  0.002  0.001  0.004  0.006
   19  0.000  0.000  0.027  0.028
   20  0.000  0.000  0.028  0.028
   21  0.000  0.000  0.028  0.028
   22  0.004  0.000  0.023  0.026
   23  0.000  0.000  0.028  0.028
   24  0.004  0.000  0.023  0.026
   25  0.000  0.000  0.027  0.028
   26  0.000  0.000  0.027  0.028
   27  0.004  0.000  0.023  0.026
   28  0.013  0.000  0.017  0.031
   29  0.004  0.000  0.017  0.021
   30  0.004  0.000  0.017  0.021
   31  0.004  0.000  0.017  0.021
   32  0.004  0.000  0.017  0.021
   33  0.004  0.000  0.017  0.021
   34  0.004  0.000  0.017  0.021
   35  0.001  0.000  0.018  0.020
   36  0.001  0.000  0.000  0.001
tot    0.095  0.006  0.720  0.822
 
band    16 # energy   -4.88508798 # occ.  2.00000000
 
ion      s      p      d    tot
    1  0.000  0.000  0.012  0.012
    2  0.003  0.000  0.006  0.009
    3  0.000  0.000  0.010  0.011
    4  0.003  0.000  0.006  0.009
    5  0.000  0.000  0.012  0.012
    6  0.004  0.001  0.007  0.012
    7  0.000  0.000  0.010  0.011
    8  0.004  0.001  0.007  0.011
    9  0.000  0.001  0.007  0.008
   10  0.000  0.000  0.041  0.041
   11  0.000  0.000  0.034  0.035
   12  0.009  0.000  0.028  0.037
   13  0.000  0.000  0.034  0.035
   14  0.000  0.000  0.029  0.029
   15  0.012  0.000  0.027  0.039
   16  0.008  0.000  0.029  0.037
   17  0.012  0.000  0.025  0.037
   18  0.000  0.000  0.088  0.088
   19  0.000  0.000  0.027  0.027
   20  0.000  0.000  0.045  0.045
   21  0.006  0.000  0.021  0.028
   22  0.007  0.000  0.021  0.028
   23  0.006  0.000  0.022  0.028
   24  0.000  0.000  0.043  0.043
   25  0.000  0.000  0.022  0.022
   26  0.000  0.000  0.027  0.027
   27  0.006  0.000  0.022  0.028
   28  0.000  0.000  0.014  0.014
   29  0.002  0.000  0.006  0.008
   30  0.004  0.001  0.006  0.010
   31  0.002  0.000  0.006  0.008
   32  0.001  0.000  0.008  0.008
   33  0.004  0.001  0.006  0.010
   34  0.000  0.000  0.008  0.008
   35  0.000  0.000  0.007  0.007
   36  0.000  0.000  0.001  0.002
tot    0.091  0.010  0.723  0.824
 
band    17 # energy   -4.88507498 # occ.  2.00000000
 
ion      s      p      d    tot
    1  0.000  0.000  0.012  0.012
    2  0.002  0.001  0.009  0.012
    3  0.004  0.001  0.005  0.010
    4  0.002  0.001  0.009  0.012
    5  0.000  0.000  0.012  0.012
    6  0.001  0.000  0.008  0.009
    7  0.004  0.001  0.005  0.010
    8  0.001  0.000  0.008  0.009
    9  0.000  0.001  0.007  0.008
   10  0.011  0.000  0.025  0.036
   11  0.000  0.000  0.030  0.031
   12  0.003  0.000  0.037  0.040
   13  0.000  0.000  0.030  0.031
   14  0.001  0.000  0.036  0.037
   15  0.004  0.000  0.066  0.070
   16  0.003  0.000  0.037  0.040
   17  0.004  0.000  0.068  0.072
   18  0.016  0.000  0.005  0.021
   19  0.000  0.000  0.024  0.024
   20  0.008  0.000  0.014  0.022
   21  0.002  0.000  0.038  0.040
   22  0.002  0.000  0.036  0.039
   23  0.002  0.000  0.037  0.039
   24  0.009  0.000  0.014  0.023
   25  0.000  0.000  0.029  0.029
   26  0.000  0.000  0.024  0.024
   27  0.002  0.000  0.036  0.038
   28  0.000  0.000  0.014  0.014
   29  0.002  0.001  0.007  0.010
   30  0.000  0.000  0.007  0.007
   31  0.002  0.001  0.007  0.010
   32  0.003  0.000  0.005  0.009
   33  0.000  0.000  0.007  0.007
   34  0.003  0.001  0.005  0.009
   35  0.000  0.000  0.007  0.007
   36  0.000  0.000  0.001  0.002
tot    0.091  0.010  0.723  0.824
 
band    18 # energy   -4.87589655 # occ.  2.00000000
 
ion      s      p      d    tot
    1  0.001  0.000  0.003  0.005
    2  0.001  0.000  0.014  0.016
    3  0.000  0.000  0.004  0.004
    4  0.001  0.000  0.014  0.016
    5  0.000  0.000  0.004  0.004
    6  0.001  0.000  0.005  0.006
    7  0.000  0.000  0.004  0.004
    8  0.001  0.000  0.005  0.006
    9  0.002  0.000  0.013  0.014
   10  0.000  0.000  0.048  0.048
   11  0.001  0.000  0.032  0.034
   12  0.001  0.000  0.007  0.008
   13  0.001  0.000  0.032  0.034
   14  0.000  0.000  0.005  0.006
   15  0.000  0.000  0.043  0.043
   16  0.001  0.000  0.007  0.008
   17  0.000  0.000  0.043  0.043
   18  0.000  0.000  0.038  0.039
   19  0.007  0.000  0.071  0.078
   20  0.004  0.000  0.055  0.060
   21  0.001  0.000  0.006  0.008
   22  0.003  0.000  0.054  0.057
   23  0.001  0.000  0.006  0.008
   24  0.006  0.000  0.069  0.075
   25  0.000  0.000  0.010  0.010
   26  0.007  0.000  0.071  0.078
   27  0.002  0.000  0.054  0.057
   28  0.000  0.000  0.007  0.007
   29  0.000  0.000  0.015  0.016
   30  0.001  0.000  0.004  0.005
   31  0.000  0.000  0.015  0.016
   32  0.001  0.000  0.006  0.007
   33  0.001  0.000  0.004  0.005
   34  0.001  0.000  0.006  0.007
   35  0.001  0.000  0.013  0.014
   36  0.001  0.000  0.001  0.002
tot    0.049  0.007  0.791  0.846
 
band    19 # energy   -4.87585462 # occ.  2.00000000
 
ion      s      p      d    tot
    1  0.002  0.000  0.003  0.004
    2  0.001  0.000  0.002  0.003
    3  0.000  0.000  0.013  0.013
    4  0.001  0.000  0.002  0.003
    5  0.000  0.000  0.004  0.004
    6  0.001  0.000  0.010  0.011
    7  0.000  0.000  0.012  0.012
    8  0.001  0.000  0.009  0.011
    9  0.002  0.000  0.012  0.014
   10  0.001  0.000  0.006  0.008
   11  0.000  0.000  0.024  0.024
   12  0.000  0.000  0.029  0.029
   13  0.000  0.000  0.022  0.022
   14  0.003  0.001  0.020  0.023
   15  0.000  0.000  0.044  0.044
   16  0.000  0.000  0.026  0.027
   17  0.000  0.000  0.044  0.044
   18  0.001  0.000  0.039  0.040
   19  0.001  0.000  0.055  0.056
   20  0.001  0.000  0.011  0.012
   21  0.003  0.000  0.028  0.032
   22  0.001  0.000  0.078  0.079
   23  0.003  0.000  0.025  0.028
   24  0.007  0.000  0.027  0.035
   25  0.013  0.000  0.044  0.057
   26  0.000  0.000  0.050  0.051
   27  0.001  0.000  0.078  0.079
   28  0.001  0.000  0.007  0.008
   29  0.000  0.000  0.004  0.004
   30  0.001  0.000  0.010  0.012
   31  0.000  0.000  0.004  0.004
   32  0.000  0.000  0.013  0.013
   33  0.001  0.000  0.010  0.011
   34  0.000  0.000  0.012  0.013
   35  0.001  0.000  0.012  0.014
   36  0.001  0.000  0.001  0.002
tot    0.048  0.007  0.791  0.846
 
band    20 # energy   -4.87582202 # occ.  2.00000000
 
ion      s      p      d    tot
    1  0.000  0.000  0.006  0.006
    2  0.000  0.000  0.006  0.007
    3  0.002  0.000  0.005  0.008
    4  0.000  0.000  0.006  0.007
    5  0.000  0.000  0.006  0.006
    6  0.001  0.000  0.008  0.008
    7  0.002  0.000  0.006  0.008
    8  0.001  0.000  0.008  0.009
    9  0.000  0.000  0.018  0.019
   10  0.000  0.000  0.007  0.007
   11  0.002  0.000  0.018  0.019
   12  0.000  0.000  0.026  0.026
   13  0.002  0.000  0.020  0.022
   14  0.000  0.000  0.049  0.049
   15  0.001  0.000  0.033  0.034
   16  0.000  0.000  0.028  0.028
   17  0.001  0.000  0.034  0.035
   18  0.000  0.000  0.043  0.043
   19  0.006  0.000  0.029  0.034
   20  0.000  0.001  0.007  0.008
   21  0.000  0.000  0.040  0.040
   22  0.010  0.000  0.038  0.048
   23  0.001  0.000  0.043  0.044
   24  0.000  0.000  0.074  0.074
   25  0.000  0.000  0.100  0.100
   26  0.006  0.000  0.033  0.039
   27  0.010  0.000  0.038  0.049
   28  0.000  0.000  0.005  0.005
   29  0.001  0.001  0.005  0.007
   30  0.000  0.000  0.010  0.010
   31  0.001  0.001  0.005  0.007
   32  0.001  0.000  0.005  0.007
   33  0.000  0.000  0.010  0.011
   34  0.001  0.000  0.006  0.007
   35  0.000  0.000  0.014  0.014
   36  0.000  0.000  0.001  0.001
tot    0.050  0.007  0.789  0.846
 
band    21 # energy   -4.73172491 # occ.  2.00000000
 
ion      s      p      d    tot
    1  0.001  0.000  0.001  0.002
    2  0.000  0.000  0.006  0.007
    3  0.000  0.000  0.006  0.007
    4  0.000  0.000  0.006  0.007
    5  0.001  0.001  0.013  0.015
    6  0.000  0.000  0.006  0.007
    7  0.000  0.000  0.006  0.007
    8  0.000  0.000  0.006  0.007
    9  0.003  0.001  0.003  0.007
   10  0.001  0.000  0.018  0.019
   11  0.000  0.001  0.074  0.075
   12  0.001  0.000  0.018  0.018
   13  0.000  0.001  0.074  0.075
   14  0.000  0.001  0.074  0.075
   15  0.000  0.000  0.028  0.029
   16  0.001  0.000  0.018  0.018
   17  0.000  0.000  0.028  0.029
   18  0.000  0.000  0.028  0.028
   19  0.000  0.000  0.033  0.033
   20  0.002  0.000  0.059  0.061
   21  0.002  0.000  0.059  0.061
   22  0.002  0.000  0.019  0.020
   23  0.002  0.000  0.059  0.061
   24  0.002  0.000  0.018  0.020
   25  0.000  0.000  0.033  0.033
   26  0.000  0.000  0.033  0.033
   27  0.002  0.000  0.019  0.020
   28  0.004  0.001  0.004  0.008
   29  0.000  0.000  0.012  0.012
   30  0.000  0.000  0.012  0.012
   31  0.000  0.000  0.012  0.012
   32  0.000  0.000  0.012  0.012
   33  0.000  0.000  0.012  0.012
   34  0.000  0.000  0.012  0.012
   35  0.004  0.001  0.000  0.005
   36  0.000  0.000  0.002  0.002
tot    0.026  0.014  0.821  0.861
 
band    22 # energy   -4.72827009 # occ.  2.00000000
 
ion      s      p      d    tot
    1  0.000  0.000  0.002  0.002
    2  0.000  0.000  0.008  0.009
    3  0.002  0.001  0.005  0.008
    4  0.000  0.000  0.008  0.009
    5  0.000  0.001  0.019  0.020
    6  0.001  0.001  0.009  0.010
    7  0.002  0.001  0.005  0.008
    8  0.001  0.001  0.008  0.010
    9  0.000  0.000  0.009  0.009
   10  0.000  0.000  0.036  0.037
   11  0.002  0.000  0.055  0.058
   12  0.000  0.001  0.026  0.027
   13  0.002  0.000  0.057  0.059
   14  0.000  0.000  0.082  0.082
   15  0.002  0.001  0.025  0.028
   16  0.000  0.001  0.025  0.026