PROCAR new format
# of k-points:   10         # of bands:  252         # of ions:   37

 k-point     1 :    0.00000000 0.00000000 0.00000000     weight = 0.01562500

band     1 # energy   -8.83490892 # occ.  2.00000000
 
ion      s      p      d    tot
    1  0.007  0.001  0.000  0.008
    2  0.007  0.001  0.000  0.007
    3  0.007  0.001  0.000  0.007
    4  0.007  0.001  0.000  0.007
    5  0.007  0.001  0.000  0.008
    6  0.007  0.001  0.000  0.007
    7  0.007  0.001  0.000  0.007
    8  0.007  0.001  0.000  0.007
    9  0.007  0.001  0.000  0.007
   10  0.025  0.000  0.000  0.025
   11  0.025  0.000  0.000  0.025
   12  0.025  0.000  0.000  0.025
   13  0.025  0.000  0.000  0.025
   14  0.025  0.000  0.000  0.025
   15  0.025  0.000  0.000  0.025
   16  0.025  0.000  0.000  0.025
   17  0.025  0.000  0.000  0.025
   18  0.025  0.000  0.000  0.025
   19  0.025  0.000  0.000  0.025
   20  0.025  0.000  0.000  0.025
   21  0.025  0.000  0.000  0.025
   22  0.024  0.000  0.000  0.024
   23  0.025  0.000  0.000  0.025
   24  0.024  0.000  0.000  0.024
   25  0.025  0.000  0.000  0.025
   26  0.025  0.000  0.000  0.025
   27  0.024  0.000  0.000  0.024
   28  0.007  0.001  0.000  0.007
   29  0.006  0.001  0.000  0.007
   30  0.006  0.001  0.000  0.007
   31  0.006  0.001  0.000  0.007
   32  0.006  0.001  0.000  0.007
   33  0.006  0.001  0.000  0.007
   34  0.006  0.001  0.000  0.007
   35  0.006  0.001  0.000  0.007
   36  0.008  0.001  0.000  0.009
   37  0.000  0.000  0.000  0.000
tot    0.565  0.017  0.001  0.583
 
band     2 # energy   -7.52350432 # occ.  2.00000000
 
ion      s      p      d    tot
    1  0.018  0.001  0.001  0.019
    2  0.018  0.001  0.001  0.019
    3  0.018  0.001  0.001  0.019
    4  0.018  0.001  0.001  0.019
    5  0.018  0.001  0.001  0.020
    6  0.018  0.001  0.001  0.019
    7  0.018  0.001  0.001  0.019
    8  0.018  0.001  0.001  0.019
    9  0.018  0.001  0.001  0.019
   10  0.010  0.002  0.001  0.013
   11  0.010  0.002  0.001  0.013
   12  0.010  0.002  0.001  0.013
   13  0.010  0.002  0.001  0.013
   14  0.010  0.002  0.001  0.013
   15  0.010  0.002  0.001  0.012
   16  0.010  0.002  0.001  0.013
   17  0.010  0.002  0.001  0.012
   18  0.010  0.002  0.001  0.012
   19  0.011  0.002  0.001  0.014
   20  0.010  0.002  0.001  0.013
   21  0.010  0.002  0.001  0.013
   22  0.011  0.002  0.001  0.014
   23  0.010  0.002  0.001  0.013
   24  0.011  0.002  0.001  0.014
   25  0.011  0.002  0.001  0.014
   26  0.011  0.002  0.001  0.014
   27  0.011  0.002  0.001  0.014
   28  0.019  0.001  0.000  0.020
   29  0.018  0.001  0.000  0.019
   30  0.018  0.001  0.000  0.019
   31  0.018  0.001  0.000  0.019
   32  0.018  0.001  0.000  0.019
   33  0.018  0.001  0.000  0.019
   34  0.018  0.001  0.000  0.019
   35  0.018  0.001  0.000  0.020
   36  0.020  0.001  0.000  0.021
   37  0.001  0.000  0.000  0.001
tot    0.510  0.054  0.019  0.583
 
band     3 # energy   -5.89809024 # occ.  2.00000000
 
ion      s      p      d    tot
    1  0.017  0.000  0.006  0.023
    2  0.014  0.000  0.006  0.021
    3  0.014  0.000  0.006  0.021
    4  0.014  0.000  0.006  0.021
    5  0.005  0.001  0.007  0.013
    6  0.014  0.000  0.006  0.021
    7  0.014  0.000  0.006  0.021
    8  0.014  0.000  0.006  0.021
    9  0.026  0.000  0.004  0.030
   10  0.003  0.003  0.003  0.010
   11  0.015  0.005  0.001  0.021
   12  0.003  0.003  0.003  0.010
   13  0.015  0.005  0.001  0.021
   14  0.015  0.005  0.001  0.021
   15  0.000  0.002  0.005  0.007
   16  0.003  0.003  0.003  0.010
   17  0.000  0.002  0.005  0.007
   18  0.000  0.002  0.005  0.007
   19  0.000  0.003  0.005  0.008
   20  0.018  0.005  0.002  0.025
   21  0.018  0.005  0.002  0.025
   22  0.000  0.004  0.003  0.008
   23  0.018  0.005  0.002  0.025
   24  0.000  0.004  0.003  0.008
   25  0.000  0.003  0.005  0.008
   26  0.000  0.003  0.005  0.008
   27  0.000  0.004  0.003  0.008
   28  0.021  0.000  0.005  0.026
   29  0.015  0.000  0.006  0.022
   30  0.015  0.000  0.006  0.022
   31  0.015  0.000  0.006  0.022
   32  0.015  0.000  0.006  0.022
   33  0.015  0.000  0.006  0.022
   34  0.015  0.000  0.006  0.022
   35  0.025  0.000  0.005  0.030
   36  0.003  0.003  0.006  0.012
   37  0.001  0.000  0.000  0.001
tot    0.382  0.075  0.168  0.624
 
band     4 # energy   -5.85369239 # occ.  2.00000000
 
ion      s      p      d    tot
    1  0.000  0.002  0.005  0.008
    2  0.000  0.001  0.002  0.003
    3  0.009  0.002  0.002  0.013
    4  0.000  0.001  0.002  0.003
    5  0.000  0.003  0.004  0.006
    6  0.006  0.002  0.002  0.009
    7  0.009  0.002  0.002  0.013
    8  0.006  0.002  0.002  0.010
    9  0.000  0.000  0.002  0.002
   10  0.000  0.001  0.016  0.017
   11  0.025  0.004  0.006  0.034
   12  0.042  0.004  0.007  0.053
   13  0.024  0.004  0.006  0.034
   14  0.000  0.013  0.004  0.017
   15  0.003  0.003  0.005  0.010
   16  0.043  0.004  0.006  0.053
   17  0.002  0.003  0.005  0.010
   18  0.000  0.006  0.008  0.014
   19  0.017  0.004  0.006  0.026
   20  0.000  0.003  0.017  0.019
   21  0.048  0.004  0.008  0.060
   22  0.007  0.003  0.005  0.016
   23  0.049  0.004  0.008  0.061
   24  0.000  0.004  0.011  0.015
   25  0.000  0.014  0.002  0.016
   26  0.017  0.004  0.006  0.026
   27  0.008  0.003  0.005  0.016
   28  0.000  0.002  0.003  0.006
   29  0.000  0.001  0.002  0.003
   30  0.008  0.002  0.003  0.013
   31  0.000  0.001  0.002  0.003
   32  0.008  0.002  0.003  0.013
   33  0.008  0.002  0.003  0.013
   34  0.008  0.002  0.003  0.013
   35  0.000  0.000  0.003  0.003
   36  0.000  0.005  0.006  0.011
   37  0.000  0.000  0.000  0.000
tot    0.346  0.117  0.180  0.643
 
band     5 # energy   -5.85362234 # occ.  2.00000000
 
ion      s      p      d    tot
    1  0.000  0.002  0.005  0.008
    2  0.009  0.002  0.002  0.014
    3  0.001  0.001  0.002  0.004
    4  0.010  0.002  0.002  0.014
    5  0.000  0.003  0.004  0.006
    6  0.004  0.002  0.002  0.008
    7  0.001  0.001  0.002  0.004
    8  0.004  0.002  0.002  0.008
    9  0.000  0.000  0.002  0.002
   10  0.057  0.005  0.003  0.065
   11  0.008  0.010  0.004  0.022
   12  0.015  0.002  0.013  0.030
   13  0.008  0.010  0.005  0.023
   14  0.032  0.001  0.007  0.040
   15  0.001  0.005  0.007  0.013
   16  0.014  0.002  0.013  0.029
   17  0.001  0.005  0.007  0.013
   18  0.003  0.002  0.004  0.009
   19  0.005  0.010  0.003  0.019
   20  0.065  0.004  0.005  0.074
   21  0.017  0.003  0.014  0.033
   22  0.003  0.004  0.009  0.015
   23  0.016  0.003  0.014  0.033
   24  0.010  0.003  0.003  0.016
   25  0.023  0.000  0.007  0.030
   26  0.006  0.010  0.003  0.019
   27  0.002  0.004  0.009  0.015
   28  0.000  0.002  0.003  0.006
   29  0.010  0.003  0.003  0.016
   30  0.003  0.001  0.002  0.006
   31  0.010  0.003  0.003  0.016
   32  0.003  0.001  0.002  0.006
   33  0.003  0.001  0.002  0.006
   34  0.003  0.001  0.002  0.006
   35  0.000  0.000  0.003  0.003
   36  0.000  0.005  0.006  0.011
   37  0.000  0.000  0.000  0.000
tot    0.346  0.117  0.180  0.643
 
band     6 # energy   -5.83124727 # occ.  2.00000000
 
ion      s      p      d    tot
    1  0.020  0.003  0.001  0.024
    2  0.000  0.002  0.004  0.006
    3  0.000  0.002  0.004  0.006
    4  0.000  0.002  0.004  0.006
    5  0.002  0.000  0.000  0.003
    6  0.000  0.002  0.004  0.006
    7  0.000  0.002  0.004  0.006
    8  0.000  0.002  0.004  0.006
    9  0.009  0.001  0.000  0.011
   10  0.032  0.006  0.005  0.043
   11  0.006  0.000  0.012  0.018
   12  0.031  0.006  0.005  0.042
   13  0.006  0.000  0.012  0.018
   14  0.006  0.000  0.012  0.018
   15  0.010  0.008  0.004  0.021
   16  0.031  0.006  0.005  0.042
   17  0.010  0.008  0.004  0.021
   18  0.011  0.008  0.004  0.022
   19  0.024  0.009  0.002  0.035
   20  0.000  0.003  0.011  0.013
   21  0.000  0.003  0.010  0.013
   22  0.023  0.002  0.009  0.034
   23  0.000  0.003  0.010  0.013
   24  0.023  0.002  0.010  0.034
   25  0.023  0.009  0.002  0.035
   26  0.024  0.009  0.002  0.035
   27  0.023  0.002  0.009  0.034
   28  0.017  0.003  0.001  0.021
   29  0.000  0.002  0.004  0.006
   30  0.000  0.002  0.004  0.006
   31  0.000  0.002  0.004  0.006
   32  0.000  0.002  0.004  0.006
   33  0.000  0.002  0.004  0.006
   34  0.000  0.002  0.004  0.006
   35  0.013  0.002  0.001  0.016
   36  0.000  0.000  0.000  0.000
   37  0.000  0.000  0.000  0.000
tot    0.345  0.114  0.181  0.640
 
band     7 # energy   -5.82490231 # occ.  2.00000000
 
ion      s      p      d    tot
    1  0.000  0.001  0.002  0.003
    2  0.000  0.001  0.002  0.003
    3  0.009  0.002  0.003  0.014
    4  0.000  0.001  0.002  0.003
    5  0.000  0.001  0.004  0.005
    6  0.006  0.002  0.002  0.010
    7  0.009  0.002  0.003  0.014
    8  0.006  0.002  0.002  0.010
    9  0.000  0.003  0.005  0.009
   10  0.005  0.000  0.006  0.011
   11  0.007  0.002  0.012  0.021
   12  0.001  0.010  0.003  0.014
   13  0.007  0.002  0.012  0.021
   14  0.031  0.004  0.002  0.037
   15  0.015  0.006  0.009  0.030
   16  0.001  0.010  0.003  0.014
   17  0.015  0.006  0.009  0.030
   18  0.058  0.003  0.005  0.066
   19  0.010  0.001  0.013  0.025
   20  0.001  0.001  0.006  0.007
   21  0.000  0.009  0.004  0.013
   22  0.013  0.007  0.007  0.028
   23  0.000  0.009  0.004  0.013
   24  0.053  0.002  0.006  0.061
   25  0.041  0.005  0.002  0.048
   26  0.010  0.001  0.013  0.024
   27  0.013  0.007  0.007  0.028
   28  0.000  0.001  0.005  0.006
   29  0.000  0.001  0.002  0.003
   30  0.008  0.002  0.002  0.012
   31  0.000  0.001  0.002  0.003
   32  0.008  0.002  0.003  0.013
   33  0.008  0.002  0.002  0.012
   34  0.008  0.002  0.003  0.013
   35  0.000  0.003  0.005  0.009
   36  0.000  0.001  0.002  0.003
   37  0.000  0.000  0.000  0.000
tot    0.344  0.116  0.178  0.638
 
band     8 # energy   -5.82482532 # occ.  2.00000000
 
ion      s      p      d    tot
    1  0.000  0.001  0.002  0.003
    2  0.010  0.002  0.002  0.015
    3  0.001  0.001  0.002  0.004
    4  0.010  0.002  0.002  0.015
    5  0.000  0.001  0.004  0.005
    6  0.004  0.002  0.002  0.008
    7  0.001  0.001  0.002  0.004
    8  0.004  0.002  0.002  0.008
    9  0.000  0.003  0.005  0.009
   10  0.000  0.013  0.002  0.015
   11  0.023  0.004  0.005  0.032
   12  0.004  0.003  0.005  0.012
   13  0.023  0.004  0.005  0.032
   14  0.000  0.001  0.015  0.016
   15  0.044  0.004  0.007  0.054
   16  0.004  0.003  0.005  0.012
   17  0.044  0.004  0.007  0.054
   18  0.000  0.007  0.011  0.017
   19  0.031  0.004  0.006  0.040
   20  0.000  0.011  0.004  0.015
   21  0.001  0.004  0.005  0.009
   22  0.040  0.004  0.006  0.050
   23  0.001  0.004  0.005  0.009
   24  0.000  0.009  0.008  0.017
   25  0.000  0.000  0.017  0.017
   26  0.031  0.004  0.006  0.040
   27  0.039  0.004  0.006  0.050
   28  0.000  0.001  0.005  0.006
   29  0.010  0.003  0.003  0.016
   30  0.002  0.001  0.003  0.006
   31  0.010  0.003  0.003  0.016
   32  0.003  0.001  0.002  0.006
   33  0.003  0.001  0.003  0.006
   34  0.003  0.001  0.002  0.006
   35  0.000  0.003  0.005  0.009
   36  0.000  0.001  0.002  0.003
   37  0.000  0.000  0.000  0.000
tot    0.344  0.116  0.178  0.638
 
band     9 # energy   -5.80269545 # occ.  2.00000000
 
ion      s      p      d    tot
    1  0.000  0.000  0.001  0.002
    2  0.003  0.002  0.005  0.010
    3  0.003  0.002  0.005  0.010
    4  0.003  0.002  0.005  0.010
    5  0.035  0.002  0.000  0.037
    6  0.003  0.002  0.005  0.009
    7  0.003  0.002  0.005  0.010
    8  0.003  0.002  0.005  0.009
    9  0.002  0.002  0.004  0.009
   10  0.002  0.004  0.008  0.014
   11  0.016  0.008  0.004  0.028
   12  0.002  0.004  0.008  0.014
   13  0.016  0.008  0.004  0.028
   14  0.016  0.008  0.004  0.028
   15  0.028  0.002  0.009  0.039
   16  0.002  0.004  0.008  0.014
   17  0.028  0.002  0.009  0.039
   18  0.027  0.002  0.009  0.038
   19  0.009  0.001  0.009  0.020
   20  0.018  0.005  0.006  0.030
   21  0.018  0.005  0.006  0.030
   22  0.011  0.007  0.003  0.022
   23  0.018  0.005  0.006  0.030
   24  0.011  0.007  0.003  0.022
   25  0.009  0.001  0.009  0.020
   26  0.009  0.001  0.009  0.020
   27  0.011  0.007  0.003  0.022
   28  0.000  0.000  0.003  0.004
   29  0.003  0.001  0.004  0.008
   30  0.003  0.001  0.004  0.008
   31  0.003  0.001  0.004  0.008
   32  0.003  0.001  0.004  0.008
   33  0.003  0.001  0.004  0.008
   34  0.003  0.001  0.004  0.008
   35  0.000  0.001  0.002  0.003
   36  0.033  0.002  0.001  0.035
   37  0.003  0.000  0.000  0.003
tot    0.362  0.107  0.182  0.650
 
band    10 # energy   -5.08172300 # occ.  2.00000000
 
ion      s      p      d    tot
    1  0.002  0.001  0.009  0.011
    2  0.004  0.001  0.009  0.014
    3  0.004  0.001  0.009  0.014
    4  0.004  0.001  0.009  0.014
    5  0.000  0.001  0.008  0.010
    6  0.004  0.001  0.009  0.014
    7  0.004  0.001  0.009  0.014
    8  0.004  0.001  0.009  0.014
    9  0.020  0.000  0.006  0.025
   10  0.009  0.000  0.024  0.033
   11  0.009  0.000  0.021  0.030
   12  0.009  0.000  0.024  0.033
   13  0.009  0.000  0.021  0.030
   14  0.009  0.000  0.021  0.030
   15  0.001  0.001  0.021  0.023
   16  0.009  0.000  0.024  0.033
   17  0.001  0.001  0.021  0.023
   18  0.001  0.001  0.021  0.023
   19  0.006  0.000  0.020  0.026
   20  0.011  0.001  0.027  0.038
   21  0.011  0.001  0.027  0.038
   22  0.001  0.000  0.021  0.023
   23  0.011  0.001  0.027  0.038
   24  0.001  0.000  0.021  0.023
   25  0.006  0.000  0.020  0.026
   26  0.006  0.000  0.020  0.026
   27  0.001  0.000  0.021  0.023
   28  0.001  0.001  0.007  0.009
   29  0.004  0.001  0.009  0.013
   30  0.004  0.001  0.009  0.013
   31  0.004  0.001  0.009  0.013
   32  0.004  0.001  0.009  0.013
   33  0.004  0.001  0.009  0.013
   34  0.004  0.001  0.009  0.013
   35  0.018  0.000  0.006  0.024
   36  0.000  0.003  0.006  0.009
   37  0.000  0.000  0.000  0.000
tot    0.201  0.021  0.551  0.773
 
band    11 # energy   -5.06686441 # occ.  2.00000000
 
ion      s      p      d    tot
    1  0.000  0.001  0.010  0.011
    2  0.008  0.002  0.005  0.016
    3  0.021  0.004  0.005  0.030
    4  0.008  0.002  0.005  0.015
    5  0.000  0.006  0.008  0.014
    6  0.003  0.002  0.005  0.010
    7  0.021  0.004  0.005  0.030
    8  0.003  0.002  0.005  0.010
    9  0.000  0.002  0.012  0.014
   10  0.000  0.001  0.015  0.016
   11  0.017  0.004  0.010  0.031
   12  0.006  0.003  0.011  0.020
   13  0.016  0.004  0.011  0.031
   14  0.000  0.001  0.026  0.027
   15  0.003  0.001  0.010  0.014
   16  0.006  0.003  0.011  0.020
   17  0.002  0.001  0.011  0.014
   18  0.000  0.004  0.022  0.025
   19  0.000  0.001  0.011  0.012
   20  0.000  0.002  0.034  0.036
   21  0.013  0.003  0.013  0.029
   22  0.011  0.004  0.011  0.026
   23  0.013  0.003  0.012  0.028
   24  0.000  0.000  0.017  0.017
   25  0.000  0.003  0.018  0.021
   26  0.000  0.001  0.011  0.012
   27  0.011  0.004  0.011  0.026
   28  0.000  0.001  0.013  0.013
   29  0.010  0.003  0.006  0.018
   30  0.020  0.004  0.006  0.030
   31  0.010  0.003  0.006  0.018
   32  0.002  0.002  0.006  0.009
   33  0.020  0.004  0.006  0.030
   34  0.002  0.002  0.006  0.009
   35  0.000  0.003  0.009  0.011
   36  0.000  0.009  0.007  0.016
   37  0.000  0.000  0.000  0.000
tot    0.225  0.096  0.389  0.710
 
band    12 # energy   -5.06679019 # occ.  2.00000000
 
ion      s      p      d    tot
    1  0.000  0.001  0.010  0.011
    2  0.013  0.003  0.005  0.021
    3  0.000  0.002  0.005  0.007
    4  0.013  0.003  0.005  0.022
    5  0.000  0.006  0.008  0.014
    6  0.018  0.003  0.005  0.027
    7  0.000  0.002  0.005  0.007
    8  0.018  0.003  0.005  0.027
    9  0.000  0.002  0.012  0.014
   10  0.007  0.003  0.010  0.020
   11  0.006  0.002  0.021  0.028
   12  0.003  0.002  0.013  0.018
   13  0.006  0.002  0.021  0.029
   14  0.021  0.005  0.005  0.031
   15  0.001  0.003  0.018  0.021
   16  0.002  0.002  0.014  0.017
   17  0.001  0.003  0.017  0.021
   18  0.004  0.000  0.008  0.012
   19  0.000  0.003  0.015  0.018
   20  0.017  0.004  0.005  0.026
   21  0.004  0.002  0.026  0.033
   22  0.005  0.002  0.014  0.021
   23  0.004  0.002  0.027  0.033
   24  0.014  0.005  0.009  0.028
   25  0.000  0.000  0.009  0.010
   26  0.000  0.002  0.015  0.018
   27  0.004  0.001  0.015  0.020
   28  0.000  0.001  0.013  0.013
   29  0.011  0.003  0.006  0.020
   30  0.001  0.002  0.005  0.008
   31  0.011  0.003  0.006  0.020
   32  0.020  0.003  0.006  0.029
   33  0.001  0.002  0.005  0.008
   34  0.019  0.003  0.006  0.029
   35  0.000  0.003  0.009  0.011
   36  0.000  0.009  0.007  0.016
   37  0.000  0.000  0.000  0.000
tot    0.225  0.096  0.390  0.710
 
band    13 # energy   -5.06584111 # occ.  2.00000000
 
ion      s      p      d    tot
    1  0.038  0.003  0.000  0.041
    2  0.001  0.003  0.010  0.013
    3  0.000  0.003  0.010  0.013
    4  0.001  0.003  0.010  0.013
    5  0.000  0.000  0.001  0.001
    6  0.000  0.003  0.010  0.013
    7  0.000  0.003  0.010  0.013
    8  0.000  0.003  0.010  0.013
    9  0.022  0.003  0.002  0.027
   10  0.007  0.004  0.011  0.022
   11  0.002  0.000  0.016  0.018
   12  0.006  0.003  0.012  0.021
   13  0.002  0.000  0.016  0.018
   14  0.004  0.000  0.015  0.019
   15  0.008  0.003  0.018  0.028
   16  0.006  0.003  0.012  0.021
   17  0.008  0.003  0.018  0.028
   18  0.007  0.003  0.016  0.026
   19  0.004  0.004  0.019  0.026
   20  0.000  0.000  0.016  0.016
   21  0.000  0.000  0.017  0.017
   22  0.012  0.003  0.011  0.026
   23  0.000  0.000  0.017  0.017
   24  0.014  0.003  0.010  0.027
   25  0.003  0.004  0.018  0.025
   26  0.004  0.004  0.019  0.026
   27  0.012  0.003  0.011  0.026
   28  0.041  0.003  0.000  0.044
   29  0.001  0.003  0.011  0.014
   30  0.000  0.003  0.011  0.014
   31  0.001  0.003  0.011  0.014
   32  0.000  0.003  0.011  0.014
   33  0.000  0.003  0.011  0.014
   34  0.000  0.003  0.011  0.014
   35  0.020  0.003  0.002  0.025
   36  0.000  0.000  0.000  0.001
   37  0.000  0.000  0.000  0.000
tot    0.224  0.086  0.399  0.710
 
band    14 # energy   -5.06316723 # occ.  2.00000000
 
ion      s      p      d    tot
    1  0.000  0.005  0.010  0.015
    2  0.008  0.003  0.005  0.016
    3  0.021  0.004  0.005  0.030
    4  0.008  0.002  0.005  0.016
    5  0.000  0.000  0.012  0.013
    6  0.003  0.002  0.005  0.010
    7  0.021  0.004  0.005  0.030
    8  0.003  0.002  0.005  0.010
    9  0.000  0.004  0.009  0.012
   10  0.014  0.003  0.005  0.022
   11  0.000  0.002  0.014  0.017
   12  0.004  0.003  0.022  0.028
   13  0.000  0.002  0.014  0.017
   14  0.000  0.000  0.009  0.010
   15  0.005  0.001  0.017  0.023
   16  0.004  0.003  0.022  0.028
   17  0.005  0.001  0.016  0.023
   18  0.019  0.005  0.008  0.032
   19  0.005  0.002  0.020  0.026
   20  0.004  0.002  0.011  0.017
   21  0.001  0.002  0.014  0.017
   22  0.002  0.003  0.020  0.024
   23  0.001  0.002  0.014  0.017
   24  0.007  0.001  0.005  0.013
   25  0.021  0.006  0.006  0.032
   26  0.005  0.002  0.019  0.026
   27  0.002  0.003  0.020  0.024
   28  0.000  0.005  0.008  0.014
   29  0.009  0.003  0.006  0.018
   30  0.020  0.004  0.006  0.030
   31  0.009  0.003  0.006  0.018
   32  0.002  0.002  0.006  0.010
   33  0.020  0.004  0.006  0.030
   34  0.002  0.002  0.006  0.010
   35  0.000  0.003  0.012  0.015
   36  0.000  0.000  0.009  0.009
   37  0.000  0.000  0.000  0.000
tot    0.227  0.094  0.382  0.702
 
band    15 # energy   -5.06307590 # occ.  2.00000000
 
ion      s      p      d    tot
    1  0.000  0.005  0.010  0.015
    2  0.013  0.003  0.005  0.021
    3  0.000  0.002  0.005  0.007
    4  0.013  0.003  0.005  0.021
    5  0.000  0.000  0.012  0.013
    6  0.019  0.004  0.005  0.028
    7  0.000  0.002  0.005  0.007
    8  0.018  0.004  0.005  0.028
    9  0.000  0.004  0.009  0.012
   10  0.000  0.003  0.027  0.030
   11  0.000  0.001  0.011  0.012
   12  0.011  0.003  0.011  0.024
   13  0.000  0.001  0.011  0.012
   14  0.000  0.003  0.016  0.019
   15  0.014  0.004  0.010  0.029
   16  0.011  0.003  0.011  0.024
   17  0.014  0.004  0.011  0.029
   18  0.000  0.000  0.020  0.020
   19  0.016  0.004  0.010  0.030
   20  0.000  0.002  0.015  0.017
   21  0.003  0.002  0.012  0.017
   22  0.005  0.002  0.010  0.017
   23  0.003  0.002  0.012  0.017
   24  0.000  0.003  0.024  0.028
   25  0.000  0.000  0.024  0.024
   26  0.016  0.004  0.010  0.030
   27  0.005  0.002  0.010  0.017
   28  0.000  0.005  0.008  0.014
   29  0.012  0.003  0.006  0.020
   30  0.001  0.002  0.006  0.008
   31  0.012  0.003  0.006  0.020
   32  0.019  0.004  0.006  0.028
   33  0.001  0.002  0.006  0.009
   34  0.019  0.004  0.006  0.028
   35  0.000  0.003  0.012  0.015
   36  0.000  0.000  0.009  0.009
   37  0.000  0.000  0.000  0.000
tot    0.226  0.094  0.382  0.702
 
band    16 # energy   -4.99953412 # occ.  2.00000000
 
ion      s      p      d    tot
    1  0.008  0.001  0.001  0.010
    2  0.000  0.003  0.010  0.014
    3  0.000  0.003  0.010  0.014
    4  0.000  0.003  0.010  0.014
    5  0.046  0.003  0.000  0.049
    6  0.000  0.003  0.010  0.014
    7  0.000  0.003  0.010  0.014
    8  0.000  0.003  0.010  0.014
    9  0.007  0.001  0.002  0.010
   10  0.002  0.001  0.021  0.023
   11  0.005  0.004  0.017  0.026
   12  0.002  0.001  0.021  0.023
   13  0.005  0.004  0.017  0.026
   14  0.005  0.004  0.017  0.026
   15  0.007  0.002  0.010  0.019
   16  0.002  0.001  0.021  0.023
   17  0.007  0.002  0.010  0.019
   18  0.007  0.002  0.010  0.019
   19  0.009  0.001  0.016  0.027
   20  0.008  0.004  0.015  0.027
   21  0.008  0.004  0.015  0.027
   22  0.003  0.001  0.017  0.021
   23  0.008  0.004  0.015  0.027
   24  0.003  0.001  0.017  0.021
   25  0.009  0.001  0.016  0.027
   26  0.009  0.001  0.016  0.027
   27  0.003  0.001  0.017  0.021
   28  0.003  0.002  0.004  0.009
   29  0.001  0.002  0.009  0.012
   30  0.001  0.002  0.009  0.012
   31  0.001  0.002  0.009  0.012
   32  0.001  0.002  0.009  0.012
   33  0.001  0.002  0.009  0.012
   34  0.001  0.002  0.009  0.012
   35  0.005  0.002  0.001  0.008
   36  0.056  0.002  0.002  0.060
   37  0.007  0.000  0.000  0.007
tot    0.238  0.083  0.416  0.736
 
band    17 # energy   -4.38795152 # occ.  2.00000000
 
ion      s      p      d    tot
    1  0.000  0.000  0.036  0.036
    2  0.003  0.001  0.009  0.013
    3  0.005  0.001  0.010  0.016
    4  0.003  0.001  0.009  0.013
    5  0.000  0.001  0.009  0.011
    6  0.016  0.001  0.010  0.027
    7  0.005  0.001  0.010  0.015
    8  0.016  0.001  0.010  0.027
    9  0.000  0.003  0.009  0.012
   10  0.000  0.000  0.008  0.008
   11  0.000  0.002  0.011  0.013
   12  0.000  0.000  0.045  0.045
   13  0.000  0.001  0.011  0.012
   14  0.001  0.006  0.021  0.027
   15  0.000  0.001  0.030  0.032
   16  0.000  0.000  0.043  0.043
   17  0.000  0.001  0.031  0.032
   18  0.001  0.005  0.009  0.015
   19  0.000  0.001  0.013  0.015
   20  0.000  0.000  0.008  0.008
   21  0.000  0.000  0.057  0.057
   22  0.000  0.001  0.024  0.026
   23  0.000  0.000  0.054  0.054
   24  0.001  0.005  0.013  0.020
   25  0.001  0.005  0.019  0.024
   26  0.000  0.001  0.013  0.015
   27  0.000  0.001  0.024  0.025
   28  0.000  0.001  0.012  0.014
   29  0.002  0.001  0.010  0.013
   30  0.015  0.001  0.010  0.026
   31  0.002  0.001  0.010  0.013
   32  0.006  0.001  0.012  0.019
   33  0.014  0.001  0.010  0.026
   34  0.006  0.001  0.012  0.018
   35  0.000  0.002  0.006  0.009
   36  0.000  0.001  0.020  0.021
   37  0.000  0.000  0.000  0.000
tot    0.098  0.052  0.650  0.801
 
band    18 # energy   -4.38793559 # occ.  2.00000000
 
ion      s      p      d    tot
    1  0.000  0.000  0.036  0.036
    2  0.012  0.001  0.010  0.024
    3  0.011  0.001  0.009  0.021
    4  0.013  0.001  0.010  0.024
    5  0.000  0.001  0.009  0.010
    6  0.000  0.001  0.009  0.010
    7  0.011  0.001  0.009  0.022
    8  0.000  0.001  0.010  0.010
    9  0.000  0.003  0.010  0.012
   10  0.000  0.000  0.056  0.056
   11  0.000  0.004  0.017  0.022
   12  0.000  0.000  0.019  0.019
   13  0.000  0.005  0.018  0.023
   14  0.000  0.000  0.008  0.008
   15  0.001  0.003  0.017  0.021
   16  0.000  0.000  0.020  0.021
   17  0.001  0.004  0.016  0.020
   18  0.000  0.000  0.038  0.038
   19  0.000  0.004  0.017  0.021
   20  0.000  0.000  0.071  0.071
   21  0.000  0.000  0.023  0.023
   22  0.001  0.004  0.016  0.022
   23  0.000  0.000  0.025  0.025
   24  0.000  0.000  0.027  0.027
   25  0.000  0.000  0.012  0.012
   26  0.001  0.004  0.017  0.021
   27  0.001  0.004  0.017  0.022
   28  0.000  0.001  0.013  0.014
   29  0.013  0.001  0.011  0.026
   30  0.000  0.001  0.011  0.012
   31  0.013  0.001  0.011  0.025
   32  0.009  0.001  0.010  0.019
   33  0.000  0.001  0.012  0.013
   34  0.009  0.001  0.010  0.020
   35  0.000  0.002  0.006  0.009
   36  0.000  0.001  0.020  0.021
   37  0.000  0.000  0.000  0.000
tot    0.098  0.052  0.650  0.801
 
band    19 # energy   -4.37741855 # occ.  2.00000000
 
ion      s      p      d    tot
    1  0.009  0.000  0.001  0.010
    2  0.000  0.001  0.017  0.019
    3  0.000  0.001  0.017  0.019
    4  0.000  0.001  0.017  0.019
    5  0.006  0.000  0.000  0.006
    6  0.000  0.001  0.017  0.019
    7  0.000  0.001  0.017  0.019
    8  0.000  0.001  0.017  0.019
    9  0.029  0.001  0.001  0.031
   10  0.001  0.002  0.018  0.021
   11  0.000  0.000  0.009  0.009
   12  0.001  0.002  0.018  0.021
   13  0.000  0.000  0.009  0.009
   14  0.000  0.000  0.009  0.010
   15  0.000  0.003  0.037  0.041
   16  0.001  0.002  0.018  0.021
   17  0.000  0.003  0.037  0.041
   18  0.000  0.003  0.038  0.041
   19  0.000  0.002  0.036  0.039
   20  0.000  0.000  0.011  0.011
   21  0.000  0.000  0.011  0.011
   22  0.001  0.003  0.026  0.029
   23  0.000  0.000  0.011  0.011
   24  0.001  0.003  0.026  0.029
   25  0.000  0.002  0.036  0.039
   26  0.000  0.002  0.036  0.039
   27  0.001  0.003  0.025  0.029
   28  0.028  0.001  0.001  0.030
   29  0.000  0.001  0.021  0.023
   30  0.000  0.001  0.021  0.023
   31  0.000  0.001  0.021  0.023
   32  0.000  0.001  0.021  0.023
   33  0.000  0.001  0.021  0.023
   34  0.000  0.001  0.021  0.023
   35  0.016  0.000  0.003  0.019
   36  0.003  0.000  0.002  0.005
   37  0.002  0.000  0.000  0.002
tot    0.099  0.050  0.652  0.801
 
band    20 # energy   -4.37593433 # occ.  2.00000000
 
ion      s      p      d    tot
    1  0.000  0.003  0.000  0.003
    2  0.003  0.001  0.009  0.012
    3  0.005  0.001  0.010  0.016
    4  0.003  0.001  0.009  0.012
    5  0.000  0.002  0.026  0.028
    6  0.015  0.001  0.010  0.026
    7  0.005  0.001  0.010  0.016
    8  0.015  0.001  0.010  0.026
    9  0.000  0.000  0.027  0.027
   10  0.000  0.000  0.011  0.011
   11  0.000  0.001  0.017  0.018
   12  0.001  0.005  0.017  0.024
   13  0.000  0.001  0.017  0.018
   14  0.000  0.000  0.057  0.057
   15  0.000  0.002  0.018  0.020
   16  0.001  0.005  0.017  0.024
   17  0.000  0.002  0.018  0.020
   18  0.000  0.000  0.028  0.029
   19  0.001  0.002  0.017  0.019
   20  0.000  0.000  0.010  0.010
   21  0.001  0.005  0.021  0.028
   22  0.000  0.001  0.018  0.019
   23  0.001  0.005  0.021  0.028
   24  0.000  0.000  0.034  0.034
   25  0.000  0.000  0.057  0.057
   26  0.001  0.002  0.017  0.020
   27  0.000  0.001  0.018  0.019
   28  0.000  0.002  0.024  0.026
   29  0.001  0.001  0.010  0.012
   30  0.015  0.001  0.012  0.028
   31  0.001  0.001  0.010  0.012
   32  0.007  0.001  0.011  0.019
   33  0.015  0.001  0.012  0.028
   34  0.007  0.001  0.011  0.019
   35  0.000  0.000  0.032  0.032
   36  0.000  0.003  0.000  0.003
   37  0.000  0.000  0.000  0.000
tot    0.099  0.054  0.648  0.801
 
band    21 # energy   -4.37592049 # occ.  2.00000000
 
ion      s      p      d    tot
    1  0.000  0.003  0.000  0.003
    2  0.013  0.001  0.010  0.024
    3  0.010  0.001  0.009  0.020
    4  0.013  0.001  0.010  0.024
    5  0.000  0.002  0.026  0.028
    6  0.000  0.001  0.009  0.010
    7  0.010  0.001  0.009  0.020
    8  0.000  0.001  0.009  0.010
    9  0.000  0.000  0.027  0.027
   10  0.001  0.007  0.019  0.028
   11  0.000  0.000  0.044  0.044
   12  0.000  0.002  0.013  0.015
   13  0.000  0.000  0.044  0.044
   14  0.001  0.001  0.003  0.005
   15  0.000  0.001  0.025  0.026
   16  0.000  0.002  0.013  0.015
   17  0.000  0.001  0.025  0.026
   18  0.000  0.002  0.014  0.016
   19  0.000  0.001  0.044  0.045
   20  0.001  0.007  0.025  0.033
   21  0.000  0.002  0.014  0.016
   22  0.000  0.000  0.029  0.029
   23  0.000  0.002  0.014  0.016
   24  0.000  0.002  0.012  0.014
   25  0.001  0.002  0.004  0.007
   26  0.000  0.001  0.044  0.045
   27  0.000  0.000  0.029  0.029
   28  0.000  0.002  0.025  0.027
   29  0.014  0.001  0.012  0.027
   30  0.001  0.001  0.010  0.012
   31  0.014  0.001  0.012  0.027
   32  0.009  0.001  0.011  0.020
   33  0.001  0.001  0.010  0.012
   34  0.009  0.001  0.011  0.020
   35  0.000  0.000  0.032  0.032
   36  0.000  0.003  0.000  0.003