PROCAR new format
# of k-points:   10         # of bands:  252         # of ions:   37

 k-point     1 :    0.00000000 0.00000000 0.00000000     weight = 0.01562500

band     1 # energy  -13.51474265 # occ.  2.00000000
 
ion      s      p      d    tot
    1  0.000  0.000  0.000  0.000
    2  0.000  0.000  0.000  0.000
    3  0.000  0.000  0.000  0.000
    4  0.000  0.000  0.000  0.000
    5  0.000  0.000  0.000  0.000
    6  0.000  0.000  0.000  0.000
    7  0.000  0.000  0.000  0.000
    8  0.000  0.000  0.000  0.000
    9  0.000  0.000  0.000  0.000
   10  0.000  0.000  0.000  0.000
   11  0.000  0.000  0.000  0.000
   12  0.000  0.000  0.000  0.000
   13  0.000  0.000  0.000  0.000
   14  0.000  0.000  0.000  0.000
   15  0.000  0.000  0.000  0.000
   16  0.000  0.000  0.000  0.000
   17  0.000  0.000  0.000  0.000
   18  0.000  0.000  0.000  0.000
   19  0.000  0.000  0.000  0.000
   20  0.000  0.000  0.000  0.000
   21  0.000  0.000  0.000  0.000
   22  0.000  0.000  0.000  0.000
   23  0.000  0.000  0.000  0.000
   24  0.000  0.000  0.000  0.000
   25  0.000  0.000  0.000  0.000
   26  0.000  0.000  0.000  0.000
   27  0.000  0.000  0.000  0.000
   28  0.000  0.000  0.000  0.000
   29  0.000  0.000  0.000  0.000
   30  0.000  0.000  0.000  0.000
   31  0.000  0.000  0.000  0.000
   32  0.000  0.000  0.000  0.000
   33  0.000  0.000  0.000  0.000
   34  0.000  0.000  0.000  0.000
   35  0.000  0.000  0.000  0.000
   36  0.087  0.093  0.228  0.409
   37  0.626  0.023  0.000  0.649
tot    0.715  0.117  0.229  1.060
 
band     2 # energy   -6.25592773 # occ.  2.00000000
 
ion      s      p      d    tot
    1  0.006  0.001  0.000  0.007
    2  0.006  0.001  0.000  0.006
    3  0.006  0.001  0.000  0.006
    4  0.006  0.001  0.000  0.006
    5  0.006  0.001  0.000  0.006
    6  0.006  0.001  0.000  0.006
    7  0.006  0.001  0.000  0.006
    8  0.006  0.001  0.000  0.006
    9  0.006  0.001  0.000  0.006
   10  0.023  0.000  0.000  0.024
   11  0.024  0.000  0.000  0.024
   12  0.023  0.000  0.000  0.024
   13  0.024  0.000  0.000  0.024
   14  0.024  0.000  0.000  0.024
   15  0.023  0.000  0.000  0.023
   16  0.023  0.000  0.000  0.024
   17  0.023  0.000  0.000  0.023
   18  0.023  0.000  0.000  0.023
   19  0.023  0.000  0.000  0.023
   20  0.026  0.000  0.000  0.026
   21  0.026  0.000  0.000  0.026
   22  0.023  0.000  0.000  0.023
   23  0.026  0.000  0.000  0.026
   24  0.023  0.000  0.000  0.023
   25  0.023  0.000  0.000  0.023
   26  0.023  0.000  0.000  0.023
   27  0.023  0.000  0.000  0.023
   28  0.005  0.001  0.000  0.006
   29  0.005  0.001  0.000  0.006
   30  0.005  0.001  0.000  0.006
   31  0.005  0.001  0.000  0.006
   32  0.005  0.001  0.000  0.006
   33  0.005  0.001  0.000  0.006
   34  0.005  0.001  0.000  0.006
   35  0.005  0.001  0.000  0.006
   36  0.007  0.002  0.000  0.009
   37  0.001  0.000  0.000  0.001
tot    0.525  0.015  0.007  0.547
 
band     3 # energy   -5.38608626 # occ.  2.00000000
 
ion      s      p      d    tot
    1  0.007  0.000  0.000  0.008
    2  0.007  0.000  0.000  0.008
    3  0.007  0.000  0.000  0.008
    4  0.007  0.000  0.000  0.008
    5  0.007  0.000  0.000  0.008
    6  0.007  0.000  0.000  0.008
    7  0.007  0.000  0.000  0.008
    8  0.007  0.000  0.000  0.008
    9  0.008  0.000  0.000  0.008
   10  0.011  0.001  0.017  0.029
   11  0.011  0.001  0.016  0.028
   12  0.011  0.001  0.017  0.029
   13  0.011  0.001  0.016  0.028
   14  0.011  0.001  0.016  0.028
   15  0.011  0.001  0.014  0.026
   16  0.011  0.001  0.017  0.029
   17  0.011  0.001  0.014  0.026
   18  0.011  0.001  0.014  0.026
   19  0.012  0.001  0.018  0.031
   20  0.014  0.001  0.025  0.040
   21  0.014  0.001  0.025  0.040
   22  0.011  0.001  0.017  0.029
   23  0.014  0.001  0.025  0.040
   24  0.011  0.001  0.017  0.029
   25  0.012  0.001  0.018  0.031
   26  0.012  0.001  0.018  0.031
   27  0.011  0.001  0.017  0.029
   28  0.006  0.000  0.000  0.006
   29  0.005  0.000  0.000  0.005
   30  0.005  0.000  0.000  0.005
   31  0.005  0.000  0.000  0.005
   32  0.005  0.000  0.000  0.005
   33  0.005  0.000  0.000  0.005
   34  0.005  0.000  0.000  0.005
   35  0.005  0.000  0.000  0.005
   36  0.006  0.002  0.000  0.009
   37  0.001  0.001  0.000  0.002
tot    0.323  0.026  0.323  0.671
 
band     4 # energy   -5.13448405 # occ.  2.00000000
 
ion      s      p      d    tot
    1  0.012  0.000  0.006  0.019
    2  0.006  0.000  0.009  0.015
    3  0.006  0.000  0.009  0.015
    4  0.006  0.000  0.009  0.015
    5  0.004  0.000  0.007  0.011
    6  0.006  0.000  0.009  0.015
    7  0.006  0.000  0.009  0.015
    8  0.006  0.000  0.009  0.015
    9  0.005  0.000  0.007  0.012
   10  0.001  0.000  0.019  0.020
   11  0.000  0.000  0.003  0.004
   12  0.001  0.000  0.019  0.020
   13  0.000  0.000  0.003  0.004
   14  0.000  0.000  0.003  0.004
   15  0.001  0.001  0.002  0.003
   16  0.001  0.000  0.019  0.020
   17  0.001  0.001  0.002  0.003
   18  0.001  0.001  0.002  0.003
   19  0.000  0.001  0.021  0.022
   20  0.002  0.001  0.068  0.071
   21  0.002  0.001  0.068  0.071
   22  0.004  0.000  0.004  0.009
   23  0.002  0.001  0.068  0.071
   24  0.004  0.000  0.004  0.009
   25  0.000  0.001  0.021  0.022
   26  0.000  0.001  0.021  0.022
   27  0.004  0.000  0.004  0.009
   28  0.009  0.000  0.005  0.014
   29  0.011  0.000  0.010  0.021
   30  0.011  0.000  0.010  0.021
   31  0.011  0.000  0.010  0.021
   32  0.011  0.000  0.010  0.021
   33  0.011  0.000  0.010  0.021
   34  0.011  0.000  0.010  0.021
   35  0.016  0.000  0.005  0.022
   36  0.001  0.001  0.074  0.077
   37  0.003  0.017  0.000  0.020
tot    0.177  0.028  0.573  0.778
 
band     5 # energy   -5.06457477 # occ.  2.00000000
 
ion      s      p      d    tot
    1  0.002  0.000  0.022  0.024
    2  0.009  0.000  0.016  0.025
    3  0.009  0.000  0.016  0.025
    4  0.009  0.000  0.016  0.025
    5  0.014  0.000  0.013  0.027
    6  0.009  0.000  0.016  0.025
    7  0.009  0.000  0.016  0.025
    8  0.009  0.000  0.016  0.025
    9  0.012  0.000  0.013  0.025
   10  0.004  0.001  0.010  0.015
   11  0.001  0.001  0.029  0.030
   12  0.004  0.001  0.010  0.015
   13  0.001  0.001  0.029  0.030
   14  0.001  0.001  0.029  0.030
   15  0.000  0.000  0.021  0.022
   16  0.004  0.001  0.010  0.015
   17  0.000  0.000  0.021  0.022
   18  0.000  0.000  0.021  0.022
   19  0.000  0.000  0.020  0.020
   20  0.005  0.000  0.065  0.070
   21  0.005  0.000  0.065  0.070
   22  0.006  0.000  0.009  0.015
   23  0.005  0.000  0.065  0.070
   24  0.006  0.000  0.009  0.015
   25  0.000  0.000  0.020  0.020
   26  0.000  0.000  0.020  0.020
   27  0.006  0.000  0.009  0.015
   28  0.001  0.000  0.004  0.004
   29  0.000  0.000  0.002  0.003
   30  0.000  0.000  0.002  0.003
   31  0.000  0.000  0.002  0.003
   32  0.000  0.000  0.002  0.003
   33  0.000  0.000  0.002  0.003
   34  0.000  0.000  0.002  0.003
   35  0.000  0.000  0.005  0.005
   36  0.008  0.004  0.011  0.023
   37  0.003  0.007  0.000  0.010
tot    0.146  0.019  0.641  0.806
 
band     6 # energy   -5.01696769 # occ.  2.00000000
 
ion      s      p      d    tot
    1  0.000  0.000  0.008  0.008
    2  0.001  0.000  0.002  0.003
    3  0.000  0.000  0.002  0.003
    4  0.000  0.000  0.002  0.002
    5  0.000  0.000  0.004  0.004
    6  0.001  0.000  0.002  0.003
    7  0.000  0.000  0.002  0.002
    8  0.001  0.000  0.002  0.004
    9  0.000  0.000  0.001  0.001
   10  0.012  0.001  0.013  0.026
   11  0.001  0.001  0.022  0.024
   12  0.001  0.001  0.020  0.022
   13  0.000  0.001  0.023  0.024
   14  0.003  0.000  0.020  0.023
   15  0.001  0.000  0.012  0.014
   16  0.005  0.001  0.018  0.024
   17  0.000  0.000  0.014  0.015
   18  0.002  0.000  0.009  0.012
   19  0.007  0.001  0.024  0.032
   20  0.033  0.000  0.011  0.044
   21  0.004  0.000  0.127  0.131
   22  0.000  0.001  0.050  0.051
   23  0.014  0.000  0.084  0.099
   24  0.001  0.000  0.025  0.027
   25  0.017  0.000  0.035  0.053
   26  0.002  0.001  0.017  0.020
   27  0.000  0.001  0.041  0.042
   28  0.000  0.000  0.004  0.004
   29  0.001  0.001  0.007  0.008
   30  0.001  0.000  0.007  0.008
   31  0.001  0.001  0.006  0.008
   32  0.000  0.000  0.007  0.007
   33  0.001  0.001  0.007  0.008
   34  0.000  0.000  0.007  0.007
   35  0.000  0.000  0.001  0.001
   36  0.000  0.000  0.038  0.038
   37  0.000  0.008  0.000  0.008
tot    0.112  0.024  0.675  0.810
 
band     7 # energy   -5.01696698 # occ.  2.00000000
 
ion      s      p      d    tot
    1  0.000  0.000  0.008  0.008
    2  0.001  0.000  0.002  0.003
    3  0.001  0.000  0.002  0.003
    4  0.001  0.000  0.002  0.003
    5  0.000  0.000  0.004  0.004
    6  0.000  0.000  0.002  0.002
    7  0.001  0.000  0.002  0.003
    8  0.000  0.000  0.002  0.002
    9  0.000  0.000  0.001  0.001
   10  0.000  0.000  0.021  0.022
   11  0.002  0.001  0.021  0.024
   12  0.011  0.001  0.014  0.026
   13  0.003  0.000  0.020  0.023
   14  0.000  0.001  0.023  0.024
   15  0.001  0.000  0.011  0.013
   16  0.007  0.001  0.016  0.024
   17  0.002  0.000  0.009  0.012
   18  0.000  0.000  0.015  0.015
   19  0.010  0.001  0.027  0.038
   20  0.001  0.000  0.137  0.139
   21  0.030  0.000  0.022  0.052
   22  0.001  0.000  0.027  0.029
   23  0.019  0.000  0.064  0.083
   24  0.000  0.001  0.052  0.053
   25  0.001  0.001  0.015  0.017
   26  0.016  0.000  0.034  0.050
   27  0.001  0.001  0.036  0.038
   28  0.000  0.000  0.004  0.004
   29  0.000  0.000  0.007  0.007
   30  0.001  0.000  0.007  0.008
   31  0.000  0.000  0.007  0.007
   32  0.001  0.001  0.006  0.008
   33  0.000  0.000  0.007  0.007
   34  0.001  0.001  0.006  0.008
   35  0.000  0.000  0.001  0.001
   36  0.000  0.000  0.038  0.038
   37  0.000  0.008  0.000  0.008
tot    0.112  0.023  0.675  0.810
 
band     8 # energy   -4.97621166 # occ.  2.00000000
 
ion      s      p      d    tot
    1  0.000  0.000  0.001  0.001
    2  0.000  0.000  0.003  0.003
    3  0.001  0.000  0.006  0.008
    4  0.000  0.000  0.003  0.003
    5  0.000  0.000  0.008  0.008
    6  0.001  0.000  0.004  0.005
    7  0.001  0.000  0.006  0.007
    8  0.001  0.000  0.004  0.005
    9  0.000  0.000  0.004  0.004
   10  0.001  0.000  0.024  0.026
   11  0.007  0.000  0.072  0.079
   12  0.000  0.001  0.055  0.056
   13  0.006  0.000  0.076  0.082
   14  0.026  0.001  0.008  0.035
   15  0.004  0.001  0.017  0.022
   16  0.000  0.001  0.053  0.054
   17  0.003  0.001  0.016  0.020
   18  0.015  0.000  0.035  0.050
   19  0.001  0.000  0.040  0.041
   20  0.005  0.000  0.039  0.044
   21  0.001  0.001  0.028  0.030
   22  0.004  0.001  0.030  0.034
   23  0.001  0.001  0.029  0.031
   24  0.018  0.001  0.013  0.033
   25  0.005  0.000  0.011  0.016
   26  0.001  0.000  0.042  0.043
   27  0.005  0.001  0.029  0.034
   28  0.000  0.000  0.002  0.002
   29  0.001  0.000  0.003  0.005
   30  0.000  0.000  0.002  0.002
   31  0.001  0.000  0.003  0.005
   32  0.001  0.000  0.003  0.004
   33  0.000  0.000  0.002  0.002
   34  0.001  0.000  0.003  0.004
   35  0.000  0.000  0.007  0.007
   36  0.000  0.000  0.002  0.002
   37  0.000  0.000  0.000  0.000
tot    0.114  0.016  0.679  0.809
 
band     9 # energy   -4.97620886 # occ.  2.00000000
 
ion      s      p      d    tot
    1  0.000  0.000  0.001  0.001
    2  0.001  0.001  0.006  0.007
    3  0.000  0.000  0.002  0.002
    4  0.001  0.001  0.005  0.007
    5  0.000  0.000  0.008  0.008
    6  0.001  0.000  0.004  0.005
    7  0.000  0.000  0.002  0.003
    8  0.001  0.000  0.004  0.005
    9  0.000  0.000  0.004  0.004
   10  0.000  0.001  0.065  0.065
   11  0.019  0.001  0.032  0.052
   12  0.001  0.000  0.033  0.035
   13  0.020  0.001  0.027  0.048
   14  0.000  0.000  0.096  0.096
   15  0.011  0.001  0.028  0.039
   16  0.001  0.000  0.035  0.037
   17  0.012  0.001  0.029  0.041
   18  0.000  0.002  0.010  0.012
   19  0.004  0.000  0.022  0.026
   20  0.000  0.001  0.025  0.026
   21  0.004  0.001  0.035  0.040
   22  0.014  0.001  0.018  0.033
   23  0.004  0.001  0.035  0.039
   24  0.000  0.001  0.034  0.035
   25  0.000  0.000  0.051  0.051
   26  0.004  0.000  0.020  0.024
   27  0.013  0.001  0.019  0.033
   28  0.000  0.000  0.002  0.002
   29  0.000  0.000  0.002  0.002
   30  0.001  0.000  0.003  0.005
   31  0.000  0.000  0.002  0.003
   32  0.001  0.000  0.003  0.004
   33  0.001  0.000  0.003  0.005
   34  0.001  0.000  0.003  0.003
   35  0.000  0.000  0.007  0.007
   36  0.000  0.000  0.002  0.002
   37  0.000  0.000  0.000  0.000
tot    0.114  0.016  0.679  0.809
 
band    10 # energy   -4.97367963 # occ.  2.00000000
 
ion      s      p      d    tot
    1  0.001  0.000  0.001  0.002
    2  0.000  0.000  0.005  0.005
    3  0.000  0.000  0.005  0.005
    4  0.000  0.000  0.005  0.005
    5  0.003  0.001  0.006  0.010
    6  0.000  0.000  0.005  0.005
    7  0.000  0.000  0.005  0.005
    8  0.000  0.000  0.005  0.005
    9  0.001  0.000  0.002  0.003
   10  0.009  0.001  0.004  0.013
   11  0.013  0.001  0.051  0.064
   12  0.008  0.001  0.004  0.013
   13  0.013  0.001  0.051  0.064
   14  0.013  0.001  0.050  0.064
   15  0.000  0.000  0.046  0.046
   16  0.008  0.001  0.004  0.013
   17  0.000  0.000  0.046  0.046
   18  0.000  0.000  0.045  0.046
   19  0.011  0.001  0.031  0.042
   20  0.005  0.001  0.019  0.026
   21  0.005  0.001  0.019  0.026
   22  0.001  0.000  0.049  0.049
   23  0.005  0.001  0.019  0.026
   24  0.001  0.000  0.048  0.049
   25  0.011  0.001  0.031  0.042
   26  0.011  0.001  0.031  0.042
   27  0.001  0.000  0.049  0.049
   28  0.003  0.001  0.004  0.008
   29  0.000  0.000  0.003  0.003
   30  0.000  0.000  0.003  0.003
   31  0.000  0.000  0.003  0.003
   32  0.000  0.000  0.003  0.003
   33  0.000  0.000  0.003  0.003
   34  0.000  0.000  0.003  0.003
   35  0.001  0.000  0.005  0.006
   36  0.000  0.000  0.000  0.000
   37  0.000  0.000  0.000  0.000
tot    0.124  0.017  0.662  0.803
 
band    11 # energy   -4.95607445 # occ.  2.00000000
 
ion      s      p      d    tot
    1  0.003  0.001  0.008  0.012
    2  0.000  0.000  0.008  0.008
    3  0.000  0.000  0.008  0.008
    4  0.000  0.000  0.008  0.008
    5  0.003  0.000  0.007  0.010
    6  0.000  0.000  0.008  0.008
    7  0.000  0.000  0.008  0.008
    8  0.000  0.000  0.008  0.008
    9  0.004  0.001  0.005  0.011
   10  0.003  0.000  0.074  0.077
   11  0.001  0.000  0.052  0.053
   12  0.003  0.000  0.074  0.077
   13  0.001  0.000  0.052  0.053
   14  0.001  0.000  0.052  0.053
   15  0.013  0.000  0.008  0.021
   16  0.003  0.000  0.074  0.077
   17  0.013  0.000  0.008  0.021
   18  0.013  0.000  0.008  0.021
   19  0.003  0.000  0.012  0.015
   20  0.003  0.000  0.031  0.034
   21  0.003  0.000  0.031  0.034
   22  0.000  0.000  0.022  0.023
   23  0.003  0.000  0.031  0.034
   24  0.000  0.000  0.022  0.023
   25  0.003  0.000  0.012  0.015
   26  0.003  0.000  0.012  0.015
   27  0.000  0.000  0.022  0.023
   28  0.004  0.001  0.001  0.006
   29  0.000  0.000  0.009  0.010
   30  0.000  0.000  0.009  0.010
   31  0.000  0.000  0.009  0.010
   32  0.000  0.000  0.009  0.010
   33  0.000  0.000  0.009  0.010
   34  0.000  0.000  0.009  0.010
   35  0.000  0.000  0.002  0.002
   36  0.008  0.001  0.004  0.013
   37  0.000  0.000  0.000  0.000
tot    0.094  0.011  0.727  0.832
 
band    12 # energy   -4.94808198 # occ.  2.00000000
 
ion      s      p      d    tot
    1  0.001  0.000  0.003  0.003
    2  0.002  0.000  0.010  0.012
    3  0.002  0.000  0.010  0.012
    4  0.002  0.000  0.010  0.012
    5  0.002  0.000  0.001  0.004
    6  0.002  0.000  0.010  0.012
    7  0.002  0.000  0.010  0.012
    8  0.002  0.000  0.010  0.012
    9  0.004  0.000  0.020  0.024
   10  0.001  0.000  0.028  0.029
   11  0.001  0.001  0.008  0.009
   12  0.001  0.000  0.028  0.029
   13  0.001  0.001  0.008  0.009
   14  0.001  0.001  0.008  0.009
   15  0.005  0.000  0.053  0.059
   16  0.001  0.000  0.028  0.029
   17  0.005  0.000  0.053  0.059
   18  0.005  0.000  0.053  0.059
   19  0.001  0.001  0.005  0.007
   20  0.000  0.000  0.039  0.039
   21  0.000  0.000  0.038  0.039
   22  0.004  0.000  0.050  0.054
   23  0.000  0.000  0.038  0.039
   24  0.004  0.000  0.050  0.054
   25  0.001  0.001  0.005  0.007
   26  0.001  0.001  0.005  0.007
   27  0.004  0.000  0.050  0.054
   28  0.005  0.000  0.001  0.006
   29  0.004  0.000  0.010  0.014
   30  0.004  0.000  0.010  0.014
   31  0.004  0.000  0.010  0.014
   32  0.004  0.000  0.010  0.014
   33  0.004  0.000  0.010  0.014
   34  0.004  0.000  0.010  0.014
   35  0.004  0.000  0.022  0.026
   36  0.000  0.000  0.011  0.011
   37  0.000  0.003  0.000  0.003
tot    0.087  0.011  0.725  0.823
 
band    13 # energy   -4.93461718 # occ.  2.00000000
 
ion      s      p      d    tot
    1  0.000  0.001  0.013  0.014
    2  0.001  0.000  0.006  0.008
    3  0.000  0.001  0.011  0.012
    4  0.001  0.000  0.006  0.008
    5  0.000  0.000  0.007  0.007
    6  0.003  0.001  0.006  0.011
    7  0.000  0.001  0.011  0.012
    8  0.003  0.001  0.006  0.011
    9  0.000  0.000  0.008  0.008
   10  0.000  0.001  0.073  0.074
   11  0.000  0.000  0.039  0.039
   12  0.017  0.000  0.037  0.054
   13  0.000  0.000  0.039  0.040
   14  0.000  0.001  0.014  0.014
   15  0.012  0.000  0.036  0.048
   16  0.016  0.000  0.038  0.054
   17  0.012  0.000  0.033  0.046
   18  0.000  0.000  0.123  0.123
   19  0.000  0.000  0.023  0.024
   20  0.000  0.000  0.026  0.026
   21  0.001  0.000  0.014  0.015
   22  0.003  0.000  0.020  0.023
   23  0.001  0.000  0.014  0.016
   24  0.000  0.000  0.017  0.017
   25  0.000  0.000  0.029  0.029
   26  0.000  0.000  0.023  0.024
   27  0.003  0.000  0.020  0.023
   28  0.000  0.000  0.011  0.011
   29  0.001  0.000  0.004  0.005
   30  0.003  0.000  0.004  0.007
   31  0.002  0.000  0.004  0.005
   32  0.000  0.000  0.004  0.004
   33  0.003  0.000  0.004  0.007
   34  0.000  0.000  0.004  0.004
   35  0.000  0.000  0.004  0.004
   36  0.000  0.000  0.003  0.003
   37  0.000  0.000  0.000  0.000
tot    0.084  0.011  0.733  0.828
 
band    14 # energy   -4.93459596 # occ.  2.00000000
 
ion      s      p      d    tot
    1  0.000  0.001  0.013  0.014
    2  0.002  0.001  0.010  0.013
    3  0.003  0.001  0.005  0.008
    4  0.002  0.001  0.009  0.012
    5  0.000  0.000  0.007  0.007
    6  0.000  0.000  0.009  0.009
    7  0.003  0.001  0.005  0.008
    8  0.000  0.000  0.009  0.010
    9  0.000  0.000  0.008  0.008
   10  0.022  0.000  0.025  0.047
   11  0.000  0.001  0.022  0.023
   12  0.005  0.000  0.062  0.067
   13  0.000  0.001  0.022  0.022
   14  0.001  0.000  0.048  0.048
   15  0.004  0.000  0.092  0.096
   16  0.006  0.000  0.061  0.067
   17  0.004  0.000  0.095  0.099
   18  0.016  0.000  0.005  0.021
   19  0.000  0.000  0.027  0.027
   20  0.001  0.001  0.010  0.012
   21  0.000  0.000  0.023  0.023
   22  0.001  0.000  0.018  0.019
   23  0.000  0.000  0.022  0.023
   24  0.004  0.000  0.021  0.025
   25  0.001  0.000  0.021  0.022
   26  0.000  0.000  0.027  0.027
   27  0.001  0.000  0.018  0.019
   28  0.000  0.000  0.011  0.011
   29  0.001  0.000  0.004  0.006
   30  0.000  0.000  0.004  0.004
   31  0.001  0.000  0.004  0.006
   32  0.003  0.000  0.004  0.007
   33  0.000  0.000  0.004  0.004
   34  0.003  0.000  0.004  0.007
   35  0.000  0.000  0.004  0.004
   36  0.000  0.000  0.003  0.003
   37  0.000  0.000  0.000  0.000
tot    0.084  0.011  0.733  0.828
 
band    15 # energy   -4.92360214 # occ.  2.00000000
 
ion      s      p      d    tot
    1  0.000  0.000  0.006  0.006
    2  0.002  0.000  0.007  0.009
    3  0.000  0.000  0.009  0.009
    4  0.002  0.000  0.006  0.009
    5  0.000  0.000  0.007  0.007
    6  0.002  0.000  0.005  0.008
    7  0.000  0.000  0.009  0.009
    8  0.002  0.000  0.006  0.008
    9  0.000  0.000  0.018  0.018
   10  0.001  0.000  0.030  0.031
   11  0.001  0.000  0.049  0.051
   12  0.000  0.000  0.021  0.021
   13  0.002  0.000  0.047  0.049
   14  0.006  0.000  0.007  0.013
   15  0.000  0.000  0.033  0.034
   16  0.000  0.000  0.020  0.021
   17  0.000  0.000  0.033  0.034
   18  0.001  0.000  0.036  0.038
   19  0.002  0.000  0.071  0.073
   20  0.000  0.000  0.051  0.051
   21  0.000  0.000  0.024  0.024
   22  0.003  0.000  0.055  0.058
   23  0.000  0.000  0.022  0.023
   24  0.011  0.000  0.028  0.039
   25  0.008  0.000  0.006  0.014
   26  0.002  0.000  0.068  0.070
   27  0.003  0.000  0.056  0.059
   28  0.000  0.000  0.005  0.005
   29  0.000  0.000  0.007  0.008
   30  0.002  0.000  0.002  0.005
   31  0.000  0.000  0.008  0.008
   32  0.001  0.000  0.008  0.009
   33  0.002  0.000  0.002  0.005
   34  0.001  0.000  0.008  0.009
   35  0.000  0.000  0.011  0.011
   36  0.000  0.000  0.002  0.002
   37  0.000  0.000  0.000  0.000
tot    0.056  0.007  0.783  0.846
 
band    16 # energy   -4.92356966 # occ.  2.00000000
 
ion      s      p      d    tot
    1  0.000  0.000  0.006  0.006
    2  0.001  0.000  0.007  0.008
    3  0.003  0.000  0.005  0.008
    4  0.000  0.000  0.007  0.008
    5  0.000  0.000  0.007  0.007
    6  0.001  0.000  0.008  0.009
    7  0.003  0.000  0.005  0.008
    8  0.001  0.000  0.008  0.009
    9  0.000  0.000  0.018  0.018
   10  0.000  0.000  0.017  0.017
   11  0.004  0.000  0.020  0.025
   12  0.001  0.000  0.026  0.028
   13  0.004  0.000  0.022  0.026
   14  0.000  0.000  0.062  0.062
   15  0.001  0.000  0.035  0.037
   16  0.001  0.000  0.027  0.028
   17  0.001  0.000  0.035  0.036
   18  0.000  0.000  0.032  0.032
   19  0.006  0.000  0.026  0.032
   20  0.000  0.000  0.014  0.014
   21  0.000  0.000  0.041  0.041
   22  0.008  0.000  0.038  0.046
   23  0.000  0.000  0.042  0.042
   24  0.000  0.000  0.065  0.065
   25  0.000  0.000  0.090  0.091
   26  0.006  0.000  0.028  0.035
   27  0.008  0.000  0.036  0.045
   28  0.000  0.000  0.005  0.005
   29  0.001  0.001  0.005  0.007
   30  0.000  0.000  0.010  0.010
   31  0.002  0.001  0.004  0.006
   32  0.001  0.000  0.004  0.005
   33  0.000  0.000  0.010  0.010
   34  0.001  0.000  0.004  0.005
   35  0.000  0.000  0.011  0.011
   36  0.000  0.000  0.002  0.002
   37  0.000  0.000  0.000  0.000
tot    0.056  0.007  0.783  0.846
 
band    17 # energy   -4.91813671 # occ.  2.00000000
 
ion      s      p      d    tot
    1  0.010  0.000  0.014  0.024
    2  0.003  0.000  0.012  0.015
    3  0.003  0.000  0.012  0.015
    4  0.003  0.000  0.012  0.015
    5  0.000  0.000  0.013  0.014
    6  0.003  0.000  0.012  0.015
    7  0.003  0.000  0.012  0.015
    8  0.003  0.000  0.012  0.015
    9  0.002  0.000  0.001  0.002
   10  0.000  0.000  0.029  0.029
   11  0.005  0.000  0.011  0.017
   12  0.000  0.000  0.029  0.029
   13  0.005  0.000  0.011  0.017
   14  0.005  0.000  0.011  0.017
   15  0.000  0.000  0.021  0.021
   16  0.000  0.000  0.029  0.029
   17  0.000  0.000  0.021  0.021
   18  0.000  0.000  0.021  0.021
   19  0.002  0.000  0.044  0.047
   20  0.000  0.001  0.008  0.009
   21  0.000  0.001  0.008  0.009
   22  0.002  0.000  0.024  0.026
   23  0.000  0.001  0.008  0.009
   24  0.002  0.000  0.024  0.026
   25  0.002  0.000  0.044  0.046
   26  0.002  0.000  0.044  0.047
   27  0.002  0.000  0.024  0.026
   28  0.009  0.000  0.035  0.044
   29  0.008  0.000  0.018  0.026
   30  0.008  0.000  0.018  0.026
   31  0.008  0.000  0.018  0.026
   32  0.008  0.000  0.018  0.026
   33  0.008  0.000  0.018  0.026
   34  0.008  0.000  0.018  0.026
   35  0.002  0.000  0.013  0.015
   36  0.013  0.001  0.008  0.023
   37  0.000  0.000  0.000  0.000
tot    0.126  0.009  0.678  0.813
 
band    18 # energy   -4.81715069 # occ.  2.00000000
 
ion      s      p      d    tot
    1  0.000  0.000  0.002  0.002
    2  0.001  0.001  0.007  0.008
    3  0.000  0.000  0.006  0.006
    4  0.001  0.001  0.007  0.008
    5  0.000  0.001  0.012  0.013
    6  0.002  0.001  0.004  0.006
    7  0.000  0.000  0.006  0.006
    8  0.002  0.001  0.004  0.007
    9  0.000  0.000  0.008  0.008
   10  0.000  0.001  0.024  0.026
   11  0.001  0.000  0.056  0.056
   12  0.000  0.000  0.007  0.008
   13  0.001  0.000  0.056  0.057
   14  0.002  0.000  0.044  0.046
   15  0.000  0.000  0.024  0.024
   16  0.000  0.000  0.007  0.008
   17  0.000  0.000  0.023  0.024
   18  0.001  0.000  0.026  0.027
   19  0.000  0.000  0.006  0.007
   20  0.001  0.000  0.079  0.080
   21  0.000  0.000  0.095  0.096
   22  0.000  0.000  0.044  0.044
   23  0.000  0.000  0.095  0.095
   24  0.000  0.001  0.024  0.024
   25  0.000  0.001  0.023  0.024
   26  0.000  0.000  0.006  0.006
   27  0.000  0.000  0.044  0.044
   28  0.000  0.000  0.001  0.001
   29  0.000  0.000  0.008  0.008
   30  0.001  0.000  0.009  0.010
   31  0.000  0.000  0.007  0.008
   32  0.001  0.001  0.010  0.011
   33  0.001  0.000  0.009  0.010
   34  0.001  0.001  0.010  0.011
   35  0.000  0.000  0.001  0.001
   36  0.000  0.000  0.046  0.046
   37  0.000  0.012  0.000  0.012
tot    0.017  0.023  0.838  0.877
 
band    19 # energy   -4.81713911 # occ.  2.00000000
 
ion      s      p      d    tot
    1  0.000  0.000  0.002  0.002
    2  0.001  0.000  0.004  0.006
    3  0.002  0.001  0.005  0.008
    4  0.001  0.000  0.004  0.006
    5  0.000  0.001  0.012  0.013
    6  0.000  0.000  0.007  0.007
    7  0.002  0.001  0.005  0.008
    8  0.000  0.000  0.007  0.007
    9  0.000  0.000  0.008  0.008
   10  0.000  0.000  0.002  0.002
   11  0.002  0.000  0.048  0.050
   12  0.000  0.001  0.019  0.020
   13  0.002  0.000  0.048  0.050
   14  0.000  0.000  0.060  0.060
   15  0.001  0.000  0.025  0.026
   16  0.000  0.001  0.019  0.019
   17  0.001  0.000  0.025  0.026
   18  0.000  0.000  0.023  0.023
   19  0.000  0.001  0.018  0.018
   20  0.000  0.000  0.101  0.101
   21  0.001  0.000  0.084  0.085
   22  0.000  0.000  0.030  0.031
   23  0.001  0.000  0.084  0.085
   24  0.000  0.000  0.050  0.050
   25  0.000  0.000  0.001  0.001
   26  0.000  0.001  0.018  0.018
   27  0.000  0.000  0.030  0.031
   28  0.000  0.000  0.001  0.001
   29  0.001  0.001  0.010  0.011
   30  0.000  0.000  0.009  0.009
   31  0.001  0.001  0.010  0.011
   32  0.000  0.000  0.007  0.008
   33  0.000  0.000  0.009  0.009
   34  0.000  0.000  0.007  0.008
   35  0.000  0.000  0.001  0.001
   36  0.000  0.000  0.046  0.046
   37  0.000  0.012  0.000  0.012
tot    0.017  0.023  0.838  0.877
 
band    20 # energy   -4.80766104 # occ.  2.00000000
 
ion      s      p      d    tot
    1  0.000  0.000  0.000  0.000
    2  0.000  0.000  0.005  0.005
    3  0.000  0.000  0.005  0.005
    4  0.000  0.000  0.005  0.005
    5  0.001  0.000  0.009  0.010
    6  0.000  0.000  0.005  0.005
    7  0.000  0.000  0.005  0.005
    8  0.000  0.000  0.005  0.005
    9  0.000  0.001  0.011  0.012
   10  0.000  0.000  0.008  0.009
   11  0.000  0.001  0.071  0.072
   12  0.000  0.000  0.008  0.009
   13  0.000  0.001  0.071  0.072
   14  0.000  0.001  0.071  0.072
   15  0.000  0.001  0.041  0.042
   16  0.000  0.000  0.008  0.009
   17  0.000  0.001  0.041  0.042
   18  0.000  0.001  0.041  0.042
   19  0.001  0.000  0.011  0.012
   20  0.002  0.001  0.062  0.065
   21  0.002  0.001  0.062  0.065
   22  0.004  0.000  0.028  0.031
   23  0.002  0.001  0.062  0.065
   24  0.004  0.000  0.028  0.032
   25  0.001  0.000  0.011  0.012
   26  0.001  0.000  0.011  0.012
   27  0.004  0.000  0.028  0.031
   28  0.001  0.001  0.001  0.003
   29  0.000  0.001  0.014  0.015
   30  0.000  0.001  0.014  0.015
   31  0.000  0.001  0.014  0.015
   32  0.000  0.001  0.014  0.015
   33  0.000  0.001  0.014  0.015
   34  0.000  0.001  0.014  0.015
   35  0.006  0.000  0.004  0.010
   36  0.002  0.001  0.008  0.011
   37  0.001  0.004  0.000  0.006
tot    0.034  0.019  0.810  0.863
 
band    21 # energy   -4.76073164 # occ.  2.00000000
 
ion      s      p      d    tot
    1  0.000  0.000  0.007  0.007
    2  0.000  0.000  0.011  0.012
    3  0.000  0.000  0.011  0.012
    4  0.000  0.000  0.011  0.012
    5  0.004  0.001  0.001  0.006
    6  0.000  0.000  0.011  0.012
    7  0.000  0.000  0.011  0.012
    8  0.000  0.000  0.011  0.012
    9  0.002  0.000  0.003  0.005
   10  0.002  0.001  0.053  0.056
   11  0.000  0.000  0.026  0.026
   12  0.002  0.001  0.053  0.056
   13  0.000  0.000  0.026  0.026
   14  0.000  0.000  0.025  0.026
   15  0.002  0.000  0.026  0.028
   16  0.002  0.001  0.053  0.056
   17  0.002  0.000  0.026  0.028
   18  0.002  0.000  0.026  0.029
   19  0.001  0.000  0.053  0.055
   20  0.001  0.000  0.015  0.016
   21  0.001  0.000  0.015  0.016
   22  0.000  0.001  0.046  0.047
   23  0.001  0.000  0.015  0.016
   24  0.000  0.001  0.045  0.046
   25  0.001  0.000  0.053  0.055
   26  0.001  0.000  0.053  0.055
   27  0.000  0.001  0.046  0.047
   28  0.000  0.000  0.013  0.013
   29  0.000  0.000  0.009  0.010
   30  0.000  0.000  0.009  0.010
   31  0.000  0.000  0.009  0.010
   32  0.000  0.000  0.009  0.010
   33  0.000  0.000  0.009  0.010
   34  0.000  0.000  0.009  0.010
   35  0.004  0.001  0.003  0.008
   36  0.003  0.001  0.000  0.004