 vasp.6.2.0 18Jan21 (build Jun 12 2021 23:27:24) complex                        
  
 executed on             LinuxIFC date 2022.05.26  20:20:08
 running on   28 total cores
 distrk:  each k-point on   28 cores,    1 groups
 distr:  one band on NCORE=   1 cores,   28 groups


--------------------------------------------------------------------------------------------------------


 INCAR:
   ISMEAR = -5
   SIGMA = 0.1
   ISPIN = 1
   EDIFF = 1.d-5
   EDIFFG = -0.01
   NSW = 0
   NELM = 150
   ENCUT = 500
   ISIF = 2
   IBRION = 2
   LREAL = Auto
   ALGO = Fast
   ICHARG = 11
   LORBIT = 10
   LCHARG = .F.
   LWAVE = .F.

 POTCAR:    PAW_PBE Ag 02Apr2005                  
 POTCAR:    PAW_PBE Mo 08Apr2002                  
 -----------------------------------------------------------------------------
|                                                                             |
|           W    W    AA    RRRRR   N    N  II  N    N   GGGG   !!!           |
|           W    W   A  A   R    R  NN   N  II  NN   N  G    G  !!!           |
|           W    W  A    A  R    R  N N  N  II  N N  N  G       !!!           |
|           W WW W  AAAAAA  RRRRR   N  N N  II  N  N N  G  GGG   !            |
|           WW  WW  A    A  R   R   N   NN  II  N   NN  G    G                |
|           W    W  A    A  R    R  N    N  II  N    N   GGGG   !!!           |
|                                                                             |
|     For optimal performance we recommend to set                             |
|       NCORE = 2 up to number-of-cores-per-socket                            |
|     NCORE specifies how many cores store one orbital (NPAR=cpu/NCORE).      |
|     This setting can greatly improve the performance of VASP for DFT.       |
|     The default, NCORE=1 might be grossly inefficient on modern             |
|     multi-core architectures or massively parallel machines. Do your        |
|     own testing! More info at https://www.vasp.at/wiki/index.php/NCORE      |
|     Unfortunately you need to use the default for GW and RPA                |
|     calculations (for HF NCORE is supported but not extensively tested      |
|     yet).                                                                   |
|                                                                             |
 -----------------------------------------------------------------------------

 POTCAR:    PAW_PBE Ag 02Apr2005                  
   VRHFIN =Ag : s1 d10                                                                              
   LEXCH  = PE                                                                                      
   EATOM  =  1037.2675 eV,   76.2370 Ry                                                             
                                                                                                    
   TITEL  = PAW_PBE Ag 02Apr2005                                                                    
   LULTRA =        F    use ultrasoft PP ?                                                          
   IUNSCR =        1    unscreen: 0-lin 1-nonlin 2-no                                               
   RPACOR =    2.000    partial core radius                                                         
   POMASS =  107.868; ZVAL   =   11.000    mass and valenz                                          
   RCORE  =    2.500    outmost cutoff radius                                                       
   RWIGS  =    2.840; RWIGS  =    1.503    wigner-seitz radius (au A)                               
   ENMAX  =  249.844; ENMIN  =  187.383 eV                                                          
   ICORE  =        3    local potential                                                             
   LCOR   =        T    correct aug charges                                                         
   LPAW   =        T    paw PP                                                                      
   EAUG   =  412.496                                                                                
   DEXC   =    0.000                                                                                
   RMAX   =    2.560    core radius for proj-oper                                                   
   RAUG   =    1.300    factor for augmentation sphere                                              
   RDEP   =    2.576    radius for radial grids                                                     
   RDEPT  =    2.072    core radius for aug-charge                                                  
                                                                                                    
   Atomic configuration                                                                             
   12 entries                                                                                       
     n  l   j            E        occ.                                                              
     1  0  0.50    -25324.9161   2.0000                                                             
     2  0  0.50     -3728.5341   2.0000                                                             
     2  1  1.50     -3344.0404   6.0000                                                             
     3  0  0.50      -683.5581   2.0000                                                             
     3  1  1.50      -557.3225   6.0000                                                             
     3  2  2.50      -358.3853  10.0000                                                             
     4  0  0.50       -95.0341   2.0000                                                             
     4  1  1.50       -58.5511   6.0000                                                             
     4  2  2.50        -7.4440  10.0000                                                             
     5  0  0.50        -4.4045   1.0000                                                             
     5  1  0.50        -1.3606   0.0000                                                             
     4  3  2.50        -1.3606   0.0000                                                             
   Description                                                                                      
     l       E           TYP  RCUT    TYP  RCUT                                                     
     2     -7.4439781     23  2.400                                                                 
     2     -8.8045607     23  2.400                                                                 
     0     -4.4044681     23  2.400                                                                 
     0      1.9520038     23  2.400                                                                 
     1     -1.3605826     23  2.500                                                                 
     1     27.2116520     23  2.500                                                                 
     3     -4.0817478     23  2.400                                                                 
  local pseudopotential read in
  partial core-charges read in
  partial kinetic energy density read in
  atomic valenz-charges read in
  non local Contribution for L=           2  read in
    real space projection operators read in
  non local Contribution for L=           2  read in
    real space projection operators read in
  non local Contribution for L=           0  read in
    real space projection operators read in
  non local Contribution for L=           0  read in
    real space projection operators read in
  non local Contribution for L=           1  read in
    real space projection operators read in
  non local Contribution for L=           1  read in
    real space projection operators read in
    PAW grid and wavefunctions read in
 
   number of l-projection  operators is LMAX  =           6
   number of lm-projection operators is LMMAX =          18
 
 POTCAR:    PAW_PBE Mo 08Apr2002                  
   VRHFIN =Mo: 4p5s4d                                                                               
   LEXCH  = PE                                                                                      
   EATOM  =   217.5176 eV,   15.9871 Ry                                                             
                                                                                                    
   TITEL  = PAW_PBE Mo 08Apr2002                                                                    
   LULTRA =        F    use ultrasoft PP ?                                                          
   IUNSCR =        1    unscreen: 0-lin 1-nonlin 2-no                                               
   RPACOR =    2.200    partial core radius                                                         
   POMASS =   95.940; ZVAL   =    6.000    mass and valenz                                          
   RCORE  =    2.750    outmost cutoff radius                                                       
   RWIGS  =    2.750; RWIGS  =    1.455    wigner-seitz radius (au A)                               
   ENMAX  =  224.584; ENMIN  =  168.438 eV                                                          
   RCLOC  =    2.111    cutoff for local pot                                                        
   LCOR   =        T    correct aug charges                                                         
   LPAW   =        T    paw PP                                                                      
   EAUG   =  345.278                                                                                
   DEXC   =    0.000                                                                                
   RMAX   =    2.821    core radius for proj-oper                                                   
   RAUG   =    1.300    factor for augmentation sphere                                              
   RDEP   =    2.815    radius for radial grids                                                     
   RDEPT  =    2.211    core radius for aug-charge                                                  
                                                                                                    
   Atomic configuration                                                                             
   12 entries                                                                                       
     n  l   j            E        occ.                                                              
     1  0  0.50    -19819.0341   2.0000                                                             
     2  0  0.50     -2799.0127   2.0000                                                             
     2  1  1.50     -2502.0276   6.0000                                                             
     3  0  0.50      -476.4448   2.0000                                                             
     3  1  1.50      -379.1496   6.0000                                                             
     3  2  2.50      -220.9367  10.0000                                                             
     4  0  0.50       -64.3378   2.0000                                                             
     4  1  1.50       -38.4773   6.0000                                                             
     4  2  2.50        -3.7535   5.0000                                                             
     5  0  0.50        -4.0862   1.0000                                                             
     5  1  0.50        -2.7701   0.0000                                                             
     4  3  2.50        -1.3606   0.0000                                                             
   Description                                                                                      
     l       E           TYP  RCUT    TYP  RCUT                                                     
     2     -3.7534765     23  2.500                                                                 
     2     -5.1140591     23  2.500                                                                 
     0     -4.0861560     23  2.600                                                                 
     0     13.6058260     23  2.600                                                                 
     1      5.4423304     23  2.750                                                                 
     1     27.2116520     23  2.750                                                                 
  local pseudopotential read in
  partial core-charges read in
  partial kinetic energy density read in
  atomic valenz-charges read in
  non local Contribution for L=           2  read in
    real space projection operators read in
  non local Contribution for L=           2  read in
    real space projection operators read in
  non local Contribution for L=           0  read in
    real space projection operators read in
  non local Contribution for L=           0  read in
    real space projection operators read in
  non local Contribution for L=           1  read in
    real space projection operators read in
  non local Contribution for L=           1  read in
    real space projection operators read in
    PAW grid and wavefunctions read in
 
   number of l-projection  operators is LMAX  =           6
   number of lm-projection operators is LMMAX =          18
 
 Optimization of the real space projectors (new method)

 maximal supplied QI-value         = 15.12
 optimisation between [QCUT,QGAM] = [ 11.34, 22.83] = [ 36.00,145.93] Ry 
 Optimized for a Real-space Cutoff    1.43 Angstroem

   l    n(q)    QCUT    max X(q) W(low)/X(q) W(high)/X(q)  e(spline) 
   2      9    11.338    53.897    0.16E-03    0.20E-03    0.28E-06
   2      9    11.338    52.416    0.16E-03    0.20E-03    0.29E-06
   0     10    11.338   122.045    0.31E-04    0.76E-04    0.15E-06
   0     10    11.338    73.629    0.30E-04    0.72E-04    0.15E-06
   1      9    11.338    15.255    0.20E-03    0.19E-04    0.17E-06
   1      9    11.338     9.562    0.16E-03    0.15E-04    0.14E-06
 Optimization of the real space projectors (new method)

 maximal supplied QI-value         = 13.61
 optimisation between [QCUT,QGAM] = [ 11.43, 22.86] = [ 36.58,146.31] Ry 
 Optimized for a Real-space Cutoff    1.56 Angstroem

   l    n(q)    QCUT    max X(q) W(low)/X(q) W(high)/X(q)  e(spline) 
   2     10    11.429    80.908    0.27E-03    0.78E-03    0.13E-05
   2     10    11.429    79.000    0.27E-03    0.78E-03    0.13E-05
   0     11    11.429    52.066    0.33E-04    0.97E-04    0.72E-06
   0     11    11.429    24.514    0.27E-04    0.80E-04    0.60E-06
   1     10    11.429    16.033    0.31E-04    0.17E-03    0.36E-06
   1     10    11.429    11.179    0.22E-04    0.13E-03    0.29E-06
  PAW_PBE Ag 02Apr2005                  :
 energy of atom  1       EATOM=-1037.2675
 kinetic energy error for atom=    0.0052 (will be added to EATOM!!)
  PAW_PBE Mo 08Apr2002                  :
 energy of atom  2       EATOM= -217.5176
 kinetic energy error for atom=    0.0017 (will be added to EATOM!!)
 
 
 POSCAR: Ag-Mo
  positions in direct lattice
  velocities in cartesian coordinates
 exchange correlation table for  LEXCH =        8
   RHO(1)=    0.500       N(1)  =     2000
   RHO(2)=  100.500       N(2)  =     4000

 VTST: version 3.2, (02/03/18)

 CHAIN: initializing optimizer
 
 OPT: Using VASP Conjugate-Gradient optimizer
 CHAIN: Read ICHAIN            0
 
 POSCAR: Ag-Mo
  positions in direct lattice
  velocities in cartesian coordinates
 


--------------------------------------------------------------------------------------------------------


 ion  position               nearest neighbor table
   1  0.000  0.000  0.238-   2 2.93   8 2.93   7 2.93   6 2.93   4 2.93  12 2.93  16 2.93  10 2.93
                             3 2.93
   2  0.333  0.000  0.238-   1 2.93   8 2.93   9 2.93   3 2.93   4 2.93   5 2.93  10 2.93  17 2.93
                            11 2.93
   3  0.667  0.000  0.238-   9 2.93   2 2.93   5 2.93  11 2.93   7 2.93  18 2.93   1 2.93   6 2.93
                            12 2.93
   4  0.000  0.333  0.238-   5 2.93   6 2.93   2 2.93   1 2.93   7 2.93  13 2.93  15 2.93   9 2.93
                            10 2.93
   5  0.333  0.333  0.238-   4 2.93   3 2.93   7 2.93   2 2.93   8 2.93  14 2.93  13 2.93  11 2.93
                             6 2.93
   6  0.667  0.333  0.238-   4 2.93   9 2.93   1 2.93  15 2.93   8 2.93  12 2.93   3 2.93   5 2.93
                            14 2.93
   7  0.000  0.667  0.238-   8 2.93   1 2.93   5 2.93   3 2.93   4 2.93  16 2.93  18 2.93  13 2.93
                             9 2.93
   8  0.333  0.667  0.238-   7 2.93   1 2.93   2 2.93   9 2.93   5 2.93  16 2.93   6 2.93  17 2.93
                            14 2.93
   9  0.667  0.667  0.238-   3 2.93   2 2.93   8 2.93   6 2.93  17 2.93   4 2.93  15 2.93   7 2.93
                            18 2.93
  10  0.111  0.111  0.346-  20 2.90  19 2.93  26 2.93  12 2.93  16 2.93  15 2.93  17 2.93  13 2.93
                            11 2.93   2 2.93   1 2.93   4 2.93
  11  0.444  0.111  0.346-  21 2.90  20 2.90  27 2.93  14 2.93  17 2.93  18 2.93   3 2.93  12 2.93
                            13 2.93  10 2.93   5 2.93   2 2.93
  12  0.778  0.111  0.346-  21 2.90  25 2.93  19 2.93  10 2.93  16 2.93  18 2.93  15 2.93  11 2.93
                             1 2.93  14 2.93   6 2.93   3 2.93
  13  0.111  0.444  0.346-  20 2.90  23 2.90  22 2.93  15 2.93  14 2.93  18 2.93  10 2.93  11 2.93
                            16 2.93   4 2.93   5 2.93   7 2.93
  14  0.444  0.444  0.346-  23 2.90  21 2.90  24 2.93  13 2.93  11 2.93  16 2.93   5 2.93  12 2.93
                            17 2.93   8 2.93  15 2.93   6 2.93
  15  0.778  0.444  0.346-  24 2.92  22 2.92  19 2.92  13 2.93  10 2.93  12 2.93  17 2.93  18 2.93
                             4 2.93   6 2.93   9 2.93  14 2.93
  16  0.111  0.778  0.346-  23 2.90  26 2.93  25 2.93  18 2.93  12 2.93  10 2.93  14 2.93  17 2.93
                            13 2.93   7 2.93   8 2.93   1 2.93
  17  0.444  0.778  0.346-  27 2.92  24 2.92  26 2.92  11 2.93  10 2.93   9 2.93  18 2.93  15 2.93
                            16 2.93   2 2.93  14 2.93   8 2.93
  18  0.778  0.778  0.346-  22 2.92  27 2.92  25 2.92  16 2.93  12 2.93  13 2.93  11 2.93  17 2.93
                            15 2.93   7 2.93   3 2.93   9 2.93
  19  0.889  0.222  0.454-  28 2.92  15 2.92  10 2.93  12 2.93  24 2.93  22 2.93  26 2.93  25 2.93
                            20 2.93  21 2.93  32 2.96  31 2.96
  20  0.222  0.222  0.452-  36 2.79  13 2.90  11 2.90  10 2.90  21 2.93  23 2.93  19 2.93  26 2.93
                            27 2.93  22 2.93  31 2.94  29 2.94
  21  0.555  0.222  0.452-  36 2.79  11 2.90  14 2.90  12 2.90  20 2.93  23 2.93  25 2.93  19 2.93
                            27 2.93  24 2.93  30 2.94  32 2.94
  22  0.888  0.556  0.454-  35 2.91  24 2.92  27 2.92  18 2.92  15 2.92  13 2.93  25 2.93  19 2.93
                            23 2.93  20 2.93  33 2.94  31 2.94
  23  0.222  0.555  0.452-  36 2.79  14 2.90  13 2.90  16 2.90  21 2.93  20 2.93  26 2.93  25 2.93
                            22 2.93  24 2.93  34 2.94  33 2.94
  24  0.556  0.556  0.454-  35 2.91  27 2.92  22 2.92  15 2.92  17 2.92  14 2.93  19 2.93  26 2.93
                            23 2.93  21 2.93  32 2.94  34 2.94
  25  0.889  0.889  0.454-  28 2.92  18 2.92  16 2.93  12 2.93  22 2.93  27 2.93  26 2.93  19 2.93
                            23 2.93  21 2.93  33 2.96  30 2.96
  26  0.222  0.889  0.454-  28 2.92  17 2.92  16 2.93  10 2.93  27 2.93  24 2.93  25 2.93  19 2.93
                            23 2.93  20 2.93  34 2.96  29 2.96
  27  0.556  0.888  0.454-  35 2.91  24 2.92  22 2.92  17 2.92  18 2.92  11 2.93  26 2.93  25 2.93
                            20 2.93  21 2.93  29 2.94  30 2.94
  28  0.000  0.000  0.561-  26 2.92  25 2.92  19 2.92  29 2.95  34 2.95  33 2.95  32 2.95  31 2.95
                            30 2.95
  29  0.333  0.005  0.562-  31 2.88  30 2.89  36 2.89  27 2.94  20 2.94  28 2.95  35 2.96  26 2.96
                            34 3.02
  30  0.662  0.005  0.562-  32 2.88  29 2.89  36 2.89  27 2.94  21 2.94  28 2.95  35 2.96  25 2.96
                            33 3.02
  31  0.005  0.333  0.562-  29 2.88  33 2.89  36 2.89  22 2.94  20 2.94  28 2.95  35 2.96  19 2.96
                            32 3.02
  32  0.662  0.333  0.562-  30 2.88  34 2.89  36 2.89  24 2.94  21 2.94  28 2.95  35 2.96  19 2.96
                            31 3.02
  33  0.005  0.662  0.562-  34 2.88  31 2.89  36 2.89  22 2.94  23 2.94  28 2.95  35 2.96  25 2.96
                            30 3.02
  34  0.333  0.662  0.562-  33 2.88  32 2.89  36 2.89  24 2.94  23 2.94  28 2.95  35 2.96  26 2.96
                            29 3.02
  35  0.667  0.667  0.561-  24 2.91  27 2.91  22 2.91  30 2.96  32 2.96  29 2.96  34 2.96  31 2.96
                            33 2.96
  36  0.333  0.333  0.552-  21 2.79  20 2.79  23 2.79  31 2.89  30 2.89  33 2.89  29 2.89  34 2.89
                            32 2.89
 
  LATTYP: Found a hexagonal cell.
 ALAT       =     8.7913665772
 C/A-ratio  =     2.5227160501
  
  Lattice vectors:
  
 A1 = (  -4.3956832886,  -7.6135467898,   0.0000000000)
 A2 = (   8.7913665771,   0.0000000000,   0.0000000000)
 A3 = (   0.0000000000,   0.0000000000,  22.1781215668)


Analysis of symmetry for initial positions (statically):
=====================================================================
 Subroutine PRICEL returns:
 Original cell was already a primitive cell.
 

 Routine SETGRP: Setting up the symmetry group for a 
 hexagonal supercell.


 Subroutine GETGRP returns: Found  6 space group operations
 (whereof  6 operations were pure point group operations)
 out of a pool of 24 trial point group operations.


The static configuration has the point symmetry C_3v.


Analysis of symmetry for dynamics (positions and initial velocities):
=====================================================================
 Subroutine PRICEL returns:
 Original cell was already a primitive cell.
 

 Routine SETGRP: Setting up the symmetry group for a 
 hexagonal supercell.


 Subroutine GETGRP returns: Found  6 space group operations
 (whereof  6 operations were pure point group operations)
 out of a pool of 24 trial point group operations.


The dynamic configuration has the point symmetry C_3v.


Analysis of constrained symmetry for selective dynamics:
=====================================================================
 Subroutine PRICEL returns:
 Original cell was already a primitive cell.
 

 Routine SETGRP: Setting up the symmetry group for a 
 hexagonal supercell.


 Subroutine GETGRP returns: Found  6 space group operations
 (whereof  6 operations were pure point group operations)
 out of a pool of 24 trial point group operations.


The constrained configuration has the point symmetry C_3v.


 Subroutine INISYM returns: Found  6 space group operations
 (whereof  6 operations are pure point group operations),
 and found     1 'primitive' translations


----------------------------------------------------------------------------------------

                                     Primitive cell                                     

  volume of cell :    1484.4589

  direct lattice vectors                    reciprocal lattice vectors
     8.791366577  0.000000000  0.000000000     0.113747958 -0.065672414  0.000000000
     4.395683289  7.613546790  0.000000000     0.000000000  0.131344829  0.000000000
     0.000000000  0.000000000 22.178121567     0.000000000  0.000000000  0.045089481

  length of vectors
     8.791366577  8.791366577 22.178121567     0.131344829  0.131344829  0.045089481

  position of ions in fractional coordinates (direct lattice)
     0.000000000  0.000000000  0.238171124
     0.333333313  0.000000000  0.238171124
     0.666666627  0.000000000  0.238171124
     0.000000000  0.333333343  0.238171124
     0.333333313  0.333333343  0.238171124
     0.666666687  0.333333343  0.238171124
     0.000000000  0.666666687  0.238171124
     0.333333313  0.666666687  0.238171124
     0.666666627  0.666666687  0.238171124
     0.111111104  0.111111112  0.346057051
     0.444444448  0.111111112  0.346057051
     0.777777791  0.111111112  0.346057051
     0.111111097  0.444444448  0.346057051
     0.444444418  0.444444448  0.346057051
     0.777777791  0.444444448  0.346057051
     0.111111104  0.777777791  0.346057051
     0.444444448  0.777777791  0.346057051
     0.777777791  0.777777791  0.346057051
     0.888826068  0.222347881  0.453670091
     0.222340574  0.222340589  0.452251208
     0.555318792  0.222340589  0.452251208
     0.888411547  0.555794257  0.453693468
     0.222340589  0.555318852  0.452251208
     0.555794257  0.555794257  0.453693468
     0.888826068  0.888826068  0.453670091
     0.222347851  0.888826068  0.453670091
     0.555794197  0.888411547  0.453693468
     0.000000000  0.000000000  0.560766076
     0.333121829  0.005303367  0.562080365
     0.661574743  0.005303367  0.562080365
     0.005303367  0.333121859  0.562080365
     0.661574803  0.333121859  0.562080365
     0.005303367  0.661574803  0.562080365
     0.333121829  0.661574803  0.562080365
     0.666666627  0.666666687  0.560746365
     0.333333313  0.333333343  0.552133086

  ion indices of the primitive-cell ions
   primitive index   ion index
                 1           1
                 2           2
                 3           3
                 4           4
                 5           5
                 6           6
                 7           7
                 8           8
                 9           9
                10          10
                11          11
                12          12
                13          13
                14          14
                15          15
                16          16
                17          17
                18          18
                19          19
                20          20
                21          21
                22          22
                23          23
                24          24
                25          25
                26          26
                27          27
                28          28
                29          29
                30          30
                31          31
                32          32
                33          33
                34          34
                35          35
                36          36

----------------------------------------------------------------------------------------

 
 
 KPOINTS: Automatic mesh                          

Automatic generation of k-mesh.
 Grid dimensions read from file:
 generate k-points for:    8    8    1

 Generating k-lattice:

  Cartesian coordinates                     Fractional coordinates (reciprocal lattice)
     0.014218495 -0.008209052  0.000000000     0.125000000  0.000000000  0.000000000
     0.000000000  0.016418104  0.000000000     0.000000000  0.125000000  0.000000000
     0.000000000  0.000000000  0.045089481     0.000000000  0.000000000  1.000000000

  Length of vectors
     0.016418104  0.016418104  0.045089481

  Shift w.r.t. Gamma in fractional coordinates (k-lattice)
     0.000000000  0.000000000  0.000000000

 TETIRR: Found     36 inequivalent tetrahedra from      384
 
 Subroutine IBZKPT returns following result:
 ===========================================
 
 Found     10 irreducible k-points:
 
 Following reciprocal coordinates:
            Coordinates               Weight
  0.000000  0.000000  0.000000      1.000000
  0.125000 -0.000000  0.000000      6.000000
  0.250000 -0.000000  0.000000      6.000000
  0.375000 -0.000000  0.000000      6.000000
  0.500000 -0.000000  0.000000      3.000000
  0.250000  0.125000  0.000000      6.000000
  0.375000  0.125000  0.000000     12.000000
  0.500000  0.125000  0.000000     12.000000
  0.500000  0.250000  0.000000      6.000000
 -0.375000  0.250000  0.000000      6.000000
 
 Following cartesian coordinates:
            Coordinates               Weight
  0.000000  0.000000  0.000000      1.000000
  0.014218 -0.008209  0.000000      6.000000
  0.028437 -0.016418  0.000000      6.000000
  0.042655 -0.024627  0.000000      6.000000
  0.056874 -0.032836  0.000000      3.000000
  0.028437 -0.000000  0.000000      6.000000
  0.042655 -0.008209  0.000000     12.000000
  0.056874 -0.016418  0.000000     12.000000
  0.056874 -0.000000  0.000000      6.000000
 -0.042655  0.057463  0.000000      6.000000
 


--------------------------------------------------------------------------------------------------------




 Dimension of arrays:
   k-points           NKPTS =     10   k-points in BZ     NKDIM =     10   number of bands    NBANDS=    252
   number of dos      NEDOS =    301   number of ions     NIONS =     36
   non local maximal  LDIM  =      6   non local SUM 2l+1 LMDIM =     18
   total plane-waves  NPLWV = 290304
   max r-space proj   IRMAX =   3185   max aug-charges    IRDMAX=  12754
   dimension x,y,z NGX =    48 NGY =   48 NGZ =  126
   dimension x,y,z NGXF=    96 NGYF=   96 NGZF=  252
   support grid    NGXF=    96 NGYF=   96 NGZF=  252
   ions per type =              35   1
   NGX,Y,Z   is equivalent  to a cutoff of   9.08,  9.08,  9.44 a.u.
   NGXF,Y,Z  is equivalent  to a cutoff of  18.15, 18.15, 18.89 a.u.

 SYSTEM =  unknown system                          
 POSCAR =  Ag-Mo                                   

 Startparameter for this run:
   NWRITE =      2    write-flag & timer
   PREC   = normal    normal or accurate (medium, high low for compatibility)
   ISTART =      0    job   : 0-new  1-cont  2-samecut
   ICHARG =     11    charge: 1-file 2-atom 10-const
   ISPIN  =      1    spin polarized calculation?
   LNONCOLLINEAR =      F non collinear calculations
   LSORBIT =      F    spin-orbit coupling
   INIWAV =      1    electr: 0-lowe 1-rand  2-diag
   LASPH  =      F    aspherical Exc in radial PAW
   METAGGA=      F    non-selfconsistent MetaGGA calc.

 Electronic Relaxation 1
   ENCUT  =  500.0 eV  36.75 Ry    6.06 a.u.  16.03 16.03 40.44*2*pi/ulx,y,z
   ENINI  =  500.0     initial cutoff
   ENAUG  =  412.5 eV  augmentation charge cutoff
   NELM   =    150;   NELMIN=  2; NELMDL= -5     # of ELM steps 
   EDIFF  = 0.1E-04   stopping-criterion for ELM
   LREAL  =      T    real-space projection
   NLSPLINE    = F    spline interpolate recip. space projectors
   LCOMPAT=      F    compatible to vasp.4.4
   GGA_COMPAT  = T    GGA compatible to vasp.4.4-vasp.4.6
   LMAXPAW     = -100 max onsite density
   LMAXMIX     =    2 max onsite mixed and CHGCAR
   VOSKOWN=      0    Vosko Wilk Nusair interpolation
   ROPT   =   -0.00050  -0.00050
 Ionic relaxation
   EDIFFG = -.1E-01   stopping-criterion for IOM
   NSW    =      0    number of steps for IOM
   NBLOCK =      1;   KBLOCK =      1    inner block; outer block 
   IBRION =     -1    ionic relax: 0-MD 1-quasi-New 2-CG
   NFREE  =      1    steps in history (QN), initial steepest desc. (CG)
   ISIF   =      2    stress and relaxation
   IWAVPR =     10    prediction:  0-non 1-charg 2-wave 3-comb
   ISYM   =      2    0-nonsym 1-usesym 2-fastsym
   LCORR  =      T    Harris-Foulkes like correction to forces

   POTIM  = 0.5000    time-step for ionic-motion
   TEIN   =    0.0    initial temperature
   TEBEG  =    0.0;   TEEND  =   0.0 temperature during run
   SMASS  =  -3.00    Nose mass-parameter (am)
   estimated Nose-frequenzy (Omega)   =  0.10E-29 period in steps = 0.13E+47 mass=  -0.177E-26a.u.
   SCALEE = 1.0000    scale energy and forces
   NPACO  =    256;   APACO  = 16.0  distance and # of slots for P.C.
   PSTRESS=    0.0 pullay stress

  Mass of Ions in am
   POMASS = 107.87 95.94
  Ionic Valenz
   ZVAL   =  11.00  6.00
  Atomic Wigner-Seitz radii
   RWIGS  =  -1.00 -1.00
  virtual crystal weights 
   VCA    =   1.00  1.00
   NELECT =     391.0000    total number of electrons
   NUPDOWN=      -1.0000    fix difference up-down

 DOS related values:
   EMIN   =  10.00;   EMAX   =-10.00  energy-range for DOS
   EFERMI =   0.00
   ISMEAR =    -5;   SIGMA  =   0.10  broadening in eV -4-tet -1-fermi 0-gaus

 Electronic relaxation 2 (details)
   IALGO  =     68    algorithm
   LDIAG  =      T    sub-space diagonalisation (order eigenvalues)
   LSUBROT=      F    optimize rotation matrix (better conditioning)
   TURBO    =      0    0=normal 1=particle mesh
   IRESTART =      0    0=no restart 2=restart with 2 vectors
   NREBOOT  =      0    no. of reboots
   NMIN     =      0    reboot dimension
   EREF     =   0.00    reference energy to select bands
   IMIX   =      4    mixing-type and parameters
     AMIX     =   0.40;   BMIX     =  1.00
     AMIX_MAG =   1.60;   BMIX_MAG =  1.00
     AMIN     =   0.10
     WC   =   100.;   INIMIX=   1;  MIXPRE=   1;  MAXMIX= -45

 Intra band minimization:
   WEIMIN = 0.0000     energy-eigenvalue tresh-hold
   EBREAK =  0.99E-08  absolut break condition
   DEPER  =   0.30     relativ break condition  

   TIME   =   0.40     timestep for ELM

  volume/ion in A,a.u.               =      41.23       278.27
  Fermi-wavevector in a.u.,A,eV,Ry     =   1.049408  1.983094 14.983512  1.101257
  Thomas-Fermi vector in A             =   2.184369
 
 Write flags
   LWAVE        =      F    write WAVECAR
   LDOWNSAMPLE  =      F    k-point downsampling of WAVECAR
   LCHARG       =      F    write CHGCAR
   LVTOT        =      F    write LOCPOT, total local potential
   LVHAR        =      F    write LOCPOT, Hartree potential only
   LELF         =      F    write electronic localiz. function (ELF)
   LORBIT       =     10    0 simple, 1 ext, 2 COOP (PROOUT), +10 PAW based schemes


 Dipole corrections
   LMONO  =      F    monopole corrections only (constant potential shift)
   LDIPOL =      F    correct potential (dipole corrections)
   IDIPOL =      0    1-x, 2-y, 3-z, 4-all directions 
   EPSILON=  1.0000000 bulk dielectric constant

 Exchange correlation treatment:
   GGA     =    --    GGA type
   LEXCH   =     8    internal setting for exchange type
   VOSKOWN=      0    Vosko Wilk Nusair interpolation
   LHFCALC =     F    Hartree Fock is set to
   LHFONE  =     F    Hartree Fock one center treatment
   AEXX    =    0.0000 exact exchange contribution

 Linear response parameters
   LEPSILON=     F    determine dielectric tensor
   LRPA    =     F    only Hartree local field effects (RPA)
   LNABLA  =     F    use nabla operator in PAW spheres
   LVEL    =     F    velocity operator in full k-point grid
   LINTERFAST=   F  fast interpolation
   KINTER  =     0    interpolate to denser k-point grid
   CSHIFT  =0.1000    complex shift for real part using Kramers Kronig
   OMEGAMAX=  -1.0    maximum frequency
   DEG_THRESHOLD= 0.2000000E-02 threshold for treating states as degnerate
   RTIME   =   -0.100 relaxation time in fs
  (WPLASMAI=    0.000 imaginary part of plasma frequency in eV, 0.658/RTIME)
   DFIELD  = 0.0000000 0.0000000 0.0000000 field for delta impulse in time
 
 Orbital magnetization related:
   ORBITALMAG=     F  switch on orbital magnetization
   LCHIMAG   =     F  perturbation theory with respect to B field
   DQ        =  0.001000  dq finite difference perturbation B field
   LLRAUG    =     F  two centre corrections for induced B field



--------------------------------------------------------------------------------------------------------


 Static calculation
 charge density and potential remain constant during run
 non-spin polarized calculation
 RMM-DIIS sequential band-by-band and
  variant of blocked Davidson during initial phase
 perform sub-space diagonalisation
    before iterative eigenvector-optimisation
 no mixing
 using additional bands           56
 real space projection scheme for non local part
 use partial core corrections
 calculate Harris-corrections to forces 
   (improved forces if not selfconsistent)
 use gradient corrections 
 WARNING: stress and forces are not correct
  (second derivative of E(xc) not defined)
 use of overlap-Matrix (Vanderbilt PP)
 Fermi weights with tetrahedron method with Bloechl corrections


--------------------------------------------------------------------------------------------------------


  energy-cutoff  :      500.00
  volume of cell :     1484.46
      direct lattice vectors                 reciprocal lattice vectors
     8.791366577  0.000000000  0.000000000     0.113747958 -0.065672414  0.000000000
     4.395683289  7.613546790  0.000000000     0.000000000  0.131344829  0.000000000
     0.000000000  0.000000000 22.178121567     0.000000000  0.000000000  0.045089481

  length of vectors
     8.791366577  8.791366577 22.178121567     0.131344829  0.131344829  0.045089481


 
 k-points in units of 2pi/SCALE and weight: Automatic mesh                          
   0.00000000  0.00000000  0.00000000       0.016
   0.01421849 -0.00820905  0.00000000       0.094
   0.02843699 -0.01641810  0.00000000       0.094
   0.04265548 -0.02462716  0.00000000       0.094
   0.05687398 -0.03283621  0.00000000       0.047
   0.02843699 -0.00000000  0.00000000       0.094
   0.04265548 -0.00820905  0.00000000       0.188
   0.05687398 -0.01641810  0.00000000       0.188
   0.05687398 -0.00000000  0.00000000       0.094
  -0.04265548  0.05746336  0.00000000       0.094
 
 k-points in reciprocal lattice and weights: Automatic mesh                          
   0.00000000  0.00000000  0.00000000       0.016
   0.12500000 -0.00000000  0.00000000       0.094
   0.25000000 -0.00000000  0.00000000       0.094
   0.37500000 -0.00000000  0.00000000       0.094
   0.50000000 -0.00000000  0.00000000       0.047
   0.25000000  0.12500000  0.00000000       0.094
   0.37500000  0.12500000  0.00000000       0.188
   0.50000000  0.12500000  0.00000000       0.188
   0.50000000  0.25000000  0.00000000       0.094
  -0.37500000  0.25000000  0.00000000       0.094
 
 position of ions in fractional coordinates (direct lattice) 
   0.00000000  0.00000000  0.23817112
   0.33333331  0.00000000  0.23817112
   0.66666663  0.00000000  0.23817112
   0.00000000  0.33333334  0.23817112
   0.33333331  0.33333334  0.23817112
   0.66666669  0.33333334  0.23817112
   0.00000000  0.66666669  0.23817112
   0.33333331  0.66666669  0.23817112
   0.66666663  0.66666669  0.23817112
   0.11111110  0.11111111  0.34605705
   0.44444445  0.11111111  0.34605705
   0.77777779  0.11111111  0.34605705
   0.11111110  0.44444445  0.34605705
   0.44444442  0.44444445  0.34605705
   0.77777779  0.44444445  0.34605705
   0.11111110  0.77777779  0.34605705
   0.44444445  0.77777779  0.34605705
   0.77777779  0.77777779  0.34605705
   0.88882607  0.22234788  0.45367009
   0.22234057  0.22234059  0.45225121
   0.55531879  0.22234059  0.45225121
   0.88841155  0.55579426  0.45369347
   0.22234059  0.55531885  0.45225121
   0.55579426  0.55579426  0.45369347
   0.88882607  0.88882607  0.45367009
   0.22234785  0.88882607  0.45367009
   0.55579420  0.88841155  0.45369347
   0.00000000  0.00000000  0.56076608
   0.33312183  0.00530337  0.56208037
   0.66157474  0.00530337  0.56208037
   0.00530337  0.33312186  0.56208037
   0.66157480  0.33312186  0.56208037
   0.00530337  0.66157480  0.56208037
   0.33312183  0.66157480  0.56208037
   0.66666663  0.66666669  0.56074637
   0.33333331  0.33333334  0.55213309
 
 position of ions in cartesian coordinates  (Angst):
   0.00000000  0.00000000  5.28218814
   2.93045535  0.00000000  5.28218814
   5.86091070  0.00000000  5.28218814
   1.46522781  2.53784900  5.28218814
   4.39568315  2.53784900  5.28218814
   7.32613904  2.53784900  5.28218814
   2.93045562  5.07569801  5.28218814
   5.86091096  5.07569801  5.28218814
   8.79136632  5.07569801  5.28218814
   1.46522770  0.84594965  7.67489535
   4.39568332  0.84594965  7.67489535
   7.32613893  0.84594965  7.67489535
   2.93045542  3.38379860  7.67489535
   5.86091083  3.38379860  7.67489535
   8.79136671  3.38379860  7.67489535
   4.39568328  5.92164760  7.67489535
   7.32613890  5.92164760  7.67489535
  10.25659451  5.92164760  7.67489535
   8.79136665  1.69285599 10.06155044
   2.93201630  1.69280048 10.03008227
   5.85934988  1.69280048 10.03008227
  10.25344710  4.23156558 10.06206889
   4.39568342  4.22794606 10.03008227
   7.32928658  4.23156558 10.06206889
  11.72099368  6.76711885 10.06155044
   5.86173936  6.76711885 10.06155044
   8.79136631  6.76396288 10.06206889
   0.00000000  0.00000000 12.43673821
   2.95190804  0.04037743 12.46588667
   5.83945801  0.04037743 12.46588667
   1.51092204  2.53623886 12.46588667
   7.28044480  2.53623886 12.46588667
   2.95469715  5.03693072 12.46588667
   5.83666942  5.03693072 12.46588667
   8.79136632  5.07569801 12.43630105
   4.39568315  2.53784900 12.24527469
 


--------------------------------------------------------------------------------------------------------


 k-point   1 :   0.0000 0.0000 0.0000  plane waves:   37683
 k-point   2 :   0.1250-0.0000 0.0000  plane waves:   37658
 k-point   3 :   0.2500-0.0000 0.0000  plane waves:   37682
 k-point   4 :   0.3750-0.0000 0.0000  plane waves:   37686
 k-point   5 :   0.5000-0.0000 0.0000  plane waves:   37668
 k-point   6 :   0.2500 0.1250 0.0000  plane waves:   37666
 k-point   7 :   0.3750 0.1250 0.0000  plane waves:   37708
 k-point   8 :   0.5000 0.1250 0.0000  plane waves:   37726
 k-point   9 :   0.5000 0.2500 0.0000  plane waves:   37706
 k-point  10 :  -0.3750 0.2500 0.0000  plane waves:   37686

 maximum and minimum number of plane-waves per node :     37726    37658

 maximum number of plane-waves:     37726
 maximum index in each direction: 
   IXMAX=   16   IYMAX=   16   IZMAX=   40
   IXMIN=  -16   IYMIN=  -16   IZMIN=  -40


 serial   3D FFT for wavefunctions
 parallel 3D FFT for charge:
    minimum data exchange during FFTs selected (reduces bandwidth)


 total amount of memory used by VASP MPI-rank0   122578. kBytes
=======================================================================

   base      :      30000. kBytes
   nonlr-proj:      15272. kBytes
   fftplans  :       4330. kBytes
   grid      :      17098. kBytes
   one-center:        559. kBytes
   wavefun   :      55319. kBytes
 
     INWAV:  cpu time    0.0000: real time    0.0001
 initial charge density was supplied:
 number of electron     390.9999959 magnetization 
 keeping initial charge density in first step


--------------------------------------------------------------------------------------------------------


 Maximum index for non-local projection operator         3036
 Maximum index for augmentation-charges          702 (set IRDMAX)


--------------------------------------------------------------------------------------------------------


 First call to EWALD:  gamma=   0.155
 Maximum number of real-space cells 4x 4x 2
 Maximum number of reciprocal cells 2x 2x 5

    FEWALD:  cpu time    0.0015: real time    0.0015


--------------------------------------- Iteration      1(   1)  ---------------------------------------


    POTLOK:  cpu time    0.0768: real time    0.0773
    SETDIJ:  cpu time    0.0060: real time    0.0061
     EDDAV:  cpu time   12.6076: real time   12.6657
 BZINTS: Fermi energy:    9.095551;  391.000000 electrons
         Band energy: 0.118335E+04;  BLOECHL correction:   -0.023047
       DOS:  cpu time    0.0133: real time    0.0134
    --------------------------------------------
      LOOP:  cpu time   12.7037: real time   12.7626

 eigenvalue-minimisations  :  5040
 total energy-change (2. order) : 0.2355555E+04  (-0.1799139E+05)
 number of electron     390.9999959 magnetization 
 augmentation part      390.9999959 magnetization 

 Free energy of the ion-electron system (eV)
  ---------------------------------------------------
  alpha Z        PSCENC =       742.98322119
  Ewald energy   TEWEN  =     96802.79936022
  -Hartree energ DENC   =   -134049.73397857
  -exchange      EXHF   =         0.00000000
  -V(xc)+E(xc)   XCENC  =      -450.74016697
  PAW double counting   =     38625.71433783   -37020.51577974
  entropy T*S    EENTRO =         0.00000000
  eigenvalues    EBANDS =      1183.35082050
  atomic energy  EATOM  =     36521.69671511
  Solvation  Ediel_sol  =         0.00000000
  ---------------------------------------------------
  free energy    TOTEN  =      2355.55452956 eV

  energy without entropy =     2355.55452956  energy(sigma->0) =     2355.55452956


--------------------------------------------------------------------------------------------------------




--------------------------------------- Iteration      1(   2)  ---------------------------------------


     EDDAV:  cpu time   11.6667: real time   11.7070
 BZINTS: Fermi energy:    1.327399;  391.000000 electrons
         Band energy:-0.119451E+04;  BLOECHL correction:   -0.015461
       DOS:  cpu time    0.0099: real time    0.0099
    --------------------------------------------
      LOOP:  cpu time   11.6765: real time   11.7169

 eigenvalue-minimisations  :  5320
 total energy-change (2. order) :-0.2377858E+04  (-0.2252607E+04)
 number of electron     390.9999959 magnetization 
 augmentation part      390.9999959 magnetization 

 Free energy of the ion-electron system (eV)
  ---------------------------------------------------
  alpha Z        PSCENC =       742.98322119
  Ewald energy   TEWEN  =     96802.79936022
  -Hartree energ DENC   =   -134049.73397857
  -exchange      EXHF   =         0.00000000
  -V(xc)+E(xc)   XCENC  =      -450.74016697
  PAW double counting   =     38625.71433783   -37020.51577974
  entropy T*S    EENTRO =         0.00000000
  eigenvalues    EBANDS =     -1194.50671890
  atomic energy  EATOM  =     36521.69671511
  Solvation  Ediel_sol  =         0.00000000
  ---------------------------------------------------
  free energy    TOTEN  =       -22.30300984 eV

  energy without entropy =      -22.30300984  energy(sigma->0) =      -22.30300984


--------------------------------------------------------------------------------------------------------




--------------------------------------- Iteration      1(   3)  ---------------------------------------


     EDDAV:  cpu time    8.4454: real time    8.4511
 BZINTS: Fermi energy:    0.814591;  391.000000 electrons
         Band energy:-0.126754E+04;  BLOECHL correction:   -0.018392
       DOS:  cpu time    0.0099: real time    0.0099
    --------------------------------------------
      LOOP:  cpu time    8.4552: real time    8.4610

 eigenvalue-minimisations  :  5740
 total energy-change (2. order) :-0.7303364E+02  (-0.7121130E+02)
 number of electron     390.9999959 magnetization 
 augmentation part      390.9999959 magnetization 

 Free energy of the ion-electron system (eV)
  ---------------------------------------------------
  alpha Z        PSCENC =       742.98322119
  Ewald energy   TEWEN  =     96802.79936022
  -Hartree energ DENC   =   -134049.73397857
  -exchange      EXHF   =         0.00000000
  -V(xc)+E(xc)   XCENC  =      -450.74016697
  PAW double counting   =     38625.71433783   -37020.51577974
  entropy T*S    EENTRO =         0.00000000
  eigenvalues    EBANDS =     -1267.54036236
  atomic energy  EATOM  =     36521.69671511
  Solvation  Ediel_sol  =         0.00000000
  ---------------------------------------------------
  free energy    TOTEN  =       -95.33665330 eV

  energy without entropy =      -95.33665330  energy(sigma->0) =      -95.33665330


--------------------------------------------------------------------------------------------------------




--------------------------------------- Iteration      1(   4)  ---------------------------------------


     EDDAV:  cpu time   12.4340: real time   12.4619
 BZINTS: Fermi energy:    0.803475;  391.000000 electrons
         Band energy:-0.126844E+04;  BLOECHL correction:   -0.018540
       DOS:  cpu time    0.0126: real time    0.0126
    --------------------------------------------
      LOOP:  cpu time   12.4466: real time   12.4746

 eigenvalue-minimisations  :  5964
 total energy-change (2. order) :-0.8970157E+00  (-0.8957502E+00)
 number of electron     390.9999959 magnetization 
 augmentation part      390.9999959 magnetization 

 Free energy of the ion-electron system (eV)
  ---------------------------------------------------
  alpha Z        PSCENC =       742.98322119
  Ewald energy   TEWEN  =     96802.79936022
  -Hartree energ DENC   =   -134049.73397857
  -exchange      EXHF   =         0.00000000
  -V(xc)+E(xc)   XCENC  =      -450.74016697
  PAW double counting   =     38625.71433783   -37020.51577974
  entropy T*S    EENTRO =         0.00000000
  eigenvalues    EBANDS =     -1268.43737803
  atomic energy  EATOM  =     36521.69671511
  Solvation  Ediel_sol  =         0.00000000
  ---------------------------------------------------
  free energy    TOTEN  =       -96.23366897 eV

  energy without entropy =      -96.23366897  energy(sigma->0) =      -96.23366897


--------------------------------------------------------------------------------------------------------




--------------------------------------- Iteration      1(   5)  ---------------------------------------


     EDDAV:  cpu time   13.3873: real time   13.4063
 BZINTS: Fermi energy:    0.803274;  391.000000 electrons
         Band energy:-0.126846E+04;  BLOECHL correction:   -0.018537
       DOS:  cpu time    0.0115: real time    0.0115
    --------------------------------------------
      LOOP:  cpu time   13.3988: real time   13.4178

 eigenvalue-minimisations  :  6300
 total energy-change (2. order) :-0.1832420E-01  (-0.1832861E-01)
 number of electron     390.9999959 magnetization 
 augmentation part      390.9999959 magnetization 

 Free energy of the ion-electron system (eV)
  ---------------------------------------------------
  alpha Z        PSCENC =       742.98322119
  Ewald energy   TEWEN  =     96802.79936022
  -Hartree energ DENC   =   -134049.73397857
  -exchange      EXHF   =         0.00000000
  -V(xc)+E(xc)   XCENC  =      -450.74016697
  PAW double counting   =     38625.71433783   -37020.51577974
  entropy T*S    EENTRO =         0.00000000
  eigenvalues    EBANDS =     -1268.45570223
  atomic energy  EATOM  =     36521.69671511
  Solvation  Ediel_sol  =         0.00000000
  ---------------------------------------------------
  free energy    TOTEN  =       -96.25199317 eV

  energy without entropy =      -96.25199317  energy(sigma->0) =      -96.25199317


--------------------------------------------------------------------------------------------------------




--------------------------------------- Iteration      1(   6)  ---------------------------------------


    EDDIAG:  cpu time    2.0662: real time    2.0672
  RMM-DIIS:  cpu time    6.4127: real time    6.4199
    ORTHCH:  cpu time    0.3765: real time    0.3765
 BZINTS: Fermi energy:    0.803270;  391.000000 electrons
         Band energy:-0.126846E+04;  BLOECHL correction:   -0.018536
       DOS:  cpu time    0.0107: real time    0.0107
    --------------------------------------------
      LOOP:  cpu time    8.8661: real time    8.8743

 eigenvalue-minimisations  :  4915
 total energy-change (2. order) :-0.4722016E-03  (-0.4724738E-03)
 number of electron     390.9999959 magnetization 
 augmentation part      390.9999959 magnetization 

 Free energy of the ion-electron system (eV)
  ---------------------------------------------------
  alpha Z        PSCENC =       742.98322119
  Ewald energy   TEWEN  =     96802.79936022
  -Hartree energ DENC   =   -134049.73397857
  -exchange      EXHF   =         0.00000000
  -V(xc)+E(xc)   XCENC  =      -450.74016697
  PAW double counting   =     38625.71433783   -37020.51577974
  entropy T*S    EENTRO =         0.00000000
  eigenvalues    EBANDS =     -1268.45617443
  atomic energy  EATOM  =     36521.69671511
  Solvation  Ediel_sol  =         0.00000000
  ---------------------------------------------------
  free energy    TOTEN  =       -96.25246537 eV

  energy without entropy =      -96.25246537  energy(sigma->0) =      -96.25246537


--------------------------------------------------------------------------------------------------------




--------------------------------------- Iteration      1(   7)  ---------------------------------------


    EDDIAG:  cpu time    2.0130: real time    2.0142
  RMM-DIIS:  cpu time    8.6447: real time    8.6550
    ORTHCH:  cpu time    0.3653: real time    0.3653
 BZINTS: Fermi energy:    0.803269;  391.000000 electrons
         Band energy:-0.126846E+04;  BLOECHL correction:   -0.018536
       DOS:  cpu time    0.0108: real time    0.0108
    --------------------------------------------
      LOOP:  cpu time   11.0338: real time   11.0453

 eigenvalue-minimisations  :  6868
 total energy-change (2. order) :-0.1570079E-03  (-0.1570414E-03)
 number of electron     390.9999959 magnetization 
 augmentation part      390.9999959 magnetization 

 Free energy of the ion-electron system (eV)
  ---------------------------------------------------
  alpha Z        PSCENC =       742.98322119
  Ewald energy   TEWEN  =     96802.79936022
  -Hartree energ DENC   =   -134049.73397857
  -exchange      EXHF   =         0.00000000
  -V(xc)+E(xc)   XCENC  =      -450.74016697
  PAW double counting   =     38625.71433783   -37020.51577974
  entropy T*S    EENTRO =         0.00000000
  eigenvalues    EBANDS =     -1268.45633144
  atomic energy  EATOM  =     36521.69671511
  Solvation  Ediel_sol  =         0.00000000
  ---------------------------------------------------
  free energy    TOTEN  =       -96.25262238 eV

  energy without entropy =      -96.25262238  energy(sigma->0) =      -96.25262238


--------------------------------------------------------------------------------------------------------




--------------------------------------- Iteration      1(   8)  ---------------------------------------


    EDDIAG:  cpu time    2.1070: real time    2.1071
  RMM-DIIS:  cpu time    5.8689: real time    5.8865
    ORTHCH:  cpu time    0.3708: real time    0.3708
 BZINTS: Fermi energy:    0.803269;  391.000000 electrons
         Band energy:-0.126846E+04;  BLOECHL correction:   -0.018536
       DOS:  cpu time    0.0107: real time    0.0107
    --------------------------------------------
      LOOP:  cpu time    8.3574: real time    8.3751

 eigenvalue-minimisations  :  3880
 total energy-change (2. order) :-0.5484413E-05  (-0.5430130E-05)
 number of electron     390.9999959 magnetization 
 augmentation part      390.9999959 magnetization 

 Free energy of the ion-electron system (eV)
  ---------------------------------------------------
  alpha Z        PSCENC =       742.98322119
  Ewald energy   TEWEN  =     96802.79936022
  -Hartree energ DENC   =   -134049.73397857
  -exchange      EXHF   =         0.00000000
  -V(xc)+E(xc)   XCENC  =      -450.74016697
  PAW double counting   =     38625.71433783   -37020.51577974
  entropy T*S    EENTRO =         0.00000000
  eigenvalues    EBANDS =     -1268.45633692
  atomic energy  EATOM  =     36521.69671511
  Solvation  Ediel_sol  =         0.00000000
  ---------------------------------------------------
  free energy    TOTEN  =       -96.25262786 eV

  energy without entropy =      -96.25262786  energy(sigma->0) =      -96.25262786


--------------------------------------------------------------------------------------------------------




 average (electrostatic) potential at core
  the test charge radii are     1.1249  1.2296
  (the norm of the test charge is              1.0000)
       1 -78.0926       2 -78.0762       3 -78.0761       4 -78.0762       5 -78.0777
       6 -78.0759       7 -78.0761       8 -78.0759       9 -78.0916      10 -78.3199
      11 -78.2915      12 -78.3198      13 -78.2915      14 -78.2913      15 -78.2996
      16 -78.3198      17 -78.2996      18 -78.2996      19 -78.2842      20 -78.3598
      21 -78.3598      22 -78.2693      23 -78.3598      24 -78.2693      25 -78.2842
      26 -78.2842      27 -78.2693      28 -78.0714      29 -78.0864      30 -78.0864
      31 -78.0864      32 -78.0863      33 -78.0864      34 -78.0863      35 -78.0717
      36 -42.5679
 
 
 
 E-fermi :   0.8033     XC(G=0):  -5.9031     alpha+bet : -5.5618

 Fermi energy:         0.8032687219

 k-point     1 :       0.0000    0.0000    0.0000
  band No.  band energies     occupation 
      1      -6.2967      2.00000
      2      -5.4267      2.00000
      3      -5.1573      2.00000
      4      -5.0298      2.00000
      5      -5.0241      2.00000
      6      -5.0241      2.00000
      7      -5.0196      2.00000
      8      -5.0164      2.00000
      9      -5.0164      2.00000
     10      -4.9941      2.00000
     11      -4.9779      2.00000
     12      -4.9774      2.00000
     13      -4.9773      2.00000
     14      -4.9745      2.00000
     15      -4.9710      2.00000
     16      -4.9710      2.00000
     17      -4.8208      2.00000
     18      -4.8135      2.00000
     19      -4.8135      2.00000
     20      -4.8076      2.00000
     21      -4.8037      2.00000
     22      -4.8036      2.00000
     23      -4.6428      2.00000
     24      -4.6266      2.00000
     25      -4.6266      2.00000
     26      -4.6232      2.00000
     27      -4.6077      2.00000
     28      -4.6077      2.00000
     29      -4.5918      2.00000
     30      -4.5916      2.00000
     31      -4.5655      2.00000
     32      -4.5655      2.00000
     33      -4.5599      2.00000
     34      -4.5599      2.00000
     35      -4.4914      2.00000
     36      -4.4679      2.00000
     37      -4.4678      2.00000
     38      -4.4608      2.00000
     39      -4.4025      2.00000
     40      -4.4025      2.00000
     41      -4.2405      2.00000
     42      -4.2405      2.00000
     43      -4.2352      2.00000
     44      -4.2235      2.00000
     45      -4.2235      2.00000
     46      -4.2120      2.00000
     47      -4.2120      2.00000
     48      -4.2102      2.00000
     49      -4.1868      2.00000
     50      -4.1868      2.00000
     51      -4.0750      2.00000
     52      -4.0695      2.00000
     53      -4.0427      2.00000
     54      -4.0213      2.00000
     55      -3.8672      2.00000
     56      -3.8464      2.00000
     57      -3.8464      2.00000
     58      -3.8438      2.00000
     59      -3.8424      2.00000
     60      -3.8423      2.00000
     61      -3.8328      2.00000
     62      -3.8090      2.00000
     63      -3.8090      2.00000
     64      -3.7714      2.00000
     65      -3.7714      2.00000
     66      -3.6799      2.00000
     67      -3.6799      2.00000
     68      -3.6796      2.00000
     69      -3.6707      2.00000
     70      -3.6707      2.00000
     71      -3.6632      2.00000
     72      -3.6574      2.00000
     73      -3.6574      2.00000
     74      -3.6357      2.00000
     75      -3.6357      2.00000
     76      -3.6179      2.00000
     77      -3.6100      2.00000
     78      -3.5945      2.00000
     79      -3.5945      2.00000
     80      -3.5838      2.00000
     81      -3.5838      2.00000
     82      -3.5735      2.00000
     83      -3.5340      2.00000
     84      -3.5340      2.00000
     85      -3.4695      2.00000
     86      -3.4694      2.00000
     87      -3.4624      2.00000
     88      -3.4489      2.00000
     89      -3.4489      2.00000
     90      -3.4264      2.00000
     91      -3.4264      2.00000
     92      -3.3849      2.00000
     93      -3.3849      2.00000
     94      -3.3665      2.00000
     95      -3.3611      2.00000
     96      -3.3611      2.00000
     97      -3.3470      2.00000
     98      -3.3470      2.00000
     99      -3.1418      2.00000
    100      -3.1418      2.00000
    101      -3.1296      2.00000
    102      -3.1203      2.00000
    103      -3.1203      2.00000
    104      -3.1102      2.00000
    105      -3.1102      2.00000
    106      -3.0961      2.00000
    107      -3.0816      2.00000
    108      -3.0508      2.00000
    109      -3.0507      2.00000
    110      -3.0012      2.00000
    111      -2.9969      2.00000
    112      -2.9691      2.00000
    113      -2.9690      2.00000
    114      -2.9413      2.00000
    115      -2.8784      2.00000
    116      -2.8784      2.00000
    117      -2.8484      2.00000
    118      -2.8484      2.00000
    119      -2.8203      2.00000
    120      -2.8203      2.00000
    121      -2.7759      2.00000
    122      -2.7739      2.00000
    123      -2.7739      2.00000
    124      -2.7613      2.00000
    125      -2.7612      2.00000
    126      -2.7383      2.00000
    127      -2.7353      2.00000
    128      -2.7350      2.00000
    129      -2.7349      2.00000
    130      -2.7299      2.00000
    131      -2.7299      2.00000
    132      -2.7222      2.00000
    133      -2.6252      2.00000
    134      -2.6252      2.00000
    135      -2.5558      2.00000
    136      -2.5551      2.00000
    137      -2.5551      2.00000
    138      -2.5336      2.00000
    139      -2.5304      2.00000
    140      -2.5304      2.00000
    141      -2.5265      2.00000
    142      -2.5265      2.00000
    143      -2.5103      2.00000
    144      -2.5101      2.00000
    145      -2.4986      2.00000
    146      -2.4986      2.00000
    147      -2.4715      2.00000
    148      -2.4508      2.00000
    149      -2.4377      2.00000
    150      -2.4359      2.00000
    151      -2.4359      2.00000
    152      -2.4274      2.00000
    153      -2.4274      2.00000
    154      -2.4095      2.00000
    155      -2.3876      2.00000
    156      -2.3876      2.00000
    157      -2.3726      2.00000
    158      -2.3621      2.00000
    159      -2.3621      2.00000
    160      -2.3612      2.00000
    161      -2.3526      2.00000
    162      -2.3394      2.00000
    163      -2.3373      2.00000
    164      -2.3373      2.00000
    165      -2.3196      2.00000
    166      -2.2943      2.00000
    167      -2.2943      2.00000
    168      -2.2818      2.00000
    169      -2.2714      2.00000
    170      -2.2714      2.00000
    171      -2.2380      2.00000
    172      -2.2379      2.00000
    173      -2.1748      2.00000
    174      -2.1748      2.00000
    175      -2.1503      2.00000
    176      -2.1478      2.00000
    177      -2.1478      2.00000
    178      -2.1334      2.00000
    179      -2.0627      2.00000
    180      -2.0393      2.00000
    181      -2.0393      2.00000
    182      -2.0291      2.00000
    183      -2.0291      2.00000
    184      -2.0192      2.00000
    185      -1.3003      2.00000
    186      -1.3002      2.00000
    187      -1.2653      2.00000
    188      -1.2490      2.00000
    189      -1.2490      2.00000
    190      -1.1314      2.00000
    191      -0.0764      2.00000
    192       0.2098      2.00000
    193       0.2709      2.00000
    194       0.2709      2.00000
    195       0.3721      2.00000
    196       0.3721      2.00000
    197       0.4735      2.00000
    198       0.8695      0.00000
    199       0.8695      0.00000
    200       0.9929      0.00000
    201       0.9929      0.00000
    202       1.1759      0.00000
    203       1.2780      0.00000
    204       2.6789      0.00000
    205       2.7103      0.00000
    206       2.7103      0.00000
    207       2.9125      0.00000
    208       3.0406      0.00000
    209       3.0406      0.00000
    210       4.0619      0.00000
    211       4.1859      0.00000
    212       4.2750      0.00000
    213       4.2750      0.00000
    214       4.3310      0.00000
    215       4.3310      0.00000
    216       4.9705      0.00000
    217       5.0558      0.00000
    218       5.0621      0.00000
    219       5.0621      0.00000
    220       5.0753      0.00000
    221       5.0753      0.00000
    222       5.0793      0.00000
    223       5.1744      0.00000
    224       5.1744      0.00000
    225       5.2091      0.00000
    226       5.3249      0.00000
    227       5.3753      0.00000
    228       5.3753      0.00000
    229       5.5654      0.00000
    230       6.4767      0.00000
    231       6.6601      0.00000
    232       6.6793      0.00000
    233       6.6793      0.00000
    234       6.8225      0.00000
    235       6.8503      0.00000
    236       6.8503      0.00000
    237       6.9412      0.00000
    238       7.0141      0.00000
    239       7.0141      0.00000
    240       7.0267      0.00000
    241       7.0268      0.00000
    242       7.0609      0.00000
    243       7.1800      0.00000
    244       7.3602      0.00000
    245       7.3709      0.00000
    246       7.3713      0.00000
    247       7.4347      0.00000
    248       7.4360      0.00000
    249       7.5064      0.00000
    250       7.7296      0.00000
    251       7.7424      0.00000
    252       7.7460      0.00000

 k-point     2 :       0.1250   -0.0000    0.0000
  band No.  band energies     occupation 
      1      -6.2506      2.00000
      2      -5.3859      2.00000
      3      -5.1245      2.00000
      4      -5.0832      2.00000
      5      -5.0481      2.00000
      6      -5.0221      2.00000
      7      -5.0218      2.00000
      8      -5.0174      2.00000
      9      -4.9987      2.00000
     10      -4.9917      2.00000
     11      -4.9836      2.00000
     12      -4.9786      2.00000
     13      -4.9432      2.00000
     14      -4.9185      2.00000
     15      -4.9082      2.00000
     16      -4.9056      2.00000
     17      -4.8898      2.00000
     18      -4.8589      2.00000
     19      -4.8562      2.00000
     20      -4.7500      2.00000
     21      -4.7450      2.00000
     22      -4.7007      2.00000
     23      -4.6952      2.00000
     24      -4.6819      2.00000
     25      -4.6805      2.00000
     26      -4.6430      2.00000
     27      -4.6342      2.00000
     28      -4.5818      2.00000
     29      -4.5811      2.00000
     30      -4.5672      2.00000
     31      -4.5542      2.00000
     32      -4.5463      2.00000
     33      -4.5213      2.00000
     34      -4.4810      2.00000
     35      -4.4777      2.00000
     36      -4.4750      2.00000
     37      -4.4602      2.00000
     38      -4.3917      2.00000
     39      -4.3584      2.00000
     40      -4.3559      2.00000
     41      -4.3021      2.00000
     42      -4.3014      2.00000
     43      -4.2848      2.00000
     44      -4.2572      2.00000
     45      -4.2505      2.00000
     46      -4.2492      2.00000
     47      -4.2337      2.00000
     48      -4.1832      2.00000
     49      -4.1721      2.00000
     50      -4.1405      2.00000
     51      -4.0604      2.00000
     52      -4.0513      2.00000
     53      -4.0251      2.00000
     54      -4.0245      2.00000
     55      -3.8840      2.00000
     56      -3.8788      2.00000
     57      -3.8692      2.00000
     58      -3.8519      2.00000
     59      -3.8395      2.00000
     60      -3.8388      2.00000
     61      -3.8340      2.00000
     62      -3.8159      2.00000
     63      -3.8122      2.00000
     64      -3.7902      2.00000
     65      -3.7543      2.00000
     66      -3.7345      2.00000
     67      -3.7034      2.00000
     68      -3.7033      2.00000
     69      -3.6975      2.00000
     70      -3.6894      2.00000
     71      -3.6567      2.00000
     72      -3.6527      2.00000
     73      -3.6515      2.00000
     74      -3.6437      2.00000
     75      -3.6302      2.00000
     76      -3.6273      2.00000
     77      -3.6098      2.00000
     78      -3.6024      2.00000
     79      -3.6008      2.00000
     80      -3.5727      2.00000
     81      -3.5665      2.00000
     82      -3.5555      2.00000
     83      -3.5545      2.00000
     84      -3.5464      2.00000
     85      -3.5360      2.00000
     86      -3.5256      2.00000
     87      -3.5122      2.00000
     88      -3.4888      2.00000
     89      -3.4802      2.00000
     90      -3.4440      2.00000
     91      -3.4362      2.00000
     92      -3.3917      2.00000
     93      -3.3791      2.00000
     94      -3.3540      2.00000
     95      -3.3295      2.00000
     96      -3.2745      2.00000
     97      -3.2534      2.00000
     98      -3.2533      2.00000
     99      -3.1948      2.00000
    100      -3.1882      2.00000
    101      -3.1656      2.00000
    102      -3.1577      2.00000
    103      -3.1315      2.00000
    104      -3.1290      2.00000
    105      -3.1178      2.00000
    106      -3.1046      2.00000
    107      -3.0926      2.00000
    108      -3.0447      2.00000
    109      -3.0442      2.00000
    110      -3.0185      2.00000
    111      -3.0155      2.00000
    112      -2.9639      2.00000
    113      -2.9623      2.00000
    114      -2.9367      2.00000
    115      -2.9232      2.00000
    116      -2.9026      2.00000
    117      -2.8992      2.00000
    118      -2.8838      2.00000
    119      -2.8761      2.00000
    120      -2.8735      2.00000
    121      -2.8337      2.00000
    122      -2.8272      2.00000
    123      -2.8160      2.00000
    124      -2.8098      2.00000
    125      -2.8037      2.00000
    126      -2.7845      2.00000
    127      -2.7669      2.00000
    128      -2.7542      2.00000
    129      -2.7461      2.00000
    130      -2.7233      2.00000
    131      -2.7194      2.00000
    132      -2.7044      2.00000
    133      -2.6980      2.00000
    134      -2.6753      2.00000
    135      -2.6647      2.00000
    136      -2.6333      2.00000
    137      -2.6275      2.00000
    138      -2.6155      2.00000
    139      -2.5906      2.00000
    140      -2.5721      2.00000
    141      -2.5505      2.00000
    142      -2.5372      2.00000
    143      -2.5279      2.00000
    144      -2.5217      2.00000
    145      -2.5059      2.00000
    146      -2.4950      2.00000
    147      -2.4833      2.00000
    148      -2.4674      2.00000
    149      -2.4626      2.00000
    150      -2.4560      2.00000
    151      -2.4488      2.00000
    152      -2.4426      2.00000
    153      -2.4345      2.00000
    154      -2.4183      2.00000
    155      -2.4131      2.00000
    156      -2.4078      2.00000
    157      -2.4048      2.00000
    158      -2.3842      2.00000
    159      -2.3799      2.00000
    160      -2.3594      2.00000
    161      -2.3593      2.00000
    162      -2.3519      2.00000
    163      -2.3315      2.00000
    164      -2.3058      2.00000
    165      -2.3009      2.00000
    166      -2.2904      2.00000
    167      -2.2708      2.00000
    168      -2.2634      2.00000
    169      -2.2471      2.00000
    170      -2.2400      2.00000
    171      -2.2080      2.00000
    172      -2.1963      2.00000
    173      -2.1958      2.00000
    174      -2.1715      2.00000
    175      -2.1677      2.00000
    176      -2.1661      2.00000
    177      -2.1427      2.00000
    178      -2.1351      2.00000
    179      -2.1309      2.00000
    180      -2.1083      2.00000
    181      -2.0975      2.00000
    182      -1.8163      2.00000
    183      -1.5906      2.00000
    184      -1.5860      2.00000
    185      -1.4847      2.00000
    186      -1.4729      2.00000
    187      -1.3164      2.00000
    188      -0.8822      2.00000
    189      -0.7856      2.00000
    190      -0.5375      2.00000
    191      -0.1666      2.00000
    192      -0.0243      2.00000
    193       0.1048      2.00000
    194       0.1366      2.00000
    195       0.4992      2.00000
    196       0.5474      2.00000
    197       0.7459      2.00000
    198       0.8785      0.00000
    199       0.9184      0.00000
    200       1.1003      0.00000
    201       1.1215      0.00000
    202       1.3205      0.00000
    203       1.4013      0.00000
    204       2.2770      0.00000
    205       2.6176      0.00000
    206       2.6365      0.00000
    207       3.1019      0.00000
    208       3.1847      0.00000
    209       3.2533      0.00000
    210       3.2651      0.00000
    211       3.4370      0.00000
    212       4.1403      0.00000
    213       4.1502      0.00000
    214       4.3769      0.00000
    215       4.3977      0.00000
    216       4.4671      0.00000
    217       4.8272      0.00000
    218       4.8521      0.00000
    219       5.0104      0.00000
    220       5.1203      0.00000
    221       5.1358      0.00000
    222       5.2115      0.00000
    223       5.2923      0.00000
    224       5.3510      0.00000
    225       5.4726      0.00000
    226       5.4789      0.00000
    227       5.6232      0.00000
    228       5.7632      0.00000
    229       5.8536      0.00000
    230       6.2505      0.00000
    231       6.4437      0.00000
    232       6.5162      0.00000
    233       6.5219      0.00000
    234       6.5900      0.00000
    235       6.6894      0.00000
    236       6.7224      0.00000
    237       6.7369      0.00000
    238       6.8248      0.00000
    239       6.8476      0.00000
    240       6.9111      0.00000
    241       6.9530      0.00000
    242       7.0849      0.00000
    243       7.1467      0.00000
    244       7.3257      0.00000
    245       7.3486      0.00000
    246       7.3704      0.00000
    247       7.3967      0.00000
    248       7.4266      0.00000
    249       7.4711      0.00000
    250       7.8002      0.00000
    251       7.8168      0.00000
    252       7.8870      0.00000

 k-point     3 :       0.2500   -0.0000    0.0000
  band No.  band energies     occupation 
      1      -6.1151      2.00000
      2      -5.2696      2.00000
      3      -5.1527      2.00000
      4      -5.1173      2.00000
      5      -5.0921      2.00000
      6      -5.0290      2.00000
      7      -5.0017      2.00000
      8      -4.9890      2.00000
      9      -4.9850      2.00000
     10      -4.9635      2.00000
     11      -4.9556      2.00000
     12      -4.9153      2.00000
     13      -4.9109      2.00000
     14      -4.8835      2.00000
     15      -4.8778      2.00000
     16      -4.8450      2.00000
     17      -4.8207      2.00000
     18      -4.7890      2.00000
     19      -4.7838      2.00000
     20      -4.7717      2.00000
     21      -4.7716      2.00000
     22      -4.7536      2.00000
     23      -4.6805      2.00000
     24      -4.6745      2.00000
     25      -4.6331      2.00000
     26      -4.6266      2.00000
     27      -4.6221      2.00000
     28      -4.6114      2.00000
     29      -4.6046      2.00000
     30      -4.5894      2.00000
     31      -4.5000      2.00000
     32      -4.4911      2.00000
     33      -4.4727      2.00000
     34      -4.4591      2.00000
     35      -4.4462      2.00000
     36      -4.4342      2.00000
     37      -4.4201      2.00000
     38      -4.3484      2.00000
     39      -4.3398      2.00000
     40      -4.3354      2.00000
     41      -4.2989      2.00000
     42      -4.2895      2.00000
     43      -4.2831      2.00000
     44      -4.2786      2.00000
     45      -4.2732      2.00000
     46      -4.2721      2.00000
     47      -4.2476      2.00000
     48      -4.1727      2.00000
     49      -4.1605      2.00000
     50      -4.1153      2.00000
     51      -4.1009      2.00000
     52      -4.0833      2.00000
     53      -4.0265      2.00000
     54      -4.0160      2.00000
     55      -3.9429      2.00000
     56      -3.9255      2.00000
     57      -3.9219      2.00000
     58      -3.9103      2.00000
     59      -3.8994      2.00000
     60      -3.8818      2.00000
     61      -3.8644      2.00000
     62      -3.8609      2.00000
     63      -3.8318      2.00000
     64      -3.7951      2.00000
     65      -3.7779      2.00000
     66      -3.7695      2.00000
     67      -3.7358      2.00000
     68      -3.7320      2.00000
     69      -3.7294      2.00000
     70      -3.7270      2.00000
     71      -3.7111      2.00000
     72      -3.6968      2.00000
     73      -3.6920      2.00000
     74      -3.6715      2.00000
     75      -3.6350      2.00000
     76      -3.6204      2.00000
     77      -3.6129      2.00000
     78      -3.6122      2.00000
     79      -3.6029      2.00000
     80      -3.5961      2.00000
     81      -3.5848      2.00000
     82      -3.5640      2.00000
     83      -3.5559      2.00000
     84      -3.5423      2.00000
     85      -3.5386      2.00000
     86      -3.5218      2.00000
     87      -3.5080      2.00000
     88      -3.5013      2.00000
     89      -3.4514      2.00000
     90      -3.4512      2.00000
     91      -3.4136      2.00000
     92      -3.3916      2.00000
     93      -3.3893      2.00000
     94      -3.3784      2.00000
     95      -3.3439      2.00000
     96      -3.3166      2.00000
     97      -3.2849      2.00000
     98      -3.2844      2.00000
     99      -3.2159      2.00000
    100      -3.2126      2.00000
    101      -3.1745      2.00000
    102      -3.1655      2.00000
    103      -3.1651      2.00000
    104      -3.1539      2.00000
    105      -3.1318      2.00000
    106      -3.1176      2.00000
    107      -3.1143      2.00000
    108      -3.1028      2.00000
    109      -3.0946      2.00000
    110      -3.0755      2.00000
    111      -3.0563      2.00000
    112      -3.0444      2.00000
    113      -3.0411      2.00000
    114      -3.0337      2.00000
    115      -3.0027      2.00000
    116      -3.0014      2.00000
    117      -2.9772      2.00000
    118      -2.9607      2.00000
    119      -2.9576      2.00000
    120      -2.9371      2.00000
    121      -2.9209      2.00000
    122      -2.9200      2.00000
    123      -2.9125      2.00000
    124      -2.8923      2.00000
    125      -2.8910      2.00000
    126      -2.8691      2.00000
    127      -2.8128      2.00000
[...]
  0.000   0.000   0.000   2.000   0.000   0.000   0.000   0.000   0.000   0.000   0.000   0.000   0.000   0.000   0.000   0.000
  0.000   0.000   0.000   0.000   2.000   0.000   0.000   0.000   0.000   0.000   0.000   0.000   0.000   0.000   0.000   0.000
  0.000   0.000   0.000   0.000   0.000   0.000   0.000   0.000   0.000   0.000   0.000   0.000   0.000   0.000   0.000   0.000
  0.000   0.000   0.000   0.000   0.000   0.000   0.000   0.000   0.000   0.000   0.000   0.000   0.000   0.000   0.000   0.000
  0.000   0.000   0.000   0.000   0.000   0.000   0.000   0.000   0.000   0.000   0.000   0.000   0.000   0.000   0.000   0.000
  0.000   0.000   0.000   0.000   0.000   0.000   0.000   0.000   0.000   0.000   0.000   0.000   0.000   0.000   0.000   0.000
  0.000   0.000   0.000   0.000   0.000   0.000   0.000   0.000   0.000   0.000   0.000   0.000   0.000   0.000   0.000   0.000
  0.000   0.000   0.000   0.000   0.000   0.000   0.000   0.000   0.000   0.000   1.000   0.000   0.000   0.000   0.000   0.000
  0.000   0.000   0.000   0.000   0.000   0.000   0.000   0.000   0.000   0.000   0.000   0.000   0.000   0.000   0.000   0.000
  0.000   0.000   0.000   0.000   0.000   0.000   0.000   0.000   0.000   0.000   0.000   0.000   0.000   0.000   0.000   0.000
  0.000   0.000   0.000   0.000   0.000   0.000   0.000   0.000   0.000   0.000   0.000   0.000   0.000   0.000   0.000   0.000
  0.000   0.000   0.000   0.000   0.000   0.000   0.000   0.000   0.000   0.000   0.000   0.000   0.000   0.000   0.000   0.000
  0.000   0.000   0.000   0.000   0.000   0.000   0.000   0.000   0.000   0.000   0.000   0.000   0.000   0.000   0.000   0.000
  0.000   0.000   0.000   0.000   0.000   0.000   0.000   0.000   0.000   0.000   0.000   0.000   0.000   0.000   0.000   0.000
  0.000   0.000   0.000   0.000   0.000   0.000   0.000   0.000   0.000   0.000   0.000   0.000   0.000   0.000   0.000   0.000


------------------------ aborting loop because EDIFF is reached ----------------------------------------





 total charge

# of ion       s       p       d       tot
------------------------------------------
    1        0.421   0.201   9.177   9.799
    2        0.415   0.203   9.178   9.796
    3        0.415   0.203   9.178   9.796
    4        0.415   0.203   9.178   9.796
    5        0.418   0.202   9.175   9.795
    6        0.415   0.203   9.178   9.796
    7        0.415   0.203   9.178   9.796
    8        0.415   0.203   9.178   9.796
    9        0.417   0.201   9.178   9.796
   10        0.410   0.269   9.161   9.841
   11        0.407   0.267   9.169   9.843
   12        0.410   0.269   9.161   9.841
   13        0.407   0.267   9.169   9.843
   14        0.407   0.267   9.169   9.843
   15        0.405   0.267   9.166   9.837
   16        0.410   0.269   9.161   9.841
   17        0.405   0.267   9.166   9.837
   18        0.405   0.267   9.166   9.837
   19        0.402   0.265   9.167   9.834
   20        0.436   0.304   9.134   9.875
   21        0.436   0.304   9.134   9.875
   22        0.393   0.271   9.168   9.833
   23        0.436   0.304   9.134   9.875
   24        0.393   0.271   9.168   9.833
   25        0.402   0.265   9.167   9.834
   26        0.402   0.265   9.167   9.834
   27        0.393   0.271   9.168   9.833
   28        0.412   0.201   9.175   9.788
   29        0.437   0.218   9.155   9.810
   30        0.437   0.218   9.155   9.810
   31        0.437   0.218   9.155   9.810
   32        0.437   0.218   9.155   9.810
   33        0.437   0.218   9.155   9.810
   34        0.437   0.218   9.155   9.810
   35        0.402   0.202   9.179   9.782
   36        0.389   0.233   4.116   4.738
--------------------------------------------------
tot         14.931   8.699 324.890 348.520
 
    CHARGE:  cpu time    0.5634: real time    0.5637
    FORLOC:  cpu time    0.0096: real time    0.0096
    FORNL :  cpu time    2.4825: real time    2.4827
    STRESS:  cpu time    7.3664: real time    7.3799
    FORCOR:  cpu time    0.0689: real time    0.0690
    FORHAR:  cpu time    0.0213: real time    0.0213
    OFIELD:  cpu time    0.0004: real time    0.0004

  FORCE on cell =-STRESS in cart. coord.  units (eV):
  Direction    XX          YY          ZZ          XY          YZ          ZX
  --------------------------------------------------------------------------------------
  Alpha Z   742.98322   742.98322   742.98322
  Ewald  119259.94133119259.94122************    -0.00001    -0.00001    -0.00002
  Hartree129286.91805129286.91801************    -0.00001    -0.00000    -0.00001
  E(xc)   -2055.49621 -2055.49620 -2061.61418    -0.00001     0.00000     0.00000
  Local  ************************259784.33636     0.00024    -0.00002    -0.00003
  n-local  -346.26034  -327.03345  -342.47038    10.70944    -0.28574     0.29154
  augment  3227.65654  3227.65670  3241.00455    -0.00013     0.00001     0.00002
  Kinetic  4833.83198  4840.85378  4874.61232     5.21617     0.42484     0.16505
  Fock        0.00000     0.00000     0.00000     0.00000     0.00000     0.00000
  -------------------------------------------------------------------------------------
  Total      -9.60481    -9.60481     0.28275    -0.00000     0.00000    -0.00000
  in kB     -10.36648   -10.36648     0.30517    -0.00000     0.00000    -0.00000
  external pressure =       -6.81 kB  Pullay stress =        0.00 kB


 VOLUME and BASIS-vectors are now :
 -----------------------------------------------------------------------------
  energy-cutoff  :      500.00
  volume of cell :     1484.46
      direct lattice vectors                 reciprocal lattice vectors
     8.791366577  0.000000000  0.000000000     0.113747958 -0.065672414  0.000000000
     4.395683289  7.613546790  0.000000000     0.000000000  0.131344829  0.000000000
     0.000000000  0.000000000 22.178121567     0.000000000  0.000000000  0.045089481

  length of vectors
     8.791366577  8.791366577 22.178121567     0.131344829  0.131344829  0.045089481


 FORCES acting on ions
    electron-ion (+dipol)            ewald-force                    non-local-force                 convergence-correction
 -----------------------------------------------------------------------------------------------
   0.460E-04 -.282E-04 0.248E+04   -.953E-04 0.593E-04 -.248E+04   0.158E-18 0.136E-17 -.202E+01   -.832E-04 -.155E-03 0.365E-01
   -.276E+00 0.712E-02 0.248E+04   -.188E-03 -.101E+00 -.248E+04   0.130E+00 0.129E+00 -.154E+01   0.135E+00 -.338E-01 0.638E-01
   0.276E+00 0.711E-02 0.248E+04   0.313E-03 -.101E+00 -.248E+04   -.130E+00 0.129E+00 -.154E+01   -.136E+00 -.319E-01 0.644E-01
   -.132E+00 -.243E+00 0.248E+04   -.879E-01 0.505E-01 -.248E+04   0.177E+00 0.486E-01 -.154E+01   0.384E-01 0.134E+00 0.638E-01
   -.775E-05 -.200E-04 0.248E+04   0.980E-04 -.198E-05 -.248E+04   0.222E-17 0.106E-17 -.125E+01   0.618E-02 0.378E-02 0.204E+00
   0.132E+00 -.243E+00 0.248E+04   0.877E-01 0.504E-01 -.248E+04   -.177E+00 0.486E-01 -.154E+01   -.398E-01 0.135E+00 0.645E-01
   0.144E+00 0.236E+00 0.248E+04   -.877E-01 0.508E-01 -.248E+04   0.463E-01 -.177E+00 -.154E+01   -.949E-01 -.101E+00 0.644E-01
   -.144E+00 0.236E+00 0.248E+04   0.876E-01 0.507E-01 -.248E+04   -.463E-01 -.177E+00 -.154E+01   0.965E-01 -.102E+00 0.645E-01
   0.365E-04 -.131E-04 0.248E+04   0.792E-04 -.643E-04 -.248E+04   -.138E-17 -.592E-18 -.173E+01   -.663E-02 -.341E-02 0.334E-01
   0.142E+01 0.818E+00 0.800E+03   -.103E+01 -.597E+00 -.799E+03   -.431E+00 -.249E+00 -.902E+00   0.596E-01 0.344E-01 -.533E-02
   -.284E-04 0.106E+01 0.798E+03   0.405E-04 -.124E+01 -.798E+03   0.879E-12 0.134E+00 -.186E+00   0.617E-02 -.407E-03 -.165E-02
   -.142E+01 0.818E+00 0.800E+03   0.103E+01 -.597E+00 -.799E+03   0.431E+00 -.249E+00 -.902E+00   -.609E-01 0.351E-01 -.621E-02
   0.916E+00 -.529E+00 0.798E+03   -.107E+01 0.619E+00 -.798E+03   0.116E+00 -.669E-01 -.186E+00   0.262E-02 0.558E-02 -.166E-02
   -.916E+00 -.529E+00 0.798E+03   0.107E+01 0.619E+00 -.798E+03   -.116E+00 -.669E-01 -.186E+00   0.768E-02 0.468E-02 -.334E-02
   0.154E-04 -.382E-01 0.799E+03   -.108E-03 -.200E+00 -.798E+03   0.728E-12 0.111E+00 -.740E+00   -.126E-02 0.107E+00 -.124E-01
   -.816E-05 -.164E+01 0.800E+03   0.205E-04 0.119E+01 -.799E+03   0.327E-11 0.498E+00 -.902E+00   -.939E-04 -.703E-01 -.620E-02
   -.331E-01 0.191E-01 0.799E+03   -.173E+00 0.999E-01 -.798E+03   0.960E-01 -.554E-01 -.740E+00   0.917E-01 -.544E-01 -.124E-01
   0.331E-01 0.191E-01 0.799E+03   0.173E+00 0.100E+00 -.798E+03   -.960E-01 -.554E-01 -.740E+00   -.915E-01 -.529E-01 -.116E-01
   0.391E-04 -.486E+01 -.894E+03   -.125E-03 0.463E+01 0.893E+03   0.782E-12 0.119E+00 0.698E+00   0.108E-02 0.107E+00 0.170E+00
   -.192E+02 -.111E+02 -.907E+03   0.207E+02 0.119E+02 0.908E+03   -.141E+01 -.813E+00 -.132E+01   -.402E-01 -.231E-01 0.130E+00
   0.192E+02 -.111E+02 -.907E+03   -.207E+02 0.119E+02 0.908E+03   0.141E+01 -.813E+00 -.132E+01   0.293E-01 -.236E-01 0.129E+00
   -.126E+02 0.730E+01 -.894E+03   0.124E+02 -.714E+01 0.894E+03   0.304E+00 -.175E+00 0.345E+00   -.113E-01 0.691E-02 0.138E+00
   -.515E-04 0.222E+02 -.907E+03   0.377E-04 -.239E+02 0.908E+03   0.107E-10 0.163E+01 -.132E+01   -.551E-02 0.378E-01 0.129E+00
   0.126E+02 0.730E+01 -.894E+03   -.124E+02 -.714E+01 0.894E+03   -.304E+00 -.175E+00 0.345E+00   0.129E-01 0.754E-02 0.138E+00
   0.421E+01 0.243E+01 -.894E+03   -.401E+01 -.232E+01 0.893E+03   -.103E+00 -.596E-01 0.698E+00   -.930E-01 -.539E-01 0.170E+00
   -.421E+01 0.243E+01 -.894E+03   0.401E+01 -.232E+01 0.893E+03   0.103E+00 -.596E-01 0.698E+00   0.932E-01 -.529E-01 0.170E+00
   0.196E-04 -.146E+02 -.894E+03   0.110E-03 0.143E+02 0.894E+03   0.230E-11 0.351E+00 0.345E+00   -.319E-03 -.132E-01 0.138E+00
   0.536E-04 -.362E-04 -.250E+04   -.113E-03 0.766E-04 0.250E+04   -.157E-16 0.113E-16 0.178E+01   0.292E-03 0.347E-04 0.681E-01
   -.215E+02 -.377E+02 -.251E+04   0.224E+02 0.393E+02 0.251E+04   -.106E+01 -.160E+01 0.111E+01   0.133E+00 0.346E-01 0.130E+00
   0.215E+02 -.377E+02 -.251E+04   -.224E+02 0.393E+02 0.251E+04   0.106E+01 -.160E+01 0.111E+01   -.134E+00 0.354E-01 0.130E+00
   -.434E+02 0.269E+00 -.251E+04   0.452E+02 -.253E+00 0.251E+04   -.192E+01 -.114E+00 0.111E+01   0.966E-01 0.980E-01 0.130E+00
   0.434E+02 0.269E+00 -.251E+04   -.452E+02 -.254E+00 0.251E+04   0.192E+01 -.114E+00 0.111E+01   -.965E-01 0.989E-01 0.131E+00
   -.219E+02 0.374E+02 -.251E+04   0.228E+02 -.390E+02 0.251E+04   -.860E+00 0.172E+01 0.111E+01   -.358E-01 -.133E+00 0.130E+00
   0.219E+02 0.374E+02 -.251E+04   -.228E+02 -.390E+02 0.251E+04   0.860E+00 0.172E+01 0.111E+01   0.370E-01 -.133E+00 0.131E+00
   0.269E-04 -.137E-04 -.250E+04   0.103E-03 -.647E-04 0.250E+04   -.402E-17 -.469E-18 0.211E+01   -.630E-02 -.320E-02 0.155E+00
   -.263E-04 -.350E-05 -.133E+04   0.573E-04 0.696E-05 0.133E+04   0.176E-16 0.247E-17 0.307E+01   0.435E-03 0.268E-03 0.151E+00
 -----------------------------------------------------------------------------------------------
   0.294E-03 -.705E-03 0.393E+01   -.434E-13 -.656E-13 -.139E-10   -.653E-15 -.220E-15 -.697E+01   -.579E-02 -.152E-03 0.307E+01
 
 
 POSITION                                       TOTAL-FORCE (eV/Angst)
 -----------------------------------------------------------------------------------
      0.00000      0.00000      5.28219        -0.000000     -0.000000     -0.046263
      2.93046      0.00000      5.28219        -0.010607      0.001759      0.022995
      5.86091      0.00000      5.28219         0.010607      0.001759      0.022995
      1.46523      2.53785      5.28219        -0.003780     -0.010065      0.022995
      4.39568      2.53785      5.28219        -0.000000     -0.000000     -0.000852
      7.32614      2.53785      5.28219         0.003780     -0.010065      0.022995
      2.93046      5.07570      5.28219         0.006827      0.008306      0.022995
      5.86091      5.07570      5.28219        -0.006827      0.008306      0.022995
      8.79137      5.07570      5.28219        -0.000000     -0.000000      0.002175
      1.46523      0.84595      7.67490         0.011392      0.006577     -0.018978
      4.39568      0.84595      7.67490        -0.000000     -0.049665     -0.064972
      7.32614      0.84595      7.67490        -0.011392      0.006577     -0.018978
      2.93046      3.38380      7.67490        -0.043011      0.024833     -0.064972
      5.86091      3.38380      7.67490         0.043011      0.024833     -0.064972
      8.79137      3.38380      7.67490        -0.000000     -0.021081      0.015745
      4.39568      5.92165      7.67490        -0.000000     -0.013154     -0.018978
      7.32614      5.92165      7.67490        -0.018256      0.010540      0.015745
     10.25659      5.92165      7.67490         0.018256      0.010540      0.015745
      8.79137      1.69286     10.06155         0.000000      0.001369      0.001049
      2.93202      1.69280     10.03008         0.002382      0.001375      0.002185
      5.85935      1.69280     10.03008        -0.002382      0.001375      0.002185
     10.25345      4.23157     10.06207         0.004641     -0.002680     -0.006511
      4.39568      4.22795     10.03008        -0.000000     -0.002751      0.002185
      7.32929      4.23157     10.06207        -0.004641     -0.002680     -0.006511
     11.72099      6.76712     10.06155        -0.001186     -0.000684      0.001049
      5.86174      6.76712     10.06155         0.001186     -0.000684      0.001049
      8.79137      6.76396     10.06207         0.000000      0.005359     -0.006511
      0.00000      0.00000     12.43674        -0.000000     -0.000000      0.026407
      2.95191      0.04038     12.46589        -0.003353     -0.004598      0.013570
      5.83946      0.04038     12.46589         0.003353     -0.004598      0.013570
      1.51092      2.53624     12.46589        -0.005659     -0.000605      0.013570
      7.28044      2.53624     12.46589         0.005659     -0.000605      0.013570
      2.95470      5.03693     12.46589        -0.002305      0.005203      0.013570
      5.83667      5.03693     12.46589         0.002305      0.005203      0.013570
      8.79137      5.07570     12.43630        -0.000000     -0.000000      0.018182
      4.39568      2.53785     12.24527        -0.000000     -0.000000     -0.004601
 -----------------------------------------------------------------------------------
    total drift:                               -0.005497     -0.000857      0.032503


--------------------------------------------------------------------------------------------------------



  FREE ENERGIE OF THE ION-ELECTRON SYSTEM (eV)
  ---------------------------------------------------
  free  energy   TOTEN  =       -96.25262786 eV

  energy  without entropy=      -96.25262786  energy(sigma->0) =      -96.25262786
 


--------------------------------------------------------------------------------------------------------


    POTLOK:  cpu time    0.0589: real time    0.0589


--------------------------------------------------------------------------------------------------------


 stress matrix after NEB project (eV)
     -9.60481     -0.00000     -0.00000
     -0.00000     -9.60481      0.00000
      0.00000      0.00000      0.28275
  FORCES: max atom, RMS     0.026407    0.008511
  FORCE total and by dimension    0.051065    0.026407
  Stress total and by dimension   13.586202    9.604815
     LOOP+:  cpu time   97.5660: real time   97.7770
 -----------------------------------------------------------------------------
|                                                                             |
|           W    W    AA    RRRRR   N    N  II  N    N   GGGG   !!!           |
|           W    W   A  A   R    R  NN   N  II  NN   N  G    G  !!!           |
|           W    W  A    A  R    R  N N  N  II  N N  N  G       !!!           |
|           W WW W  AAAAAA  RRRRR   N  N N  II  N  N N  G  GGG   !            |
|           WW  WW  A    A  R   R   N   NN  II  N   NN  G    G                |
|           W    W  A    A  R    R  N    N  II  N    N   GGGG   !!!           |
|                                                                             |
|     Tetrahedron method does not include variations of the Fermi             |
|     occupations, so forces and stress will be inaccurate. We suggest        |
|     using a different smearing scheme ISMEAR = 1 or 2 for metals in         |
|     relaxations.                                                            |
|                                                                             |
 -----------------------------------------------------------------------------

    4ORBIT:  cpu time    0.0000: real time    0.0000



 total charge

# of ion       s       p       d       tot
------------------------------------------
    1        0.421   0.201   9.177   9.799
    2        0.415   0.203   9.178   9.796
    3        0.415   0.203   9.178   9.796
    4        0.415   0.203   9.178   9.796
    5        0.418   0.202   9.175   9.795
    6        0.415   0.203   9.178   9.796
    7        0.415   0.203   9.178   9.796
    8        0.415   0.203   9.178   9.796
    9        0.417   0.201   9.178   9.796
   10        0.410   0.269   9.161   9.841
   11        0.407   0.267   9.169   9.843
   12        0.410   0.269   9.161   9.841
   13        0.407   0.267   9.169   9.843
   14        0.407   0.267   9.169   9.843
   15        0.405   0.267   9.166   9.837
   16        0.410   0.269   9.161   9.841
   17        0.405   0.267   9.166   9.837
   18        0.405   0.267   9.166   9.837
   19        0.402   0.265   9.167   9.834
   20        0.436   0.304   9.134   9.875
   21        0.436   0.304   9.134   9.875
   22        0.393   0.271   9.168   9.833
   23        0.436   0.304   9.134   9.875
   24        0.393   0.271   9.168   9.833
   25        0.402   0.265   9.167   9.834
   26        0.402   0.265   9.167   9.834
   27        0.393   0.271   9.168   9.833
   28        0.412   0.201   9.175   9.788
   29        0.437   0.218   9.155   9.810
   30        0.437   0.218   9.155   9.810
   31        0.437   0.218   9.155   9.810
   32        0.437   0.218   9.155   9.810
   33        0.437   0.218   9.155   9.810
   34        0.437   0.218   9.155   9.810
   35        0.402   0.202   9.179   9.782
   36        0.389   0.233   4.116   4.738
--------------------------------------------------
tot         14.931   8.699 324.890 348.520
 
 BZINTS: Fermi energy:    0.803269;  391.000000 electrons
         Band energy:-0.126846E+04;  BLOECHL correction:   -0.018536

 total amount of memory used by VASP MPI-rank0   122578. kBytes
=======================================================================

   base      :      30000. kBytes
   nonlr-proj:      15272. kBytes
   fftplans  :       4330. kBytes
   grid      :      17098. kBytes
   one-center:        559. kBytes
   wavefun   :      55319. kBytes
 
  
  
 General timing and accounting informations for this job:
 ========================================================
  
                  Total CPU time used (sec):      106.176
                            User time (sec):      102.806
                          System time (sec):        3.370
                         Elapsed time (sec):      106.943
  
                   Maximum memory used (kb):      379604.
                   Average memory used (kb):          N/A
  
                          Minor page faults:        69432
                          Major page faults:            0
                 Voluntary context switches:         6020
