PROCAR new format
# of k-points:   10         # of bands:  252         # of ions:   36

 k-point     1 :    0.00000000 0.00000000 0.00000000     weight = 0.01562500

band     1 # energy   -6.29670050 # occ.  2.00000000
 
ion      s      p      d    tot
    1  0.006  0.001  0.000  0.007
    2  0.006  0.001  0.000  0.007
    3  0.006  0.001  0.000  0.007
    4  0.006  0.001  0.000  0.007
    5  0.006  0.001  0.000  0.007
    6  0.006  0.001  0.000  0.007
    7  0.006  0.001  0.000  0.007
    8  0.006  0.001  0.000  0.007
    9  0.006  0.001  0.000  0.007
   10  0.024  0.000  0.000  0.025
   11  0.024  0.000  0.000  0.025
   12  0.024  0.000  0.000  0.025
   13  0.024  0.000  0.000  0.025
   14  0.024  0.000  0.000  0.025
   15  0.024  0.000  0.000  0.024
   16  0.024  0.000  0.000  0.025
   17  0.024  0.000  0.000  0.024
   18  0.024  0.000  0.000  0.024
   19  0.022  0.000  0.000  0.023
   20  0.023  0.000  0.000  0.023
   21  0.023  0.000  0.000  0.023
   22  0.022  0.000  0.000  0.023
   23  0.023  0.000  0.000  0.023
   24  0.022  0.000  0.000  0.023
   25  0.022  0.000  0.000  0.023
   26  0.022  0.000  0.000  0.023
   27  0.022  0.000  0.000  0.023
   28  0.005  0.001  0.000  0.006
   29  0.005  0.001  0.000  0.006
   30  0.005  0.001  0.000  0.006
   31  0.005  0.001  0.000  0.006
   32  0.005  0.001  0.000  0.006
   33  0.005  0.001  0.000  0.006
   34  0.005  0.001  0.000  0.006
   35  0.005  0.001  0.000  0.006
   36  0.007  0.001  0.000  0.007
tot    0.525  0.013  0.006  0.543
 
band     2 # energy   -5.42672423 # occ.  2.00000000
 
ion      s      p      d    tot
    1  0.008  0.000  0.000  0.009
    2  0.008  0.000  0.000  0.009
    3  0.008  0.000  0.000  0.009
    4  0.008  0.000  0.000  0.009
    5  0.008  0.000  0.000  0.009
    6  0.008  0.000  0.000  0.009
    7  0.008  0.000  0.000  0.009
    8  0.008  0.000  0.000  0.009
    9  0.008  0.000  0.000  0.009
   10  0.011  0.001  0.015  0.027
   11  0.010  0.001  0.015  0.026
   12  0.011  0.001  0.015  0.027
   13  0.010  0.001  0.015  0.026
   14  0.010  0.001  0.015  0.026
   15  0.010  0.001  0.014  0.025
   16  0.011  0.001  0.015  0.027
   17  0.010  0.001  0.014  0.025
   18  0.010  0.001  0.014  0.025
   19  0.013  0.001  0.016  0.030
   20  0.012  0.001  0.018  0.031
   21  0.012  0.001  0.018  0.031
   22  0.013  0.001  0.015  0.029
   23  0.012  0.001  0.018  0.031
   24  0.013  0.001  0.015  0.029
   25  0.013  0.001  0.016  0.030
   26  0.013  0.001  0.016  0.030
   27  0.013  0.001  0.015  0.029
   28  0.008  0.000  0.000  0.009
   29  0.007  0.000  0.000  0.008
   30  0.007  0.000  0.000  0.008
   31  0.007  0.000  0.000  0.008
   32  0.007  0.000  0.000  0.008
   33  0.007  0.000  0.000  0.008
   34  0.007  0.000  0.000  0.008
   35  0.008  0.000  0.000  0.008
   36  0.007  0.000  0.000  0.008
tot    0.344  0.025  0.284  0.652
 
band     3 # energy   -5.15732710 # occ.  2.00000000
 
ion      s      p      d    tot
    1  0.014  0.000  0.025  0.040
    2  0.014  0.000  0.023  0.037
    3  0.014  0.000  0.023  0.037
    4  0.014  0.000  0.023  0.037
    5  0.014  0.000  0.022  0.036
    6  0.014  0.000  0.023  0.037
    7  0.014  0.000  0.023  0.037
    8  0.014  0.000  0.023  0.037
    9  0.015  0.000  0.022  0.038
   10  0.001  0.000  0.023  0.024
   11  0.001  0.000  0.021  0.022
   12  0.001  0.000  0.023  0.024
   13  0.001  0.000  0.021  0.022
   14  0.001  0.000  0.021  0.022
   15  0.000  0.000  0.020  0.020
   16  0.001  0.000  0.023  0.024
   17  0.000  0.000  0.020  0.020
   18  0.000  0.000  0.020  0.020
   19  0.000  0.000  0.010  0.010
   20  0.000  0.000  0.014  0.014
   21  0.000  0.000  0.014  0.014
   22  0.000  0.000  0.010  0.010
   23  0.000  0.000  0.014  0.014
   24  0.000  0.000  0.010  0.010
   25  0.000  0.000  0.010  0.010
   26  0.000  0.000  0.010  0.010
   27  0.000  0.000  0.010  0.010
   28  0.006  0.000  0.008  0.014
   29  0.006  0.000  0.008  0.014
   30  0.006  0.000  0.008  0.014
   31  0.006  0.000  0.008  0.014
   32  0.006  0.000  0.008  0.014
   33  0.006  0.000  0.008  0.014
   34  0.006  0.000  0.008  0.014
   35  0.007  0.000  0.009  0.015
   36  0.006  0.000  0.003  0.009
tot    0.193  0.005  0.568  0.766
 
band     4 # energy   -5.02982652 # occ.  2.00000000
 
ion      s      p      d    tot
    1  0.005  0.001  0.007  0.014
    2  0.000  0.000  0.005  0.005
    3  0.000  0.000  0.005  0.005
    4  0.000  0.000  0.005  0.005
    5  0.001  0.000  0.003  0.004
    6  0.000  0.000  0.005  0.005
    7  0.000  0.000  0.005  0.005
    8  0.000  0.000  0.005  0.005
    9  0.002  0.001  0.001  0.004
   10  0.010  0.000  0.059  0.070
   11  0.000  0.000  0.045  0.046
   12  0.010  0.000  0.059  0.069
   13  0.000  0.000  0.045  0.046
   14  0.000  0.000  0.045  0.046
   15  0.011  0.001  0.004  0.016
   16  0.010  0.000  0.059  0.069
   17  0.011  0.001  0.004  0.016
   18  0.011  0.001  0.004  0.016
   19  0.002  0.001  0.017  0.020
   20  0.004  0.000  0.055  0.059
   21  0.004  0.000  0.055  0.059
   22  0.011  0.001  0.017  0.028
   23  0.004  0.000  0.055  0.059
   24  0.011  0.001  0.017  0.028
   25  0.002  0.001  0.017  0.020
   26  0.002  0.001  0.017  0.020
   27  0.011  0.001  0.017  0.028
   28  0.000  0.000  0.000  0.000
   29  0.000  0.000  0.004  0.004
   30  0.000  0.000  0.004  0.004
   31  0.000  0.000  0.004  0.004
   32  0.000  0.000  0.004  0.004
   33  0.000  0.000  0.004  0.004
   34  0.000  0.000  0.004  0.004
   35  0.003  0.001  0.003  0.006
   36  0.004  0.001  0.002  0.007
tot    0.130  0.017  0.660  0.807
 
band     5 # energy   -5.02410997 # occ.  2.00000000
 
ion      s      p      d    tot
    1  0.000  0.000  0.003  0.003
    2  0.000  0.000  0.003  0.003
    3  0.001  0.000  0.007  0.008
    4  0.000  0.000  0.003  0.003
    5  0.000  0.000  0.010  0.010
    6  0.001  0.001  0.005  0.007
    7  0.001  0.000  0.007  0.008
    8  0.001  0.001  0.005  0.006
    9  0.000  0.000  0.002  0.002
   10  0.005  0.001  0.019  0.024
   11  0.010  0.001  0.072  0.082
   12  0.001  0.000  0.078  0.080
   13  0.006  0.001  0.080  0.087
   14  0.031  0.001  0.013  0.045
   15  0.003  0.001  0.016  0.021
   16  0.002  0.000  0.071  0.073
   17  0.002  0.001  0.013  0.016
   18  0.011  0.000  0.041  0.052
   19  0.000  0.000  0.026  0.027
   20  0.008  0.001  0.031  0.040
   21  0.002  0.001  0.025  0.027
   22  0.003  0.000  0.025  0.029
   23  0.002  0.001  0.026  0.029
   24  0.014  0.001  0.009  0.024
   25  0.001  0.000  0.014  0.016
   26  0.000  0.000  0.028  0.029
   27  0.004  0.001  0.023  0.028
   28  0.000  0.000  0.001  0.001
   29  0.001  0.000  0.003  0.005
   30  0.000  0.000  0.002  0.003
   31  0.001  0.000  0.003  0.004
   32  0.000  0.000  0.002  0.003
   33  0.000  0.000  0.002  0.003
   34  0.000  0.000  0.002  0.003
   35  0.000  0.000  0.007  0.007
   36  0.000  0.000  0.002  0.002
tot    0.114  0.016  0.680  0.809
 
band     6 # energy   -5.02410623 # occ.  2.00000000
 
ion      s      p      d    tot
    1  0.000  0.000  0.003  0.003
    2  0.001  0.001  0.007  0.009
    3  0.000  0.000  0.003  0.003
    4  0.001  0.001  0.007  0.009
    5  0.000  0.000  0.010  0.010
    6  0.000  0.000  0.004  0.005
    7  0.001  0.000  0.003  0.004
    8  0.000  0.000  0.005  0.005
    9  0.000  0.000  0.002  0.002
   10  0.000  0.000  0.093  0.094
   11  0.022  0.001  0.038  0.061
   12  0.004  0.000  0.033  0.038
   13  0.025  0.001  0.029  0.055
   14  0.000  0.001  0.097  0.098
   15  0.007  0.001  0.030  0.039
   16  0.004  0.000  0.041  0.045
   17  0.008  0.000  0.034  0.043
   18  0.000  0.002  0.006  0.007
   19  0.001  0.000  0.019  0.021
   20  0.000  0.001  0.023  0.024
   21  0.006  0.001  0.030  0.036
   22  0.011  0.001  0.013  0.025
   23  0.005  0.001  0.029  0.035
   24  0.000  0.000  0.029  0.030
   25  0.000  0.000  0.032  0.032
   26  0.001  0.000  0.018  0.019
   27  0.010  0.001  0.015  0.026
   28  0.000  0.000  0.001  0.001
   29  0.000  0.000  0.002  0.002
   30  0.001  0.000  0.003  0.004
   31  0.000  0.000  0.002  0.002
   32  0.001  0.000  0.003  0.004
   33  0.001  0.000  0.003  0.004
   34  0.001  0.000  0.003  0.004
   35  0.000  0.000  0.007  0.007
   36  0.000  0.000  0.002  0.002
tot    0.114  0.016  0.680  0.809
 
band     7 # energy   -5.01963392 # occ.  2.00000000
 
ion      s      p      d    tot
    1  0.000  0.000  0.000  0.001
    2  0.000  0.000  0.006  0.006
    3  0.000  0.000  0.006  0.006
    4  0.000  0.000  0.006  0.006
    5  0.003  0.001  0.005  0.009
    6  0.000  0.000  0.006  0.006
    7  0.000  0.000  0.006  0.006
    8  0.000  0.000  0.006  0.006
    9  0.002  0.001  0.006  0.009
   10  0.005  0.001  0.014  0.020
   11  0.016  0.001  0.030  0.046
   12  0.005  0.001  0.014  0.020
   13  0.016  0.001  0.030  0.046
   14  0.016  0.001  0.029  0.046
   15  0.003  0.000  0.070  0.074
   16  0.005  0.001  0.014  0.020
   17  0.003  0.000  0.070  0.074
   18  0.003  0.000  0.070  0.073
   19  0.008  0.000  0.035  0.043
   20  0.008  0.001  0.012  0.021
   21  0.008  0.001  0.012  0.021
   22  0.000  0.000  0.033  0.033
   23  0.008  0.001  0.012  0.021
   24  0.000  0.000  0.033  0.033
   25  0.007  0.000  0.035  0.043
   26  0.008  0.000  0.035  0.043
   27  0.000  0.000  0.033  0.033
   28  0.004  0.001  0.002  0.007
   29  0.000  0.000  0.004  0.004
   30  0.000  0.000  0.004  0.004
   31  0.000  0.000  0.004  0.004
   32  0.000  0.000  0.004  0.005
   33  0.000  0.000  0.004  0.004
   34  0.000  0.000  0.004  0.005
   35  0.001  0.000  0.002  0.004
   36  0.000  0.000  0.000  0.001
tot    0.129  0.017  0.654  0.800
 
band     8 # energy   -5.01639662 # occ.  2.00000000
 
ion      s      p      d    tot
    1  0.000  0.000  0.009  0.009
    2  0.001  0.001  0.005  0.007
    3  0.000  0.000  0.003  0.004
    4  0.002  0.001  0.005  0.007
    5  0.000  0.000  0.001  0.001
    6  0.001  0.000  0.005  0.006
    7  0.000  0.000  0.003  0.003
    8  0.000  0.000  0.004  0.004
    9  0.000  0.000  0.006  0.007
   10  0.024  0.001  0.025  0.049
   11  0.000  0.001  0.027  0.029
   12  0.011  0.001  0.030  0.041
   13  0.001  0.001  0.029  0.030
   14  0.001  0.000  0.032  0.034
   15  0.002  0.000  0.078  0.080
   16  0.003  0.001  0.032  0.036
   17  0.006  0.000  0.053  0.060
   18  0.015  0.001  0.008  0.023
   19  0.002  0.001  0.029  0.032
   20  0.014  0.001  0.010  0.025
   21  0.006  0.000  0.046  0.053
   22  0.000  0.001  0.028  0.029
   23  0.002  0.000  0.067  0.069
   24  0.001  0.000  0.027  0.028
   25  0.019  0.001  0.022  0.042
   26  0.008  0.001  0.026  0.036
   27  0.000  0.001  0.028  0.029
   28  0.000  0.000  0.006  0.007
   29  0.000  0.000  0.002  0.003
   30  0.001  0.000  0.004  0.005
   31  0.000  0.000  0.002  0.002
   32  0.000  0.000  0.003  0.003
   33  0.001  0.000  0.004  0.005
   34  0.001  0.000  0.003  0.004
   35  0.000  0.000  0.001  0.001
   36  0.000  0.000  0.002  0.002
tot    0.122  0.017  0.664  0.803
 
band     9 # energy   -5.01639548 # occ.  2.00000000
 
ion      s      p      d    tot
    1  0.000  0.000  0.009  0.009
    2  0.000  0.000  0.003  0.003
    3  0.001  0.000  0.005  0.006
    4  0.000  0.000  0.003  0.003
    5  0.000  0.000  0.001  0.001
    6  0.001  0.000  0.003  0.004
    7  0.002  0.001  0.005  0.007
    8  0.001  0.001  0.004  0.006
    9  0.000  0.000  0.006  0.007
   10  0.001  0.001  0.033  0.035
   11  0.001  0.000  0.032  0.033
   12  0.014  0.001  0.028  0.043
   13  0.001  0.001  0.030  0.031
   14  0.000  0.001  0.027  0.028
   15  0.013  0.001  0.014  0.028
   16  0.022  0.001  0.026  0.048
   17  0.009  0.000  0.040  0.049
   18  0.000  0.000  0.085  0.085
   19  0.018  0.001  0.023  0.041
   20  0.000  0.000  0.072  0.073
   21  0.008  0.000  0.036  0.045
   22  0.000  0.001  0.028  0.028
   23  0.013  0.001  0.015  0.029
   24  0.000  0.001  0.027  0.029
   25  0.001  0.001  0.030  0.031
   26  0.012  0.001  0.025  0.038
   27  0.001  0.000  0.028  0.028
   28  0.000  0.000  0.006  0.007
   29  0.001  0.000  0.004  0.005
   30  0.000  0.000  0.002  0.003
   31  0.001  0.000  0.004  0.005
   32  0.001  0.000  0.003  0.004
   33  0.000  0.000  0.002  0.002
   34  0.000  0.000  0.003  0.003
   35  0.000  0.000  0.001  0.001
   36  0.000  0.000  0.002  0.002
tot    0.122  0.017  0.664  0.803
 
band    10 # energy   -4.99407981 # occ.  2.00000000
 
ion      s      p      d    tot
    1  0.000  0.000  0.009  0.009
    2  0.000  0.000  0.010  0.010
    3  0.000  0.000  0.010  0.010
    4  0.000  0.000  0.010  0.010
    5  0.004  0.000  0.003  0.008
    6  0.000  0.000  0.010  0.010
    7  0.000  0.000  0.010  0.010
    8  0.000  0.000  0.010  0.010
    9  0.003  0.001  0.001  0.005
   10  0.001  0.000  0.047  0.048
   11  0.001  0.000  0.045  0.046
   12  0.001  0.000  0.047  0.048
   13  0.001  0.000  0.045  0.046
   14  0.001  0.000  0.045  0.046
   15  0.003  0.000  0.010  0.013
   16  0.001  0.000  0.047  0.048
   17  0.003  0.000  0.010  0.013
   18  0.003  0.000  0.010  0.013
   19  0.002  0.000  0.019  0.022
   20  0.000  0.000  0.074  0.074
   21  0.000  0.000  0.074  0.074
   22  0.005  0.000  0.025  0.031
   23  0.000  0.000  0.074  0.075
   24  0.005  0.000  0.025  0.031
   25  0.002  0.000  0.019  0.022
   26  0.002  0.000  0.019  0.022
   27  0.005  0.000  0.025  0.031
   28  0.004  0.000  0.001  0.006
   29  0.000  0.000  0.008  0.008
   30  0.000  0.000  0.008  0.008
   31  0.000  0.000  0.008  0.008
   32  0.000  0.000  0.008  0.008
   33  0.000  0.000  0.008  0.008
   34  0.000  0.000  0.008  0.008
   35  0.001  0.001  0.007  0.009
   36  0.000  0.000  0.003  0.004
tot    0.050  0.006  0.792  0.849
 
band    11 # energy   -4.97790431 # occ.  2.00000000
 
ion      s      p      d    tot
    1  0.001  0.000  0.009  0.010
    2  0.004  0.000  0.013  0.017
    3  0.004  0.000  0.013  0.017
    4  0.004  0.000  0.013  0.017
    5  0.005  0.000  0.006  0.011
    6  0.004  0.000  0.013  0.016
    7  0.004  0.000  0.013  0.017
    8  0.004  0.000  0.013  0.016
    9  0.006  0.000  0.022  0.028
   10  0.003  0.000  0.009  0.012
   11  0.000  0.000  0.003  0.003
   12  0.003  0.000  0.008  0.011
   13  0.000  0.000  0.003  0.003
   14  0.000  0.000  0.002  0.003
   15  0.002  0.000  0.023  0.024
   16  0.003  0.000  0.008  0.011
   17  0.002  0.000  0.023  0.024
   18  0.001  0.000  0.022  0.024
   19  0.000  0.001  0.013  0.014
   20  0.003  0.000  0.021  0.025
   21  0.004  0.000  0.022  0.026
   22  0.000  0.001  0.027  0.028
   23  0.004  0.000  0.022  0.026
   24  0.000  0.001  0.027  0.028
   25  0.000  0.001  0.015  0.016
   26  0.000  0.001  0.013  0.014
   27  0.000  0.001  0.027  0.028
   28  0.012  0.000  0.013  0.025
   29  0.012  0.000  0.025  0.037
   30  0.011  0.000  0.026  0.037
   31  0.012  0.000  0.025  0.037
   32  0.011  0.000  0.025  0.036
   33  0.011  0.000  0.026  0.037
   34  0.011  0.000  0.025  0.036
   35  0.018  0.000  0.036  0.054
   36  0.005  0.000  0.008  0.014
tot    0.166  0.008  0.609  0.783
 
band    12 # energy   -4.97735019 # occ.  2.00000000
 
ion      s      p      d    tot
    1  0.000  0.000  0.018  0.018
    2  0.003  0.000  0.006  0.010
    3  0.000  0.000  0.010  0.010
    4  0.003  0.000  0.006  0.010
    5  0.000  0.000  0.012  0.012
    6  0.002  0.001  0.007  0.010
    7  0.000  0.000  0.010  0.010
    8  0.002  0.001  0.007  0.010
    9  0.000  0.000  0.005  0.005
   10  0.000  0.000  0.044  0.044
   11  0.001  0.000  0.034  0.035
   12  0.003  0.000  0.032  0.036
   13  0.001  0.000  0.034  0.035
   14  0.000  0.000  0.023  0.023
   15  0.007  0.000  0.021  0.028
   16  0.003  0.000  0.032  0.035
   17  0.007  0.000  0.022  0.029
   18  0.000  0.000  0.065  0.065
   19  0.003  0.000  0.032  0.036
   20  0.000  0.000  0.086  0.086
   21  0.009  0.000  0.026  0.035
   22  0.002  0.000  0.028  0.030
   23  0.009  0.000  0.025  0.034
   24  0.000  0.000  0.032  0.032
   25  0.000  0.000  0.026  0.026
   26  0.003  0.000  0.032  0.035
   27  0.002  0.000  0.028  0.030
   28  0.000  0.000  0.012  0.012
   29  0.000  0.000  0.007  0.007
   30  0.003  0.000  0.004  0.007
   31  0.000  0.000  0.007  0.007
   32  0.001  0.001  0.006  0.008
   33  0.003  0.000  0.004  0.007
   34  0.001  0.001  0.006  0.008
   35  0.000  0.000  0.005  0.006
   36  0.000  0.001  0.002  0.003
tot    0.068  0.008  0.762  0.838
 
band    13 # energy   -4.97734296 # occ.  2.00000000
 
ion      s      p      d    tot
    1  0.000  0.000  0.018  0.018
    2  0.000  0.000  0.009  0.010
    3  0.003  0.001  0.006  0.010
    4  0.000  0.000  0.009  0.010
    5  0.000  0.000  0.012  0.012
    6  0.002  0.000  0.009  0.011
    7  0.003  0.001  0.006  0.010
    8  0.002  0.000  0.009  0.011
    9  0.000  0.000  0.005  0.005
   10  0.004  0.000  0.027  0.032
   11  0.000  0.000  0.027  0.027
   12  0.001  0.000  0.040  0.042
   13  0.000  0.000  0.027  0.027
   14  0.001  0.000  0.038  0.039
   15  0.002  0.000  0.051  0.053
   16  0.001  0.000  0.041  0.042
   17  0.002  0.000  0.050  0.052
   18  0.009  0.000  0.007  0.016
   19  0.001  0.000  0.029  0.030
   20  0.012  0.000  0.005  0.018
   21  0.003  0.000  0.065  0.068
   22  0.001  0.000  0.030  0.031
   23  0.003  0.000  0.067  0.069
   24  0.002  0.000  0.027  0.029
   25  0.004  0.000  0.033  0.037
   26  0.001  0.000  0.029  0.030
   27  0.001  0.000  0.031  0.031
   28  0.000  0.000  0.012  0.012
   29  0.002  0.001  0.005  0.008
   30  0.000  0.000  0.007  0.008
   31  0.002  0.001  0.005  0.008
   32  0.002  0.000  0.006  0.008
   33  0.000  0.000  0.007  0.007
   34  0.002  0.000  0.006  0.008
   35  0.000  0.000  0.006  0.006
   36  0.000  0.001  0.002  0.003
tot    0.068  0.008  0.762  0.838
 
band    14 # energy   -4.97445514 # occ.  2.00000000
 
ion      s      p      d    tot
    1  0.008  0.000  0.003  0.012
    2  0.001  0.000  0.011  0.012
    3  0.001  0.000  0.011  0.012
    4  0.001  0.000  0.011  0.012
    5  0.000  0.000  0.010  0.010
    6  0.001  0.000  0.011  0.012
    7  0.001  0.000  0.011  0.012
    8  0.001  0.000  0.011  0.012
    9  0.001  0.000  0.000  0.001
   10  0.000  0.000  0.021  0.021
   11  0.003  0.000  0.020  0.023
   12  0.000  0.000  0.021  0.021
   13  0.003  0.000  0.020  0.023
   14  0.003  0.000  0.020  0.023
   15  0.000  0.000  0.036  0.036
   16  0.000  0.000  0.021  0.021
   17  0.000  0.000  0.036  0.036
   18  0.000  0.000  0.036  0.036
   19  0.005  0.000  0.062  0.067
   20  0.003  0.001  0.005  0.008
   21  0.003  0.001  0.005  0.008
   22  0.001  0.000  0.048  0.048
   23  0.003  0.001  0.005  0.008
   24  0.001  0.000  0.048  0.048
   25  0.005  0.000  0.061  0.067
   26  0.005  0.000  0.062  0.067
   27  0.001  0.000  0.048  0.048
   28  0.001  0.000  0.031  0.033
   29  0.003  0.000  0.011  0.014
   30  0.003  0.000  0.011  0.014
   31  0.003  0.000  0.011  0.014
   32  0.003  0.000  0.011  0.014
   33  0.003  0.000  0.011  0.014
   34  0.003  0.000  0.011  0.014
   35  0.000  0.000  0.000  0.000
   36  0.011  0.001  0.000  0.013
tot    0.077  0.007  0.755  0.839
 
band    15 # energy   -4.97099524 # occ.  2.00000000
 
ion      s      p      d    tot
    1  0.000  0.000  0.004  0.005
    2  0.003  0.000  0.007  0.010
    3  0.001  0.000  0.008  0.009
    4  0.003  0.000  0.006  0.010
    5  0.000  0.000  0.010  0.010
    6  0.001  0.000  0.006  0.008
    7  0.000  0.000  0.008  0.009
    8  0.001  0.000  0.007  0.008
    9  0.000  0.000  0.020  0.020
   10  0.002  0.000  0.023  0.026
   11  0.001  0.000  0.037  0.038
   12  0.001  0.000  0.020  0.020
   13  0.001  0.000  0.035  0.036
   14  0.003  0.000  0.010  0.013
   15  0.000  0.000  0.030  0.030
   16  0.001  0.000  0.019  0.020
   17  0.000  0.000  0.030  0.030
   18  0.000  0.000  0.036  0.036
   19  0.002  0.000  0.075  0.077
   20  0.001  0.000  0.051  0.052
   21  0.000  0.000  0.019  0.020
   22  0.005  0.000  0.067  0.071
   23  0.000  0.000  0.016  0.017
   24  0.017  0.000  0.019  0.036
   25  0.008  0.000  0.010  0.018
   26  0.002  0.000  0.070  0.072
   27  0.004  0.000  0.071  0.074
   28  0.000  0.000  0.004  0.005
   29  0.000  0.000  0.008  0.008
   30  0.002  0.000  0.003  0.005
   31  0.000  0.000  0.008  0.009
   32  0.001  0.001  0.007  0.009
   33  0.002  0.000  0.003  0.005
   34  0.001  0.001  0.007  0.009
   35  0.000  0.000  0.012  0.012
   36  0.000  0.000  0.002  0.002
tot    0.062  0.008  0.770  0.840
 
band    16 # energy   -4.97098033 # occ.  2.00000000
 
ion      s      p      d    tot
    1  0.000  0.000  0.004  0.005
    2  0.000  0.000  0.008  0.008
    3  0.003  0.000  0.006  0.009
    4  0.000  0.000  0.008  0.008
    5  0.000  0.000  0.010  0.010
    6  0.002  0.000  0.008  0.010
    7  0.003  0.000  0.006  0.009
    8  0.002  0.000  0.008  0.010
    9  0.000  0.000  0.020  0.020
   10  0.000  0.000  0.018  0.018
   11  0.002  0.000  0.018  0.020
   12  0.002  0.000  0.022  0.024
   13  0.002  0.000  0.020  0.022
   14  0.000  0.000  0.045  0.045
   15  0.000  0.000  0.034  0.034
   16  0.002  0.000  0.022  0.024
   17  0.000  0.000  0.034  0.034
   18  0.000  0.000  0.028  0.028
   19  0.006  0.000  0.028  0.035
   20  0.000  0.001  0.007  0.007
   21  0.001  0.000  0.038  0.039
   22  0.012  0.000  0.038  0.050
   23  0.001  0.000  0.041  0.042
   24  0.000  0.000  0.085  0.085
   25  0.000  0.000  0.093  0.093
   26  0.006  0.000  0.033  0.039
   27  0.013  0.000  0.034  0.047
   28  0.000  0.000  0.004  0.005
   29  0.002  0.001  0.004  0.007
   30  0.000  0.000  0.009  0.010
   31  0.002  0.001  0.004  0.006
   32  0.001  0.000  0.005  0.006
   33  0.000  0.000  0.009  0.010
   34  0.001  0.000  0.005  0.006
   35  0.000  0.000  0.012  0.012
   36  0.000  0.000  0.002  0.002
tot    0.062  0.008  0.770  0.840
 
band    17 # energy   -4.82078497 # occ.  2.00000000
 
ion      s      p      d    tot
    1  0.000  0.000  0.003  0.003
    2  0.000  0.000  0.008  0.009
    3  0.000  0.000  0.008  0.009
    4  0.000  0.000  0.008  0.009
    5  0.001  0.001  0.012  0.014
    6  0.000  0.000  0.008  0.009
    7  0.000  0.000  0.008  0.009
    8  0.000  0.000  0.008  0.009
    9  0.004  0.001  0.001  0.006
   10  0.001  0.000  0.027  0.029
   11  0.000  0.001  0.069  0.070
   12  0.001  0.000  0.027  0.029
   13  0.000  0.001  0.069  0.070
   14  0.000  0.001  0.069  0.070
   15  0.000  0.000  0.023  0.023
   16  0.001  0.000  0.027  0.029
   17  0.000  0.000  0.023  0.023
   18  0.000  0.000  0.023  0.023
   19  0.000  0.001  0.043  0.044
   20  0.002  0.000  0.052  0.054
   21  0.002  0.000  0.051  0.054
   22  0.001  0.000  0.016  0.017
   23  0.002  0.000  0.051  0.054
   24  0.001  0.000  0.016  0.017
   25  0.000  0.001  0.043  0.044
   26  0.000  0.001  0.043  0.044
   27  0.001  0.000  0.016  0.017
   28  0.003  0.001  0.005  0.009
   29  0.000  0.000  0.010  0.010
   30  0.000  0.000  0.010  0.010
   31  0.000  0.000  0.010  0.010
   32  0.000  0.000  0.010  0.010
   33  0.000  0.000  0.010  0.010
   34  0.000  0.000  0.010  0.010
   35  0.003  0.001  0.000  0.004
   36  0.000  0.000  0.003  0.003
tot    0.025  0.015  0.822  0.862
 
band    18 # energy   -4.81350075 # occ.  2.00000000
 
ion      s      p      d    tot
    1  0.000  0.000  0.002  0.002
    2  0.002  0.001  0.007  0.009
    3  0.000  0.000  0.011  0.011
    4  0.002  0.001  0.007  0.009
    5  0.000  0.001  0.019  0.020
    6  0.001  0.000  0.007  0.008
    7  0.000  0.000  0.011  0.011
    8  0.001  0.000  0.006  0.008
    9  0.000  0.000  0.009  0.010
   10  0.000  0.001  0.023  0.024
   11  0.001  0.000  0.075  0.076
   12  0.000  0.000  0.038  0.039
   13  0.001  0.000  0.077  0.078
   14  0.003  0.000  0.047  0.050
   15  0.001  0.000  0.013  0.014
   16  0.000  0.000  0.037  0.037
   17  0.000  0.000  0.011  0.012
   18  0.002  0.001  0.038  0.041
   19  0.001  0.000  0.020  0.021
   20  0.002  0.000  0.041  0.042
   21  0.000  0.000  0.078  0.079
   22  0.000  0.000  0.023  0.024
   23  0.001  0.000  0.075  0.076
   24  0.000  0.001  0.020  0.021
   25  0.002  0.001  0.038  0.041
   26  0.001  0.000  0.019  0.020
   27  0.000  0.000  0.023  0.024
   28  0.000  0.000  0.011  0.011
   29  0.001  0.000  0.004  0.005
   30  0.000  0.000  0.007  0.007
   31  0.001  0.000  0.004  0.005
   32  0.001  0.001  0.006  0.008
   33  0.000  0.000  0.007  0.007
   34  0.001  0.001  0.006  0.008
   35  0.000  0.000  0.000  0.000
   36  0.000  0.001  0.004  0.005
tot    0.024  0.015  0.827  0.865
 
band    19 # energy   -4.81349118 # occ.  2.00000000
 
ion      s      p      d    tot
    1  0.000  0.000  0.002  0.002
    2  0.000  0.000  0.009  0.010
    3  0.002  0.001  0.005  0.008
    4  0.000  0.000  0.009  0.010
    5  0.000  0.001  0.019  0.020
    6  0.001  0.001  0.009  0.011
    7  0.002  0.001  0.005  0.008
    8  0.001  0.001  0.010  0.011
    9  0.000  0.000  0.009  0.010
   10  0.000  0.000  0.043  0.043
   11  0.002  0.000  0.058  0.060
   12  0.000  0.001  0.027  0.028
   13  0.002  0.000  0.056  0.058
   14  0.000  0.000  0.086  0.086
   15  0.001  0.001  0.028  0.030
   16  0.000  0.001  0.029  0.029
   17  0.002  0.001  0.030  0.032
   18  0.000  0.000  0.004  0.004
   19  0.002  0.001  0.031  0.034
   20  0.000  0.000  0.089  0.089
   21  0.001  0.000  0.051  0.053
   22  0.000  0.001  0.021  0.022
   23  0.001  0.000  0.054  0.055
   24  0.000  0.000  0.024  0.024
   25  0.000  0.000  0.014  0.014
   26  0.002  0.001  0.033  0.035
   27  0.000  0.001  0.021  0.022
   28  0.000  0.000  0.011  0.011
   29  0.001  0.000  0.007  0.008
   30  0.001  0.001  0.005  0.006
   31  0.001  0.000  0.007  0.008
   32  0.000  0.000  0.005  0.006
   33  0.001  0.001  0.005  0.007
   34  0.000  0.000  0.006  0.006
   35  0.000  0.000  0.000  0.000
   36  0.000  0.001  0.004  0.005
tot    0.024  0.015  0.827  0.865
 
band    20 # energy   -4.80757023 # occ.  2.00000000
 
ion      s      p      d    tot
    1  0.003  0.001  0.006  0.009
    2  0.000  0.000  0.011  0.011
    3  0.000  0.000  0.011  0.011
    4  0.000  0.000  0.011  0.011
    5  0.003  0.000  0.001  0.005
    6  0.000  0.000  0.011  0.011
    7  0.000  0.000  0.011  0.011
    8  0.000  0.000  0.011  0.011
    9  0.000  0.000  0.008  0.008
   10  0.000  0.001  0.051  0.052
   11  0.001  0.000  0.016  0.017
   12  0.000  0.001  0.051  0.052
   13  0.001  0.000  0.016  0.017
   14  0.001  0.000  0.017  0.018
   15  0.002  0.001  0.051  0.053
   16  0.000  0.001  0.051  0.052
   17  0.002  0.001  0.051  0.053
   18  0.002  0.001  0.051  0.053
   19  0.001  0.000  0.030  0.031
   20  0.000  0.000  0.025  0.025
   21  0.000  0.000  0.025  0.025
   22  0.002  0.001  0.049  0.051
   23  0.000  0.000  0.025  0.025
   24  0.002  0.001  0.049  0.051
   25  0.001  0.000  0.030  0.031
   26  0.001  0.000  0.030  0.031
   27  0.002  0.001  0.049  0.051
   28  0.002  0.000  0.005  0.008
   29  0.000  0.000  0.009  0.010
   30  0.000  0.000  0.009  0.010
   31  0.000  0.000  0.009  0.010
   32  0.000  0.000  0.009  0.010
   33  0.000  0.000  0.009  0.010
   34  0.000  0.000  0.009  0.010
   35  0.001  0.000  0.006  0.007
   36  0.003  0.001  0.000  0.005
tot    0.030  0.016  0.814  0.860
 
band    21 # energy   -4.80366204 # occ.  2.00000000
 
ion      s      p      d    tot
    1  0.000  0.001  0.019  0.019
    2  0.002  0.001  0.006  0.009
    3  0.000  0.000  0.011  0.012
    4  0.002  0.001  0.007  0.009
    5  0.000  0.000  0.001  0.001
    6  0.001  0.000  0.007  0.007
    7  0.000  0.000  0.011  0.012
    8  0.001  0.000  0.006  0.007
    9  0.000  0.000  0.010  0.010
   10  0.000  0.000  0.047  0.047
   11  0.000  0.001  0.022  0.023
   12  0.002  0.000  0.054  0.057
   13  0.000  0.001  0.023  0.024
   14  0.000  0.000  0.007  0.007
   15  0.001  0.000  0.044  0.045
   16  0.002  0.000  0.054  0.056
   17  0.001  0.000  0.040  0.041
   18  0.000  0.000  0.084  0.084
   19  0.000  0.000  0.035  0.035
   20  0.000  0.000  0.000  0.000
   21  0.001  0.001  0.027  0.029
   22  0.002  0.000  0.043  0.045
   23  0.001  0.001  0.025  0.027
   24  0.000  0.000  0.051  0.051
   25  0.000  0.000  0.063  0.064
   26  0.000  0.000  0.032  0.033
   27  0.002  0.000  0.044  0.046
   28  0.000  0.000  0.006  0.006
   29  0.001  0.000  0.004  0.005
   30  0.000  0.000  0.008  0.008
   31  0.001  0.000  0.004  0.005
   32  0.001  0.001  0.006  0.008
   33  0.000  0.000  0.007  0.008
   34  0.001  0.001  0.006  0.008
   35  0.000  0.001  0.016  0.016
   36  0.000  0.000  0.001  0.001
tot    0.022  0.014  0.830  0.866
 
band    22 # energy   -4.80364769 # occ.  2.00000000
 
ion      s      p      d    tot
    1  0.000  0.001  0.019  0.019
    2  0.000  0.000  0.010  0.010
    3  0.002  0.001  0.005  0.007
    4  0.000  0.000  0.009  0.010
    5  0.000  0.000  0.001  0.001
    6  0.001  0.001  0.010  0.012
    7  0.002  0.001  0.005  0.007
    8  0.001  0.001  0.010  0.012
    9  0.000  0.000  0.010  0.010
   10  0.002  0.000  0.056  0.059
   11  0.000  0.000  0.013  0.013
   12  0.001  0.000  0.049  0.050
   13  0.000  0.000  0.011  0.012
   14  0.000  0.001  0.028  0.029
   15  0.000  0.000  0.068  0.068
   16  0.001  0.000  0.050  0.050