PROCAR new format
# of k-points:   10         # of bands:  252         # of ions:   37

 k-point     1 :    0.00000000 0.00000000 0.00000000     weight = 0.01562500

band     1 # energy  -54.64977720 # occ.  2.00000000
 
ion      s      p      d    tot
    1  0.000  0.000  0.000  0.000
    2  0.000  0.000  0.000  0.000
    3  0.000  0.000  0.000  0.000
    4  0.000  0.000  0.000  0.000
    5  0.000  0.000  0.000  0.000
    6  0.000  0.000  0.000  0.000
    7  0.000  0.000  0.000  0.000
    8  0.000  0.000  0.000  0.000
    9  0.000  0.000  0.000  0.000
   10  0.000  0.000  0.000  0.000
   11  0.000  0.000  0.000  0.000
   12  0.000  0.000  0.000  0.000
   13  0.000  0.000  0.000  0.000
   14  0.000  0.000  0.000  0.000
   15  0.000  0.000  0.000  0.000
   16  0.000  0.000  0.000  0.000
   17  0.000  0.000  0.000  0.000
   18  0.000  0.000  0.000  0.000
   19  0.000  0.000  0.000  0.000
   20  0.000  0.000  0.000  0.000
   21  0.000  0.000  0.000  0.000
   22  0.000  0.000  0.000  0.000
   23  0.000  0.000  0.000  0.000
   24  0.000  0.000  0.000  0.000
   25  0.000  0.000  0.000  0.000
   26  0.000  0.000  0.000  0.000
   27  0.000  0.000  0.000  0.000
   28  0.000  0.000  0.000  0.000
   29  0.000  0.000  0.000  0.000
   30  0.000  0.000  0.000  0.000
   31  0.000  0.000  0.000  0.000
   32  0.000  0.000  0.000  0.000
   33  0.000  0.000  0.000  0.000
   34  0.000  0.000  0.000  0.000
   35  0.000  0.000  0.000  0.000
   36  0.992  0.000  0.000  0.992
   37  0.000  0.001  0.000  0.001
tot    0.992  0.001  0.000  0.993
 
band     2 # energy  -30.94015741 # occ.  2.00000000
 
ion      s      p      d    tot
    1  0.000  0.000  0.000  0.000
    2  0.000  0.000  0.000  0.000
    3  0.000  0.000  0.000  0.000
    4  0.000  0.000  0.000  0.000
    5  0.000  0.000  0.000  0.000
    6  0.000  0.000  0.000  0.000
    7  0.000  0.000  0.000  0.000
    8  0.000  0.000  0.000  0.000
    9  0.000  0.000  0.000  0.000
   10  0.000  0.000  0.000  0.000
   11  0.000  0.000  0.000  0.000
   12  0.000  0.000  0.000  0.000
   13  0.000  0.000  0.000  0.000
   14  0.000  0.000  0.000  0.000
   15  0.000  0.000  0.000  0.000
   16  0.000  0.000  0.000  0.000
   17  0.000  0.000  0.000  0.000
   18  0.000  0.000  0.000  0.000
   19  0.000  0.000  0.000  0.000
   20  0.000  0.000  0.000  0.000
   21  0.000  0.000  0.000  0.000
   22  0.000  0.000  0.000  0.000
   23  0.000  0.000  0.000  0.000
   24  0.000  0.000  0.000  0.000
   25  0.000  0.000  0.000  0.000
   26  0.000  0.000  0.000  0.000
   27  0.000  0.000  0.000  0.000
   28  0.000  0.000  0.000  0.000
   29  0.000  0.000  0.000  0.000
   30  0.000  0.000  0.000  0.001
   31  0.000  0.000  0.000  0.000
   32  0.000  0.000  0.000  0.000
   33  0.000  0.000  0.000  0.001
   34  0.000  0.000  0.000  0.000
   35  0.000  0.000  0.000  0.000
   36  0.000  0.970  0.000  0.970
   37  0.000  0.000  0.000  0.000
tot    0.001  0.971  0.001  0.973
 
band     3 # energy  -30.94014845 # occ.  2.00000000
 
ion      s      p      d    tot
    1  0.000  0.000  0.000  0.000
    2  0.000  0.000  0.000  0.000
    3  0.000  0.000  0.000  0.000
    4  0.000  0.000  0.000  0.000
    5  0.000  0.000  0.000  0.000
    6  0.000  0.000  0.000  0.000
    7  0.000  0.000  0.000  0.000
    8  0.000  0.000  0.000  0.000
    9  0.000  0.000  0.000  0.000
   10  0.000  0.000  0.000  0.000
   11  0.000  0.000  0.000  0.000
   12  0.000  0.000  0.000  0.000
   13  0.000  0.000  0.000  0.000
   14  0.000  0.000  0.000  0.000
   15  0.000  0.000  0.000  0.000
   16  0.000  0.000  0.000  0.000
   17  0.000  0.000  0.000  0.000
   18  0.000  0.000  0.000  0.000
   19  0.000  0.000  0.000  0.000
   20  0.000  0.000  0.000  0.000
   21  0.000  0.000  0.000  0.000
   22  0.000  0.000  0.000  0.000
   23  0.000  0.000  0.000  0.000
   24  0.000  0.000  0.000  0.000
   25  0.000  0.000  0.000  0.000
   26  0.000  0.000  0.000  0.000
   27  0.000  0.000  0.000  0.000
   28  0.000  0.000  0.000  0.000
   29  0.000  0.000  0.000  0.001
   30  0.000  0.000  0.000  0.000
   31  0.000  0.000  0.000  0.001
   32  0.000  0.000  0.000  0.001
   33  0.000  0.000  0.000  0.000
   34  0.000  0.000  0.000  0.001
   35  0.000  0.000  0.000  0.000
   36  0.000  0.970  0.000  0.970
   37  0.000  0.000  0.000  0.000
tot    0.001  0.971  0.001  0.973
 
band     4 # energy  -30.83013704 # occ.  2.00000000
 
ion      s      p      d    tot
    1  0.000  0.000  0.000  0.000
    2  0.000  0.000  0.000  0.000
    3  0.000  0.000  0.000  0.000
    4  0.000  0.000  0.000  0.000
    5  0.000  0.000  0.000  0.000
    6  0.000  0.000  0.000  0.000
    7  0.000  0.000  0.000  0.000
    8  0.000  0.000  0.000  0.000
    9  0.000  0.000  0.000  0.000
   10  0.000  0.000  0.000  0.000
   11  0.000  0.000  0.000  0.000
   12  0.000  0.000  0.000  0.000
   13  0.000  0.000  0.000  0.000
   14  0.000  0.000  0.000  0.000
   15  0.000  0.000  0.000  0.000
   16  0.000  0.000  0.000  0.000
   17  0.000  0.000  0.000  0.000
   18  0.000  0.000  0.000  0.000
   19  0.000  0.000  0.000  0.000
   20  0.000  0.000  0.000  0.000
   21  0.000  0.000  0.000  0.000
   22  0.000  0.000  0.000  0.000
   23  0.000  0.000  0.000  0.000
   24  0.000  0.000  0.000  0.000
   25  0.000  0.000  0.000  0.000
   26  0.000  0.000  0.000  0.000
   27  0.000  0.000  0.000  0.000
   28  0.000  0.000  0.000  0.000
   29  0.000  0.000  0.000  0.000
   30  0.000  0.000  0.000  0.000
   31  0.000  0.000  0.000  0.000
   32  0.000  0.000  0.000  0.000
   33  0.000  0.000  0.000  0.000
   34  0.000  0.000  0.000  0.000
   35  0.000  0.000  0.000  0.000
   36  0.000  0.957  0.001  0.958
   37  0.008  0.008  0.000  0.016
tot    0.009  0.965  0.001  0.975
 
band     5 # energy   -9.34408831 # occ.  2.00000000
 
ion      s      p      d    tot
    1  0.006  0.001  0.000  0.007
    2  0.006  0.001  0.000  0.007
    3  0.006  0.001  0.000  0.007
    4  0.006  0.001  0.000  0.007
    5  0.006  0.001  0.000  0.007
    6  0.006  0.001  0.000  0.007
    7  0.006  0.001  0.000  0.007
    8  0.006  0.001  0.000  0.007
    9  0.006  0.001  0.000  0.007
   10  0.023  0.000  0.000  0.024
   11  0.023  0.000  0.000  0.023
   12  0.023  0.000  0.000  0.024
   13  0.023  0.000  0.000  0.023
   14  0.023  0.000  0.000  0.023
   15  0.023  0.000  0.000  0.023
   16  0.023  0.000  0.000  0.024
   17  0.023  0.000  0.000  0.023
   18  0.023  0.000  0.000  0.023
   19  0.025  0.000  0.000  0.025
   20  0.025  0.000  0.000  0.025
   21  0.025  0.000  0.000  0.025
   22  0.024  0.000  0.000  0.024
   23  0.025  0.000  0.000  0.025
   24  0.024  0.000  0.000  0.024
   25  0.025  0.000  0.000  0.025
   26  0.025  0.000  0.000  0.025
   27  0.024  0.000  0.000  0.024
   28  0.007  0.001  0.000  0.008
   29  0.007  0.001  0.000  0.008
   30  0.007  0.001  0.000  0.008
   31  0.007  0.001  0.000  0.008
   32  0.007  0.001  0.000  0.008
   33  0.007  0.001  0.000  0.008
   34  0.007  0.001  0.000  0.008
   35  0.007  0.001  0.000  0.008
   36  0.006  0.000  0.002  0.009
   37  0.013  0.001  0.000  0.013
tot    0.559  0.015  0.003  0.577
 
band     6 # energy   -8.42343921 # occ.  2.00000000
 
ion      s      p      d    tot
    1  0.005  0.000  0.000  0.005
    2  0.005  0.000  0.000  0.005
    3  0.005  0.000  0.000  0.005
    4  0.005  0.000  0.000  0.005
    5  0.005  0.000  0.000  0.005
    6  0.005  0.000  0.000  0.005
    7  0.005  0.000  0.000  0.005
    8  0.005  0.000  0.000  0.005
    9  0.005  0.000  0.000  0.006
   10  0.006  0.000  0.000  0.006
   11  0.005  0.000  0.000  0.006
   12  0.006  0.000  0.000  0.006
   13  0.005  0.000  0.000  0.006
   14  0.005  0.000  0.000  0.006
   15  0.006  0.000  0.000  0.007
   16  0.006  0.000  0.000  0.006
   17  0.006  0.000  0.000  0.007
   18  0.006  0.000  0.000  0.007
   19  0.000  0.001  0.000  0.001
   20  0.002  0.002  0.001  0.005
   21  0.002  0.002  0.001  0.005
   22  0.000  0.001  0.000  0.001
   23  0.002  0.002  0.001  0.005
   24  0.000  0.001  0.000  0.001
   25  0.000  0.001  0.000  0.001
   26  0.000  0.001  0.000  0.001
   27  0.000  0.001  0.000  0.001
   28  0.002  0.000  0.000  0.002
   29  0.004  0.000  0.000  0.004
   30  0.004  0.000  0.000  0.004
   31  0.004  0.000  0.000  0.004
   32  0.004  0.000  0.000  0.004
   33  0.004  0.000  0.000  0.004
   34  0.004  0.000  0.000  0.004
   35  0.002  0.000  0.000  0.002
   36  0.036  0.016  0.065  0.117
   37  0.338  0.006  0.000  0.344
tot    0.504  0.039  0.071  0.614
 
band     7 # energy   -7.90312261 # occ.  2.00000000
 
ion      s      p      d    tot
    1  0.014  0.001  0.000  0.015
    2  0.014  0.001  0.000  0.015
    3  0.014  0.001  0.000  0.015
    4  0.014  0.001  0.000  0.015
    5  0.014  0.001  0.000  0.015
    6  0.014  0.001  0.000  0.015
    7  0.014  0.001  0.000  0.015
    8  0.014  0.001  0.000  0.015
    9  0.013  0.000  0.001  0.014
   10  0.005  0.002  0.000  0.008
   11  0.007  0.002  0.000  0.009
   12  0.005  0.002  0.000  0.008
   13  0.007  0.002  0.000  0.009
   14  0.007  0.002  0.000  0.009
   15  0.005  0.002  0.000  0.007
   16  0.005  0.002  0.000  0.008
   17  0.005  0.002  0.000  0.007
   18  0.005  0.002  0.000  0.007
   19  0.014  0.002  0.000  0.016
   20  0.005  0.001  0.002  0.008
   21  0.005  0.001  0.002  0.008
   22  0.013  0.002  0.001  0.015
   23  0.005  0.001  0.002  0.008
   24  0.013  0.002  0.001  0.015
   25  0.014  0.002  0.000  0.016
   26  0.014  0.002  0.000  0.016
   27  0.013  0.002  0.001  0.015
   28  0.019  0.001  0.000  0.021
   29  0.014  0.001  0.001  0.016
   30  0.014  0.001  0.001  0.016
   31  0.014  0.001  0.001  0.016
   32  0.014  0.001  0.001  0.016
   33  0.014  0.001  0.001  0.016
   34  0.014  0.001  0.001  0.016
   35  0.019  0.001  0.000  0.021
   36  0.000  0.009  0.032  0.041
   37  0.103  0.001  0.000  0.104
tot    0.494  0.056  0.053  0.603
 
band     8 # energy   -6.45446302 # occ.  2.00000000
 
ion      s      p      d    tot
    1  0.016  0.000  0.005  0.021
    2  0.014  0.000  0.005  0.020
    3  0.014  0.000  0.005  0.020
    4  0.014  0.000  0.005  0.020
    5  0.007  0.000  0.006  0.013
    6  0.014  0.000  0.005  0.020
    7  0.014  0.000  0.005  0.020
    8  0.014  0.000  0.005  0.020
    9  0.023  0.000  0.004  0.027
   10  0.003  0.003  0.002  0.008
   11  0.010  0.005  0.001  0.016
   12  0.003  0.003  0.002  0.008
   13  0.010  0.005  0.001  0.016
   14  0.010  0.005  0.001  0.016
   15  0.000  0.003  0.003  0.006
   16  0.003  0.003  0.002  0.008
   17  0.000  0.003  0.003  0.006
   18  0.000  0.003  0.003  0.006
   19  0.001  0.003  0.005  0.009
   20  0.019  0.004  0.003  0.026
   21  0.019  0.004  0.003  0.026
   22  0.001  0.004  0.004  0.008
   23  0.019  0.004  0.003  0.026
   24  0.001  0.004  0.004  0.008
   25  0.001  0.003  0.005  0.009
   26  0.001  0.003  0.005  0.009
   27  0.001  0.004  0.004  0.008
   28  0.022  0.000  0.006  0.028
   29  0.017  0.000  0.008  0.025
   30  0.017  0.000  0.008  0.025
   31  0.017  0.000  0.008  0.025
   32  0.017  0.000  0.008  0.025
   33  0.017  0.000  0.008  0.025
   34  0.017  0.000  0.008  0.025
   35  0.028  0.000  0.006  0.034
   36  0.001  0.000  0.011  0.013
   37  0.000  0.000  0.000  0.000
tot    0.383  0.068  0.174  0.626
 
band     9 # energy   -6.35551881 # occ.  2.00000000
 
ion      s      p      d    tot
    1  0.000  0.003  0.004  0.007
    2  0.007  0.002  0.002  0.011
    3  0.007  0.002  0.002  0.011
    4  0.006  0.002  0.002  0.010
    5  0.000  0.000  0.002  0.002
    6  0.000  0.001  0.002  0.003
    7  0.007  0.002  0.002  0.011
    8  0.000  0.001  0.002  0.003
    9  0.000  0.001  0.004  0.005
   10  0.047  0.002  0.006  0.055
   11  0.000  0.008  0.004  0.011
   12  0.012  0.007  0.007  0.026
   13  0.000  0.008  0.004  0.011
   14  0.000  0.001  0.005  0.006
   15  0.009  0.001  0.012  0.022
   16  0.011  0.007  0.007  0.026
   17  0.010  0.001  0.012  0.023
   18  0.039  0.005  0.002  0.046
   19  0.015  0.006  0.010  0.031
   20  0.028  0.004  0.003  0.035
   21  0.007  0.002  0.012  0.022
   22  0.002  0.010  0.002  0.014
   23  0.007  0.002  0.013  0.021
   24  0.007  0.000  0.006  0.013
   25  0.063  0.003  0.005  0.071
   26  0.016  0.006  0.010  0.032
   27  0.002  0.010  0.002  0.014
   28  0.000  0.004  0.006  0.011
   29  0.007  0.002  0.003  0.012
   30  0.013  0.003  0.004  0.020
   31  0.007  0.002  0.003  0.012
   32  0.001  0.001  0.003  0.006
   33  0.013  0.003  0.004  0.019
   34  0.001  0.001  0.003  0.006
   35  0.000  0.002  0.003  0.005
   36  0.000  0.000  0.005  0.005
   37  0.000  0.000  0.000  0.000
tot    0.346  0.113  0.179  0.638
 
band    10 # energy   -6.35535624 # occ.  2.00000000
 
ion      s      p      d    tot
    1  0.000  0.003  0.004  0.007
    2  0.002  0.001  0.002  0.005
    3  0.002  0.001  0.002  0.005
    4  0.003  0.001  0.002  0.006
    5  0.000  0.000  0.002  0.002
    6  0.009  0.002  0.002  0.013
    7  0.002  0.001  0.002  0.005
    8  0.009  0.002  0.002  0.013
    9  0.000  0.001  0.004  0.005
   10  0.000  0.009  0.007  0.016
   11  0.000  0.003  0.004  0.008
   12  0.035  0.004  0.006  0.045
   13  0.000  0.003  0.004  0.008
   14  0.000  0.010  0.003  0.013
   15  0.030  0.003  0.005  0.038
   16  0.036  0.003  0.006  0.045
   17  0.029  0.003  0.006  0.038
   18  0.000  0.000  0.015  0.015
   19  0.048  0.004  0.007  0.058
   20  0.000  0.001  0.016  0.017
   21  0.021  0.004  0.006  0.030
   22  0.005  0.004  0.005  0.014
   23  0.021  0.004  0.006  0.031
   24  0.000  0.013  0.001  0.014
   25  0.000  0.006  0.011  0.018
   26  0.047  0.004  0.007  0.057
   27  0.005  0.003  0.005  0.014
   28  0.000  0.004  0.006  0.011
   29  0.007  0.002  0.004  0.013
   30  0.001  0.001  0.003  0.005
   31  0.007  0.002  0.004  0.013
   32  0.013  0.003  0.003  0.019
   33  0.001  0.001  0.003  0.005
   34  0.013  0.003  0.003  0.019
   35  0.000  0.002  0.003  0.005
   36  0.000  0.000  0.005  0.005
   37  0.000  0.000  0.000  0.000
tot    0.346  0.113  0.179  0.638
 
band    11 # energy   -6.33420047 # occ.  2.00000000
 
ion      s      p      d    tot
    1  0.020  0.003  0.001  0.024
    2  0.000  0.002  0.004  0.006
    3  0.000  0.002  0.004  0.006
    4  0.000  0.002  0.004  0.006
    5  0.002  0.000  0.000  0.002
    6  0.000  0.002  0.004  0.006
    7  0.000  0.002  0.004  0.006
    8  0.000  0.002  0.004  0.006
    9  0.008  0.001  0.000  0.010
   10  0.029  0.006  0.005  0.041
   11  0.006  0.000  0.011  0.017
   12  0.030  0.006  0.005  0.041
   13  0.006  0.000  0.011  0.017
   14  0.005  0.000  0.011  0.017
   15  0.011  0.008  0.004  0.022
   16  0.030  0.006  0.005  0.041
   17  0.011  0.008  0.004  0.022
   18  0.011  0.008  0.004  0.022
   19  0.023  0.009  0.002  0.035
   20  0.000  0.002  0.011  0.013
   21  0.000  0.003  0.010  0.013
   22  0.025  0.002  0.009  0.036
   23  0.000  0.003  0.010  0.013
   24  0.024  0.002  0.009  0.035
   25  0.023  0.009  0.002  0.035
   26  0.023  0.009  0.002  0.035
   27  0.025  0.002  0.009  0.036
   28  0.020  0.003  0.000  0.023
   29  0.000  0.002  0.005  0.007
   30  0.000  0.002  0.005  0.007
   31  0.000  0.002  0.005  0.007
   32  0.000  0.002  0.005  0.007
   33  0.000  0.002  0.005  0.007
   34  0.000  0.002  0.005  0.007
   35  0.014  0.002  0.001  0.017
   36  0.000  0.000  0.000  0.000
   37  0.000  0.000  0.000  0.000
tot    0.345  0.115  0.180  0.639
 
band    12 # energy   -6.32442272 # occ.  2.00000000
 
ion      s      p      d    tot
    1  0.000  0.000  0.003  0.003
    2  0.007  0.002  0.002  0.011
    3  0.008  0.002  0.002  0.012
    4  0.007  0.002  0.002  0.011
    5  0.000  0.003  0.006  0.009
    6  0.000  0.001  0.002  0.003
    7  0.008  0.002  0.002  0.012
    8  0.000  0.001  0.002  0.003
    9  0.000  0.002  0.003  0.005
   10  0.000  0.004  0.011  0.015
   11  0.046  0.004  0.006  0.056
   12  0.009  0.003  0.005  0.018
   13  0.045  0.004  0.007  0.055
   14  0.000  0.003  0.014  0.017
   15  0.014  0.003  0.005  0.022
   16  0.010  0.003  0.005  0.018
   17  0.013  0.004  0.005  0.022
   18  0.000  0.013  0.002  0.015
   19  0.002  0.003  0.005  0.010
   20  0.000  0.013  0.004  0.017
   21  0.027  0.004  0.006  0.038
   22  0.042  0.004  0.006  0.052
   23  0.028  0.004  0.006  0.038
   24  0.000  0.001  0.017  0.018
   25  0.000  0.007  0.007  0.015
   26  0.002  0.004  0.005  0.010
   27  0.043  0.004  0.006  0.053
   28  0.000  0.000  0.003  0.003
   29  0.006  0.002  0.003  0.011
   30  0.009  0.003  0.004  0.015
   31  0.006  0.002  0.003  0.011
   32  0.000  0.001  0.003  0.004
   33  0.009  0.003  0.004  0.015
   34  0.000  0.001  0.003  0.004
   35  0.000  0.003  0.006  0.008
   36  0.000  0.002  0.005  0.006
   37  0.000  0.000  0.000  0.000
tot    0.342  0.114  0.181  0.636
 
band    13 # energy   -6.32427373 # occ.  2.00000000
 
ion      s      p      d    tot
    1  0.000  0.000  0.003  0.003
    2  0.003  0.001  0.002  0.006
    3  0.002  0.001  0.002  0.005
    4  0.003  0.001  0.002  0.006
    5  0.000  0.003  0.006  0.009
    6  0.010  0.002  0.002  0.015
    7  0.002  0.001  0.002  0.005
    8  0.010  0.002  0.002  0.015
    9  0.000  0.002  0.003  0.005
   10  0.013  0.003  0.003  0.019
   11  0.014  0.003  0.012  0.029
   12  0.003  0.004  0.009  0.016
   13  0.016  0.003  0.012  0.031
   14  0.061  0.004  0.004  0.069
   15  0.004  0.010  0.003  0.018
   16  0.003  0.004  0.009  0.016
   17  0.005  0.010  0.003  0.018
   18  0.018  0.000  0.006  0.025
   19  0.001  0.006  0.007  0.013
   20  0.037  0.001  0.007  0.045
   21  0.010  0.010  0.005  0.024
   22  0.015  0.002  0.013  0.030
   23  0.009  0.010  0.005  0.024
   24  0.057  0.005  0.003  0.065
   25  0.003  0.002  0.004  0.008
   26  0.001  0.006  0.007  0.013
   27  0.013  0.002  0.014  0.029
   28  0.000  0.000  0.003  0.003
   29  0.004  0.002  0.004  0.009
   30  0.001  0.001  0.002  0.005
   31  0.004  0.002  0.004  0.009
   32  0.010  0.003  0.003  0.016
   33  0.002  0.001  0.002  0.005
   34  0.010  0.003  0.003  0.016
   35  0.000  0.003  0.006  0.008
   36  0.000  0.002  0.005  0.006
   37  0.000  0.000  0.000  0.000
tot    0.342  0.114  0.181  0.636
 
band    14 # energy   -6.20537979 # occ.  2.00000000
 
ion      s      p      d    tot
    1  0.000  0.000  0.001  0.001
    2  0.002  0.002  0.006  0.010
    3  0.002  0.002  0.006  0.010
    4  0.002  0.002  0.006  0.010
    5  0.040  0.003  0.000  0.043
    6  0.002  0.002  0.006  0.010
    7  0.002  0.002  0.006  0.010
    8  0.002  0.002  0.006  0.010
    9  0.005  0.002  0.004  0.012
   10  0.003  0.004  0.009  0.016
   11  0.021  0.010  0.004  0.035
   12  0.003  0.004  0.009  0.016
   13  0.021  0.010  0.004  0.035
   14  0.021  0.010  0.004  0.035
   15  0.029  0.002  0.012  0.043
   16  0.003  0.004  0.009  0.016
   17  0.029  0.002  0.012  0.043
   18  0.029  0.002  0.012  0.043
   19  0.006  0.002  0.009  0.017
   20  0.017  0.004  0.008  0.028
   21  0.017  0.004  0.008  0.028
   22  0.007  0.006  0.005  0.018
   23  0.017  0.004  0.008  0.028
   24  0.007  0.006  0.005  0.018
   25  0.006  0.002  0.009  0.017
   26  0.006  0.002  0.009  0.017
   27  0.007  0.006  0.005  0.018
   28  0.001  0.000  0.003  0.004
   29  0.003  0.000  0.003  0.006
   30  0.003  0.000  0.003  0.006
   31  0.003  0.000  0.003  0.006
   32  0.003  0.000  0.003  0.006
   33  0.003  0.000  0.003  0.006
   34  0.003  0.000  0.003  0.006
   35  0.000  0.001  0.002  0.002
   36  0.003  0.002  0.002  0.007
   37  0.006  0.000  0.000  0.006
tot    0.334  0.106  0.205  0.645
 
band    15 # energy   -5.63003130 # occ.  2.00000000
 
ion      s      p      d    tot
    1  0.000  0.004  0.010  0.014
    2  0.003  0.002  0.005  0.010
    3  0.020  0.004  0.005  0.029
    4  0.003  0.002  0.005  0.010
    5  0.000  0.000  0.010  0.010
    6  0.007  0.002  0.005  0.014
    7  0.020  0.004  0.005  0.029
    8  0.007  0.002  0.005  0.014
    9  0.000  0.005  0.008  0.013
   10  0.010  0.001  0.006  0.017
   11  0.001  0.002  0.013  0.016
   12  0.003  0.004  0.014  0.021
   13  0.001  0.002  0.012  0.016
   14  0.004  0.002  0.007  0.013
   15  0.007  0.001  0.017  0.025
   16  0.002  0.004  0.015  0.021
   17  0.007  0.001  0.017  0.026
   18  0.027  0.005  0.005  0.037
   19  0.003  0.002  0.012  0.016
   20  0.000  0.001  0.010  0.011
   21  0.000  0.002  0.014  0.016
   22  0.002  0.002  0.022  0.027
   23  0.000  0.002  0.014  0.016
   24  0.009  0.003  0.003  0.014
   25  0.011  0.006  0.009  0.027
   26  0.003  0.002  0.012  0.017
   27  0.002  0.002  0.023  0.027
   28  0.000  0.004  0.008  0.013
   29  0.005  0.002  0.009  0.016
   30  0.027  0.003  0.009  0.039
   31  0.005  0.002  0.009  0.016
   32  0.008  0.002  0.008  0.019
   33  0.027  0.003  0.009  0.039
   34  0.009  0.002  0.008  0.019
   35  0.000  0.006  0.010  0.016
   36  0.000  0.000  0.013  0.013
   37  0.000  0.000  0.000  0.000
tot    0.234  0.093  0.369  0.696
 
band    16 # energy   -5.63001313 # occ.  2.00000000
 
ion      s      p      d    tot
    1  0.000  0.004  0.010  0.014
    2  0.017  0.003  0.005  0.025
    3  0.000  0.002  0.005  0.007
    4  0.017  0.003  0.005  0.026
    5  0.000  0.000  0.010  0.010
    6  0.013  0.003  0.005  0.021
    7  0.000  0.002  0.005  0.006
    8  0.013  0.003  0.005  0.021
    9  0.000  0.005  0.008  0.013
   10  0.000  0.005  0.017  0.022
   11  0.003  0.002  0.009  0.014
   12  0.007  0.002  0.009  0.018
   13  0.003  0.002  0.009  0.014
   14  0.000  0.002  0.014  0.017
   15  0.021  0.004  0.009  0.033
   16  0.008  0.002  0.009  0.018
   17  0.020  0.004  0.009  0.033
   18  0.000  0.000  0.021  0.022
   19  0.009  0.005  0.010  0.023
   20  0.000  0.002  0.016  0.018
   21  0.000  0.001  0.012  0.013
   22  0.007  0.003  0.010  0.019
   23  0.000  0.001  0.011  0.013
   24  0.000  0.002  0.029  0.031
   25  0.000  0.000  0.013  0.013
   26  0.008  0.005  0.010  0.023
   27  0.007  0.003  0.009  0.019
   28  0.000  0.004  0.008  0.013
   29  0.022  0.003  0.009  0.033
   30  0.000  0.002  0.008  0.010
   31  0.022  0.003  0.009  0.034
   32  0.019  0.003  0.009  0.031
   33  0.000  0.002  0.008  0.010
   34  0.018  0.003  0.009  0.030
   35  0.000  0.006  0.010  0.016
   36  0.000  0.000  0.013  0.013
   37  0.000  0.000  0.000  0.000
tot    0.234  0.093  0.369  0.696
 
band    17 # energy   -5.60845100 # occ.  2.00000000
 
ion      s      p      d    tot
    1  0.005  0.001  0.010  0.015
    2  0.006  0.001  0.010  0.016
    3  0.006  0.001  0.010  0.016
    4  0.006  0.001  0.010  0.016
    5  0.001  0.001  0.010  0.012
    6  0.006  0.001  0.010  0.016
    7  0.006  0.001  0.010  0.016
    8  0.006  0.001  0.010  0.016
    9  0.015  0.000  0.008  0.023
   10  0.008  0.000  0.025  0.033
   11  0.010  0.000  0.022  0.032
   12  0.008  0.000  0.025  0.033
   13  0.010  0.000  0.022  0.032
   14  0.010  0.000  0.022  0.032
   15  0.003  0.000  0.023  0.026
   16  0.008  0.000  0.025  0.033
   17  0.003  0.000  0.023  0.026
   18  0.003  0.000  0.023  0.026
   19  0.005  0.000  0.020  0.025
   20  0.009  0.001  0.025  0.034
   21  0.009  0.001  0.025  0.034
   22  0.003  0.000  0.020  0.023
   23  0.009  0.001  0.025  0.034
   24  0.003  0.000  0.020  0.023
   25  0.005  0.000  0.020  0.025
   26  0.005  0.000  0.020  0.025
   27  0.003  0.000  0.020  0.023
   28  0.002  0.001  0.007  0.009
   29  0.003  0.001  0.008  0.012
   30  0.003  0.001  0.008  0.012
   31  0.003  0.001  0.008  0.012
   32  0.003  0.001  0.008  0.012
   33  0.003  0.001  0.008  0.012
   34  0.003  0.001  0.008  0.012
   35  0.010  0.000  0.006  0.016
   36  0.000  0.001  0.006  0.007
   37  0.000  0.000  0.000  0.001
tot    0.204  0.014  0.555  0.773
 
band    18 # energy   -5.58388685 # occ.  2.00000000
 
ion      s      p      d    tot
    1  0.034  0.003  0.000  0.037
    2  0.000  0.003  0.010  0.013
    3  0.000  0.003  0.010  0.013
    4  0.000  0.003  0.010  0.013
    5  0.000  0.000  0.001  0.001
    6  0.000  0.003  0.010  0.013
    7  0.000  0.003  0.010  0.013
    8  0.000  0.003  0.010  0.013
    9  0.027  0.004  0.001  0.032
   10  0.008  0.003  0.010  0.022
   11  0.001  0.000  0.015  0.016
   12  0.008  0.003  0.010  0.022
   13  0.001  0.000  0.015  0.016
   14  0.001  0.000  0.015  0.016
   15  0.008  0.003  0.015  0.027
   16  0.008  0.003  0.010  0.022
   17  0.008  0.003  0.015  0.027
   18  0.008  0.003  0.015  0.027
   19  0.003  0.003  0.020  0.026
   20  0.000  0.000  0.014  0.014
   21  0.000  0.000  0.014  0.014
   22  0.011  0.004  0.009  0.023
   23  0.000  0.000  0.014  0.014
   24  0.011  0.004  0.009  0.023
   25  0.003  0.003  0.020  0.026
   26  0.003  0.003  0.020  0.026
   27  0.011  0.004  0.009  0.023
   28  0.039  0.003  0.000  0.042
   29  0.000  0.003  0.013  0.016
   30  0.000  0.003  0.013  0.016
   31  0.000  0.003  0.013  0.016
   32  0.000  0.003  0.013  0.016
   33  0.000  0.003  0.013  0.016
   34  0.000  0.003  0.013  0.016
   35  0.028  0.004  0.001  0.033
   36  0.000  0.000  0.000  0.000
   37  0.000  0.000  0.000  0.000
tot    0.226  0.091  0.387  0.705
 
band    19 # energy   -5.56346382 # occ.  2.00000000
 
ion      s      p      d    tot
    1  0.000  0.002  0.009  0.012
    2  0.006  0.002  0.005  0.014
    3  0.018  0.004  0.005  0.028
    4  0.000  0.002  0.005  0.007
    5  0.000  0.006  0.009  0.015
    6  0.004  0.002  0.005  0.012
    7  0.021  0.004  0.005  0.031
    8  0.013  0.003  0.005  0.021
    9  0.000  0.001  0.012  0.013
   10  0.001  0.000  0.017  0.018
   11  0.017  0.004  0.007  0.028
   12  0.008  0.003  0.013  0.024
   13  0.010  0.003  0.015  0.028
   14  0.001  0.002  0.026  0.028
   15  0.000  0.000  0.009  0.010
   16  0.014  0.004  0.009  0.027
   17  0.000  0.002  0.013  0.014
   18  0.000  0.004  0.017  0.021
   19  0.002  0.001  0.008  0.011
   20  0.001  0.001  0.029  0.031
   21  0.011  0.003  0.017  0.031
   22  0.005  0.002  0.012  0.018
   23  0.019  0.005  0.008  0.031
   24  0.000  0.001  0.013  0.015
   25  0.000  0.003  0.022  0.025
   26  0.001  0.002  0.014  0.017
   27  0.008  0.003  0.010  0.021
   28  0.000  0.002  0.013  0.015
   29  0.007  0.002  0.007  0.016
   30  0.017  0.004  0.008  0.029
   31  0.001  0.001  0.006  0.008
   32  0.003  0.002  0.006  0.011
   33  0.019  0.004  0.008  0.030
   34  0.010  0.003  0.007  0.020
   35  0.000  0.001  0.011  0.012
   36  0.000  0.003  0.007  0.010
   37  0.000  0.000  0.000  0.000
tot    0.220  0.089  0.395  0.704
 
band    20 # energy   -5.56346034 # occ.  2.00000000
 
ion      s      p      d    tot
    1  0.000  0.002  0.009  0.012
    2  0.015  0.003  0.005  0.023
    3  0.003  0.002  0.005  0.010
    4  0.021  0.004  0.005  0.030
    5  0.000  0.006  0.009  0.015
    6  0.017  0.003  0.005  0.026
    7  0.000  0.002  0.005  0.007
    8  0.008  0.003  0.005  0.016
    9  0.000  0.001  0.012  0.013
   10  0.015  0.004  0.009  0.028
   11  0.002  0.002  0.025  0.028
   12  0.007  0.002  0.014  0.023
   13  0.009  0.003  0.017  0.028
   14  0.018  0.004  0.006  0.028
   15  0.000  0.003  0.017  0.020
   16  0.001  0.001  0.017  0.019
   17  0.000  0.002  0.014  0.016
   18  0.000  0.000  0.009  0.009
   19  0.000  0.003  0.021  0.024
   20  0.020  0.005  0.006  0.031
   21  0.009  0.003  0.019  0.031
   22  0.004  0.002  0.012  0.018
   23  0.002  0.001  0.028  0.031
   24  0.008  0.003  0.010  0.021
   25  0.002  0.000  0.008  0.010
   26  0.001  0.002  0.016  0.019
   27  0.001  0.001  0.013  0.015
   28  0.000  0.002  0.013  0.015
   29  0.012  0.003  0.007  0.022
   30  0.002  0.002  0.006  0.009
   31  0.018  0.004  0.008  0.029
   32  0.016  0.003  0.008  0.027
   33  0.000  0.001  0.006  0.008
   34  0.009  0.002  0.007  0.018
   35  0.000  0.001  0.011  0.012
   36  0.000  0.003  0.007  0.010
   37  0.000  0.000  0.000  0.000
tot    0.220  0.089  0.395  0.704
 
band    21 # energy   -5.35218806 # occ.  2.00000000
 
ion      s      p      d    tot
    1  0.018  0.002  0.000  0.020
    2  0.000  0.003  0.012  0.015
    3  0.000  0.003  0.012  0.015
    4  0.000  0.003  0.012  0.015
    5  0.044  0.004  0.000  0.047
    6  0.000  0.003  0.012  0.015
    7  0.000  0.003  0.012  0.015
    8  0.000  0.003  0.012  0.015
    9  0.004  0.001  0.000  0.005
   10  0.001  0.001  0.031  0.033
   11  0.003  0.004  0.023  0.030
   12  0.001  0.001  0.031  0.033
   13  0.003  0.004  0.023  0.030
   14  0.003  0.004  0.023  0.030
   15  0.002  0.001  0.008  0.011
   16  0.001  0.001  0.031  0.033
   17  0.002  0.001  0.008  0.011
   18  0.002  0.001  0.008  0.011
   19  0.011  0.001  0.026  0.037
   20  0.013  0.003  0.003  0.019
   21  0.013  0.003  0.003  0.019
   22  0.002  0.002  0.018  0.021
   23  0.013  0.003  0.003  0.019
   24  0.002  0.002  0.018  0.021
   25  0.011  0.001  0.026  0.037
   26  0.011  0.001  0.026  0.037
   27  0.002  0.002  0.018  0.021
   28  0.001  0.002  0.007  0.010
   29  0.001  0.001  0.011  0.013
   30  0.001  0.001  0.011  0.013
   31  0.001  0.001  0.011  0.013
   32  0.001  0.001  0.011  0.013
   33  0.001  0.001  0.011  0.013
   34  0.001  0.001  0.011  0.013
   35  0.002  0.001  0.002  0.005
   36  0.008  0.004  0.001  0.013