PROCAR new format
# of k-points:   10         # of bands:  252         # of ions:   38

 k-point     1 :    0.00000000 0.00000000 0.00000000     weight = 0.01562500

band     1 # energy  -24.47202532 # occ.  2.00000000
 
ion      s      p      d    tot
    1  0.000  0.000  0.000  0.000
    2  0.000  0.000  0.000  0.000
    3  0.000  0.000  0.000  0.000
    4  0.000  0.000  0.000  0.000
    5  0.000  0.000  0.000  0.000
    6  0.000  0.000  0.000  0.000
    7  0.000  0.000  0.000  0.000
    8  0.000  0.000  0.000  0.000
    9  0.000  0.000  0.000  0.000
   10  0.000  0.000  0.000  0.000
   11  0.000  0.000  0.000  0.000
   12  0.000  0.000  0.000  0.000
   13  0.000  0.000  0.000  0.000
   14  0.000  0.000  0.000  0.000
   15  0.000  0.000  0.000  0.000
   16  0.000  0.000  0.000  0.000
   17  0.000  0.000  0.000  0.000
   18  0.000  0.000  0.000  0.000
   19  0.000  0.000  0.000  0.000
   20  0.000  0.000  0.000  0.000
   21  0.000  0.000  0.000  0.000
   22  0.000  0.000  0.000  0.000
   23  0.000  0.000  0.000  0.000
   24  0.000  0.000  0.000  0.000
   25  0.000  0.000  0.000  0.000
   26  0.000  0.000  0.000  0.000
   27  0.000  0.000  0.000  0.000
   28  0.000  0.000  0.000  0.000
   29  0.000  0.000  0.000  0.000
   30  0.000  0.000  0.000  0.000
   31  0.000  0.000  0.000  0.000
   32  0.000  0.000  0.000  0.000
   33  0.000  0.000  0.000  0.000
   34  0.000  0.000  0.000  0.000
   35  0.000  0.000  0.000  0.000
   36  0.000  0.000  0.000  0.001
   37  0.162  0.117  0.000  0.279
   38  0.636  0.097  0.000  0.733
tot    0.798  0.214  0.000  1.013
 
band     2 # energy  -10.78338723 # occ.  2.00000000
 
ion      s      p      d    tot
    1  0.000  0.000  0.000  0.000
    2  0.000  0.000  0.000  0.000
    3  0.000  0.000  0.000  0.000
    4  0.000  0.000  0.000  0.000
    5  0.000  0.000  0.000  0.000
    6  0.000  0.000  0.000  0.000
    7  0.000  0.000  0.000  0.000
    8  0.000  0.000  0.000  0.000
    9  0.000  0.000  0.000  0.000
   10  0.000  0.000  0.000  0.000
   11  0.000  0.000  0.000  0.000
   12  0.000  0.000  0.000  0.000
   13  0.000  0.000  0.000  0.000
   14  0.000  0.000  0.000  0.000
   15  0.000  0.000  0.000  0.000
   16  0.000  0.000  0.000  0.000
   17  0.000  0.000  0.000  0.000
   18  0.000  0.000  0.000  0.000
   19  0.000  0.000  0.000  0.000
   20  0.002  0.001  0.001  0.004
   21  0.002  0.001  0.001  0.004
   22  0.000  0.000  0.000  0.000
   23  0.002  0.001  0.001  0.004
   24  0.000  0.000  0.000  0.000
   25  0.000  0.000  0.000  0.000
   26  0.000  0.000  0.000  0.000
   27  0.000  0.000  0.000  0.000
   28  0.000  0.000  0.000  0.000
   29  0.001  0.000  0.000  0.002
   30  0.001  0.000  0.000  0.002
   31  0.001  0.000  0.000  0.002
   32  0.001  0.000  0.000  0.002
   33  0.001  0.000  0.000  0.002
   34  0.001  0.000  0.000  0.002
   35  0.000  0.000  0.000  0.000
   36  0.104  0.037  0.149  0.290
   37  0.277  0.041  0.000  0.318
   38  0.096  0.090  0.000  0.186
tot    0.495  0.171  0.152  0.818
 
band     3 # energy   -9.21640862 # occ.  2.00000000
 
ion      s      p      d    tot
    1  0.006  0.001  0.000  0.007
    2  0.006  0.001  0.000  0.007
    3  0.006  0.001  0.000  0.007
    4  0.006  0.001  0.000  0.007
    5  0.006  0.001  0.000  0.006
    6  0.006  0.001  0.000  0.007
    7  0.006  0.001  0.000  0.007
    8  0.006  0.001  0.000  0.007
    9  0.006  0.001  0.000  0.007
   10  0.023  0.000  0.000  0.023
   11  0.023  0.000  0.000  0.023
   12  0.023  0.000  0.000  0.023
   13  0.023  0.000  0.000  0.023
   14  0.023  0.000  0.000  0.023
   15  0.023  0.000  0.000  0.023
   16  0.023  0.000  0.000  0.023
   17  0.023  0.000  0.000  0.023
   18  0.023  0.000  0.000  0.023
   19  0.024  0.000  0.000  0.024
   20  0.024  0.000  0.000  0.025
   21  0.024  0.000  0.000  0.025
   22  0.024  0.000  0.000  0.024
   23  0.024  0.000  0.000  0.025
   24  0.024  0.000  0.000  0.024
   25  0.024  0.000  0.000  0.024
   26  0.024  0.000  0.000  0.024
   27  0.024  0.000  0.000  0.024
   28  0.007  0.001  0.000  0.008
   29  0.007  0.001  0.000  0.008
   30  0.007  0.001  0.000  0.008
   31  0.007  0.001  0.000  0.008
   32  0.007  0.001  0.000  0.008
   33  0.007  0.001  0.000  0.008
   34  0.007  0.001  0.000  0.008
   35  0.007  0.001  0.000  0.008
   36  0.011  0.003  0.002  0.016
   37  0.008  0.001  0.000  0.009
   38  0.008  0.021  0.000  0.029
tot    0.556  0.041  0.003  0.599
 
band     4 # energy   -8.27791710 # occ.  2.00000000
 
ion      s      p      d    tot
    1  0.005  0.000  0.000  0.005
    2  0.005  0.000  0.000  0.005
    3  0.005  0.000  0.000  0.005
    4  0.005  0.000  0.000  0.005
    5  0.004  0.000  0.000  0.005
    6  0.005  0.000  0.000  0.005
    7  0.005  0.000  0.000  0.005
    8  0.005  0.000  0.000  0.005
    9  0.005  0.000  0.000  0.005
   10  0.006  0.000  0.000  0.006
   11  0.005  0.000  0.000  0.005
   12  0.006  0.000  0.000  0.006
   13  0.005  0.000  0.000  0.005
   14  0.005  0.000  0.000  0.005
   15  0.006  0.000  0.000  0.007
   16  0.006  0.000  0.000  0.006
   17  0.006  0.000  0.000  0.007
   18  0.006  0.000  0.000  0.007
   19  0.000  0.001  0.000  0.001
   20  0.002  0.002  0.001  0.005
   21  0.002  0.002  0.001  0.005
   22  0.000  0.001  0.000  0.001
   23  0.002  0.002  0.001  0.005
   24  0.000  0.001  0.000  0.001
   25  0.000  0.001  0.000  0.001
   26  0.000  0.001  0.000  0.001
   27  0.000  0.001  0.000  0.001
   28  0.001  0.000  0.000  0.002
   29  0.003  0.000  0.000  0.003
   30  0.003  0.000  0.000  0.003
   31  0.003  0.000  0.000  0.003
   32  0.003  0.000  0.000  0.003
   33  0.003  0.000  0.000  0.003
   34  0.003  0.000  0.000  0.003
   35  0.001  0.000  0.000  0.002
   36  0.067  0.005  0.066  0.137
   37  0.002  0.140  0.000  0.142
   38  0.059  0.339  0.000  0.398
tot    0.248  0.500  0.073  0.821
 
band     5 # energy   -7.86421795 # occ.  2.00000000
 
ion      s      p      d    tot
    1  0.013  0.001  0.000  0.013
    2  0.012  0.001  0.000  0.013
    3  0.012  0.001  0.000  0.013
    4  0.012  0.001  0.000  0.013
    5  0.013  0.001  0.000  0.014
    6  0.012  0.001  0.000  0.013
    7  0.012  0.001  0.000  0.013
    8  0.012  0.001  0.000  0.013
    9  0.012  0.000  0.000  0.013
   10  0.007  0.002  0.000  0.008
   11  0.007  0.001  0.000  0.009
   12  0.007  0.002  0.000  0.008
   13  0.007  0.001  0.000  0.009
   14  0.007  0.001  0.000  0.009
   15  0.006  0.002  0.000  0.008
   16  0.007  0.002  0.000  0.008
   17  0.006  0.002  0.000  0.008
   18  0.006  0.002  0.000  0.008
   19  0.010  0.002  0.000  0.012
   20  0.004  0.002  0.001  0.007
   21  0.004  0.002  0.001  0.007
   22  0.009  0.002  0.000  0.011
   23  0.004  0.002  0.001  0.007
   24  0.009  0.002  0.000  0.011
   25  0.010  0.002  0.000  0.012
   26  0.010  0.002  0.000  0.012
   27  0.009  0.002  0.000  0.011
   28  0.017  0.001  0.000  0.019
   29  0.016  0.001  0.001  0.018
   30  0.016  0.001  0.001  0.018
   31  0.016  0.001  0.001  0.018
   32  0.016  0.001  0.001  0.018
   33  0.016  0.001  0.001  0.018
   34  0.016  0.001  0.001  0.018
   35  0.017  0.001  0.000  0.019
   36  0.002  0.011  0.105  0.118
   37  0.002  0.052  0.000  0.054
   38  0.009  0.072  0.000  0.081
tot    0.385  0.176  0.123  0.683
 
band     6 # energy   -7.43332664 # occ.  2.00000000
 
ion      s      p      d    tot
    1  0.000  0.000  0.000  0.000
    2  0.000  0.000  0.000  0.000
    3  0.000  0.000  0.000  0.000
    4  0.000  0.000  0.000  0.000
    5  0.000  0.000  0.000  0.000
    6  0.000  0.000  0.000  0.000
    7  0.000  0.000  0.000  0.000
    8  0.000  0.000  0.000  0.000
    9  0.000  0.000  0.000  0.000
   10  0.000  0.000  0.000  0.000
   11  0.000  0.000  0.000  0.000
   12  0.000  0.000  0.000  0.000
   13  0.000  0.000  0.000  0.000
   14  0.000  0.000  0.000  0.000
   15  0.000  0.000  0.000  0.000
   16  0.000  0.000  0.000  0.000
   17  0.000  0.000  0.000  0.000
   18  0.000  0.000  0.000  0.000
   19  0.000  0.000  0.000  0.000
   20  0.001  0.000  0.001  0.001
   21  0.000  0.000  0.000  0.001
   22  0.000  0.000  0.000  0.000
   23  0.000  0.000  0.000  0.001
   24  0.000  0.000  0.000  0.000
   25  0.000  0.000  0.000  0.000
   26  0.000  0.000  0.000  0.000
   27  0.000  0.000  0.000  0.000
   28  0.000  0.000  0.000  0.000
   29  0.000  0.000  0.001  0.002
   30  0.000  0.000  0.000  0.000
   31  0.000  0.000  0.001  0.002
   32  0.000  0.000  0.001  0.002
   33  0.000  0.000  0.000  0.000
   34  0.000  0.000  0.001  0.002
   35  0.000  0.000  0.000  0.000
   36  0.000  0.003  0.074  0.077
   37  0.000  0.186  0.000  0.186
   38  0.000  0.414  0.000  0.414
tot    0.002  0.606  0.080  0.688
 
band     7 # energy   -7.43323931 # occ.  2.00000000
 
ion      s      p      d    tot
    1  0.000  0.000  0.000  0.000
    2  0.000  0.000  0.000  0.000
    3  0.000  0.000  0.000  0.000
    4  0.000  0.000  0.000  0.000
    5  0.000  0.000  0.000  0.000
    6  0.000  0.000  0.000  0.000
    7  0.000  0.000  0.000  0.000
    8  0.000  0.000  0.000  0.000
    9  0.000  0.000  0.000  0.000
   10  0.000  0.000  0.000  0.000
   11  0.000  0.000  0.000  0.000
   12  0.000  0.000  0.000  0.000
   13  0.000  0.000  0.000  0.000
   14  0.000  0.000  0.000  0.000
   15  0.000  0.000  0.000  0.000
   16  0.000  0.000  0.000  0.000
   17  0.000  0.000  0.000  0.000
   18  0.000  0.000  0.000  0.000
   19  0.000  0.000  0.000  0.000
   20  0.000  0.000  0.000  0.000
   21  0.001  0.000  0.001  0.001
   22  0.000  0.000  0.000  0.000
   23  0.001  0.000  0.001  0.001
   24  0.000  0.000  0.000  0.000
   25  0.000  0.000  0.000  0.000
   26  0.000  0.000  0.000  0.000
   27  0.000  0.000  0.000  0.000
   28  0.000  0.000  0.000  0.000
   29  0.000  0.000  0.000  0.001
   30  0.000  0.000  0.001  0.002
   31  0.000  0.000  0.000  0.001
   32  0.000  0.000  0.000  0.001
   33  0.000  0.000  0.001  0.002
   34  0.000  0.000  0.000  0.001
   35  0.000  0.000  0.000  0.000
   36  0.000  0.003  0.074  0.077
   37  0.000  0.186  0.000  0.186
   38  0.000  0.414  0.000  0.414
tot    0.002  0.606  0.080  0.688
 
band     8 # energy   -6.47123286 # occ.  2.00000000
 
ion      s      p      d    tot
    1  0.014  0.000  0.004  0.019
    2  0.015  0.000  0.004  0.019
    3  0.015  0.000  0.004  0.019
    4  0.015  0.000  0.004  0.019
    5  0.016  0.000  0.004  0.020
    6  0.015  0.000  0.004  0.019
    7  0.015  0.000  0.004  0.019
    8  0.015  0.000  0.004  0.019
    9  0.016  0.000  0.004  0.020
   10  0.002  0.004  0.001  0.007
   11  0.001  0.003  0.001  0.005
   12  0.002  0.004  0.001  0.007
   13  0.001  0.003  0.001  0.005
   14  0.001  0.003  0.001  0.005
   15  0.002  0.004  0.001  0.006
   16  0.002  0.004  0.001  0.007
   17  0.002  0.004  0.001  0.006
   18  0.002  0.004  0.001  0.006
   19  0.010  0.002  0.003  0.015
   20  0.006  0.003  0.007  0.016
   21  0.007  0.003  0.007  0.016
   22  0.007  0.002  0.004  0.012
   23  0.007  0.003  0.007  0.016
   24  0.007  0.002  0.004  0.012
   25  0.010  0.002  0.003  0.015
   26  0.010  0.002  0.003  0.015
   27  0.007  0.002  0.004  0.012
   28  0.007  0.000  0.006  0.013
   29  0.015  0.001  0.009  0.026
   30  0.015  0.001  0.009  0.026
   31  0.015  0.001  0.009  0.026
   32  0.015  0.001  0.009  0.026
   33  0.015  0.001  0.009  0.026
   34  0.015  0.001  0.009  0.026
   35  0.008  0.000  0.005  0.014
   36  0.046  0.000  0.082  0.128
   37  0.000  0.000  0.000  0.000
   38  0.000  0.001  0.000  0.001
tot    0.375  0.059  0.236  0.670
 
band     9 # energy   -6.29636912 # occ.  2.00000000
 
ion      s      p      d    tot
    1  0.000  0.002  0.004  0.006
    2  0.007  0.002  0.002  0.010
    3  0.001  0.001  0.001  0.003
    4  0.007  0.002  0.002  0.010
    5  0.000  0.002  0.002  0.004
    6  0.002  0.001  0.002  0.005
    7  0.001  0.001  0.001  0.003
    8  0.002  0.001  0.002  0.005
    9  0.000  0.000  0.002  0.002
   10  0.047  0.004  0.003  0.055
   11  0.006  0.008  0.004  0.018
   12  0.012  0.002  0.010  0.023
   13  0.005  0.008  0.004  0.017
   14  0.022  0.000  0.005  0.027
   15  0.001  0.004  0.006  0.011
   16  0.012  0.002  0.009  0.024
   17  0.001  0.004  0.006  0.011
   18  0.005  0.002  0.003  0.009
   19  0.007  0.010  0.003  0.019
   20  0.070  0.003  0.007  0.081
   21  0.017  0.002  0.014  0.034
   22  0.002  0.005  0.007  0.014
   23  0.018  0.002  0.014  0.034
   24  0.006  0.003  0.003  0.012
   25  0.027  0.000  0.007  0.034
   26  0.007  0.010  0.003  0.019
   27  0.002  0.005  0.007  0.014
   28  0.000  0.003  0.004  0.007
   29  0.014  0.004  0.004  0.022
   30  0.006  0.001  0.003  0.010
   31  0.014  0.004  0.004  0.022
   32  0.002  0.001  0.004  0.007
   33  0.006  0.001  0.003  0.011
   34  0.002  0.001  0.004  0.007
   35  0.000  0.000  0.003  0.003
   36  0.000  0.007  0.057  0.064
   37  0.000  0.001  0.000  0.001
   38  0.000  0.007  0.000  0.007
tot    0.328  0.116  0.219  0.663
 
band    10 # energy   -6.29630484 # occ.  2.00000000
 
ion      s      p      d    tot
    1  0.000  0.002  0.004  0.006
    2  0.000  0.001  0.001  0.002
    3  0.006  0.002  0.002  0.009
    4  0.000  0.001  0.001  0.002
    5  0.000  0.002  0.002  0.004
    6  0.005  0.001  0.001  0.007
    7  0.006  0.002  0.002  0.009
    8  0.004  0.001  0.001  0.007
    9  0.000  0.000  0.002  0.002
   10  0.000  0.001  0.012  0.013
   11  0.016  0.003  0.005  0.024
   12  0.036  0.003  0.005  0.045
   13  0.016  0.003  0.005  0.024
   14  0.000  0.011  0.003  0.014
   15  0.004  0.003  0.004  0.010
   16  0.035  0.003  0.005  0.044
   17  0.004  0.003  0.004  0.010
   18  0.000  0.004  0.007  0.011
   19  0.020  0.003  0.005  0.029
   20  0.000  0.002  0.017  0.018
   21  0.053  0.003  0.010  0.066
   22  0.005  0.003  0.004  0.012
   23  0.052  0.003  0.010  0.065
   24  0.000  0.006  0.009  0.014
   25  0.000  0.013  0.001  0.014
   26  0.020  0.003  0.005  0.029
   27  0.005  0.003  0.004  0.012
   28  0.000  0.003  0.004  0.007
   29  0.000  0.001  0.003  0.005
   30  0.008  0.003  0.004  0.016
   31  0.000  0.001  0.003  0.004
   32  0.013  0.003  0.004  0.019
   33  0.008  0.003  0.004  0.015
   34  0.012  0.003  0.004  0.019
   35  0.000  0.000  0.003  0.003
   36  0.000  0.007  0.057  0.064
   37  0.000  0.001  0.000  0.001
   38  0.000  0.007  0.000  0.007
tot    0.329  0.116  0.219  0.663
 
band    11 # energy   -6.24040644 # occ.  2.00000000
 
ion      s      p      d    tot
    1  0.000  0.001  0.002  0.002
    2  0.008  0.002  0.002  0.011
    3  0.001  0.001  0.001  0.004
    4  0.008  0.002  0.002  0.011
    5  0.000  0.001  0.003  0.004
    6  0.002  0.001  0.002  0.005
    7  0.001  0.001  0.001  0.004
    8  0.002  0.001  0.002  0.005
    9  0.000  0.003  0.004  0.007
   10  0.000  0.010  0.003  0.012
   11  0.022  0.003  0.005  0.030
   12  0.001  0.003  0.004  0.008
   13  0.022  0.003  0.005  0.030
   14  0.000  0.000  0.012  0.012
   15  0.035  0.003  0.006  0.043
   16  0.001  0.003  0.004  0.008
   17  0.034  0.003  0.006  0.043
   18  0.000  0.007  0.008  0.015
   19  0.027  0.004  0.005  0.036
   20  0.000  0.014  0.001  0.015
   21  0.002  0.004  0.004  0.011
   22  0.044  0.004  0.006  0.054
   23  0.002  0.004  0.004  0.010
   24  0.000  0.008  0.008  0.017
   25  0.000  0.000  0.016  0.016
   26  0.027  0.003  0.006  0.036
   27  0.045  0.004  0.006  0.055
   28  0.000  0.002  0.005  0.007
   29  0.017  0.003  0.004  0.024
   30  0.004  0.002  0.004  0.011
   31  0.017  0.003  0.004  0.024
   32  0.005  0.001  0.004  0.009
   33  0.004  0.002  0.004  0.010
   34  0.004  0.001  0.004  0.009
   35  0.000  0.005  0.006  0.011
   36  0.000  0.002  0.036  0.037
   37  0.000  0.000  0.000  0.000
   38  0.000  0.001  0.000  0.001
tot    0.336  0.115  0.197  0.648
 
band    12 # energy   -6.24036103 # occ.  2.00000000
 
ion      s      p      d    tot
    1  0.000  0.001  0.002  0.002
    2  0.000  0.001  0.002  0.002
    3  0.006  0.002  0.002  0.010
    4  0.000  0.001  0.002  0.002
    5  0.000  0.001  0.003  0.004
    6  0.005  0.001  0.002  0.008
    7  0.006  0.002  0.002  0.010
    8  0.005  0.001  0.002  0.008
    9  0.000  0.003  0.004  0.007
   10  0.002  0.001  0.005  0.007
   11  0.007  0.001  0.010  0.018
   12  0.000  0.007  0.003  0.011
   13  0.008  0.001  0.010  0.018
   14  0.029  0.004  0.002  0.036
   15  0.011  0.006  0.007  0.024
   16  0.000  0.008  0.003  0.011
   17  0.012  0.006  0.007  0.025
   18  0.046  0.002  0.005  0.053
   19  0.009  0.001  0.013  0.023
   20  0.003  0.001  0.005  0.009
   21  0.001  0.011  0.002  0.013
   22  0.015  0.007  0.007  0.029
   23  0.001  0.011  0.002  0.013
   24  0.059  0.002  0.005  0.067
   25  0.036  0.005  0.002  0.043
   26  0.009  0.001  0.012  0.023
   27  0.015  0.007  0.008  0.029
   28  0.000  0.002  0.005  0.007
   29  0.000  0.001  0.004  0.005
   30  0.013  0.002  0.004  0.018
   31  0.000  0.001  0.004  0.005
   32  0.012  0.003  0.004  0.019
   33  0.013  0.002  0.004  0.019
   34  0.012  0.003  0.004  0.020
   35  0.000  0.005  0.006  0.011
   36  0.000  0.002  0.036  0.037
   37  0.000  0.000  0.000  0.000
   38  0.000  0.001  0.000  0.001
tot    0.336  0.115  0.197  0.648
 
band    13 # energy   -6.19662018 # occ.  2.00000000
 
ion      s      p      d    tot
    1  0.020  0.003  0.001  0.024
    2  0.000  0.002  0.004  0.006
    3  0.000  0.002  0.004  0.006
    4  0.000  0.002  0.004  0.006
    5  0.001  0.000  0.000  0.001
    6  0.000  0.002  0.004  0.006
    7  0.000  0.002  0.004  0.006
    8  0.000  0.002  0.004  0.006
    9  0.009  0.002  0.000  0.011
   10  0.028  0.005  0.006  0.040
   11  0.004  0.001  0.011  0.015
   12  0.028  0.005  0.006  0.040
   13  0.004  0.001  0.011  0.015
   14  0.004  0.001  0.011  0.015
   15  0.014  0.008  0.003  0.025
   16  0.028  0.005  0.006  0.040
   17  0.014  0.008  0.003  0.025
   18  0.014  0.008  0.003  0.025
   19  0.021  0.009  0.002  0.032
   20  0.000  0.002  0.010  0.013
   21  0.000  0.002  0.010  0.013
   22  0.027  0.003  0.009  0.038
   23  0.000  0.002  0.010  0.013
   24  0.027  0.003  0.009  0.038
   25  0.021  0.009  0.002  0.032
   26  0.021  0.009  0.002  0.032
   27  0.027  0.003  0.009  0.038
   28  0.020  0.003  0.000  0.024
   29  0.000  0.002  0.004  0.006
   30  0.000  0.002  0.004  0.006
   31  0.000  0.002  0.004  0.006
   32  0.000  0.002  0.004  0.006
   33  0.000  0.002  0.004  0.006
   34  0.000  0.002  0.004  0.006
   35  0.014  0.003  0.001  0.018
   36  0.000  0.000  0.000  0.000
   37  0.000  0.000  0.000  0.000
   38  0.000  0.000  0.000  0.000
tot    0.347  0.116  0.176  0.639
 
band    14 # energy   -6.17005629 # occ.  2.00000000
 
ion      s      p      d    tot
    1  0.003  0.000  0.000  0.003
    2  0.000  0.002  0.004  0.006
    3  0.000  0.002  0.004  0.006
    4  0.000  0.002  0.004  0.006
    5  0.015  0.003  0.001  0.020
    6  0.000  0.002  0.004  0.006
    7  0.000  0.002  0.004  0.006
    8  0.000  0.002  0.004  0.006
    9  0.013  0.002  0.000  0.015
   10  0.000  0.004  0.008  0.013
   11  0.030  0.009  0.002  0.041
   12  0.000  0.004  0.008  0.013
   13  0.030  0.009  0.002  0.041
   14  0.030  0.009  0.002  0.041
   15  0.016  0.001  0.011  0.028
   16  0.000  0.004  0.008  0.013
   17  0.016  0.001  0.011  0.028
   18  0.016  0.001  0.011  0.028
   19  0.008  0.000  0.012  0.020
   20  0.031  0.006  0.004  0.041
   21  0.031  0.006  0.004  0.041
   22  0.005  0.007  0.005  0.017
   23  0.031  0.006  0.004  0.041
   24  0.005  0.007  0.005  0.017
   25  0.008  0.000  0.012  0.020
   26  0.008  0.000  0.012  0.020
   27  0.005  0.007  0.005  0.017
   28  0.006  0.001  0.000  0.007
   29  0.000  0.002  0.005  0.007
   30  0.000  0.002  0.005  0.007
   31  0.000  0.002  0.005  0.007
   32  0.000  0.002  0.005  0.007
   33  0.000  0.002  0.005  0.007
   34  0.000  0.002  0.005  0.007
   35  0.008  0.001  0.000  0.009
   36  0.016  0.014  0.008  0.038
   37  0.002  0.006  0.000  0.008
   38  0.000  0.004  0.000  0.004
tot    0.337  0.133  0.188  0.658
 
band    15 # energy   -5.64064476 # occ.  2.00000000
 
ion      s      p      d    tot
    1  0.000  0.002  0.006  0.009
    2  0.013  0.003  0.003  0.019
    3  0.000  0.001  0.003  0.005
    4  0.013  0.003  0.003  0.019
    5  0.000  0.000  0.006  0.006
    6  0.008  0.002  0.004  0.014
    7  0.001  0.001  0.003  0.005
    8  0.009  0.002  0.004  0.014
    9  0.000  0.004  0.007  0.011
   10  0.000  0.006  0.005  0.011
   11  0.006  0.002  0.006  0.013
   12  0.006  0.002  0.006  0.014
   13  0.006  0.002  0.006  0.013
   14  0.000  0.002  0.014  0.016
   15  0.024  0.002  0.006  0.032
   16  0.006  0.002  0.006  0.014
   17  0.024  0.002  0.006  0.032
   18  0.000  0.001  0.015  0.016
   19  0.001  0.004  0.006  0.011
   20  0.000  0.001  0.024  0.025
   21  0.000  0.001  0.013  0.014
   22  0.002  0.003  0.007  0.012
   23  0.000  0.001  0.013  0.014
   24  0.000  0.000  0.023  0.023
   25  0.000  0.000  0.003  0.003
   26  0.001  0.004  0.007  0.011
   27  0.002  0.003  0.007  0.012
   28  0.000  0.002  0.004  0.006
   29  0.022  0.002  0.013  0.036
   30  0.000  0.003  0.013  0.015
   31  0.022  0.002  0.013  0.036
   32  0.016  0.001  0.013  0.030
   33  0.000  0.003  0.013  0.016
   34  0.016  0.001  0.013  0.030
   35  0.000  0.004  0.004  0.008
   36  0.000  0.000  0.173  0.173
   37  0.000  0.000  0.000  0.000
   38  0.000  0.001  0.000  0.001
tot    0.199  0.075  0.468  0.742
 
band    16 # energy   -5.64061812 # occ.  2.00000000
 
ion      s      p      d    tot
    1  0.000  0.002  0.006  0.009
    2  0.002  0.001  0.003  0.006
    3  0.014  0.003  0.004  0.021
    4  0.002  0.001  0.003  0.006
    5  0.000  0.000  0.006  0.006
    6  0.006  0.002  0.003  0.011
    7  0.014  0.003  0.004  0.021
    8  0.006  0.002  0.003  0.011
    9  0.000  0.004  0.007  0.011
   10  0.009  0.000  0.006  0.015
   11  0.002  0.002  0.011  0.015
   12  0.002  0.005  0.005  0.012
   13  0.002  0.002  0.011  0.015
   14  0.008  0.002  0.003  0.012
   15  0.008  0.001  0.012  0.021
   16  0.002  0.005  0.005  0.012
   17  0.008  0.001  0.012  0.021
   18  0.032  0.003  0.003  0.038
   19  0.000  0.001  0.004  0.006
   20  0.000  0.000  0.010  0.010
   21  0.000  0.001  0.020  0.022
   22  0.001  0.001  0.018  0.020
   23  0.000  0.001  0.020  0.022
   24  0.003  0.004  0.002  0.009
   25  0.001  0.005  0.008  0.014
   26  0.000  0.001  0.004  0.006
   27  0.001  0.001  0.018  0.020
   28  0.000  0.002  0.004  0.006
   29  0.004  0.002  0.013  0.018
   30  0.025  0.001  0.013  0.039
   31  0.004  0.002  0.013  0.018
   32  0.009  0.003  0.013  0.025
   33  0.025  0.001  0.013  0.039
   34  0.009  0.003  0.013  0.024
   35  0.000  0.004  0.004  0.008
   36  0.000  0.000  0.173  0.173
   37  0.000  0.000  0.000  0.000
   38  0.000  0.001  0.000  0.001
tot    0.199  0.075  0.468  0.742
 
band    17 # energy   -5.57191509 # occ.  2.00000000
 
ion      s      p      d    tot
    1  0.001  0.002  0.010  0.013
    2  0.007  0.001  0.011  0.018
    3  0.007  0.001  0.011  0.018
    4  0.007  0.001  0.011  0.018
    5  0.029  0.000  0.006  0.035
    6  0.007  0.001  0.011  0.018
    7  0.007  0.001  0.011  0.018
    8  0.007  0.001  0.011  0.018
    9  0.003  0.001  0.011  0.015
   10  0.012  0.001  0.019  0.032
   11  0.001  0.001  0.021  0.023
   12  0.012  0.001  0.019  0.032
   13  0.001  0.001  0.021  0.023
   14  0.001  0.001  0.021  0.023
   15  0.013  0.000  0.021  0.034
   16  0.012  0.001  0.019  0.032
   17  0.013  0.000  0.021  0.034
   18  0.014  0.000  0.021  0.034
   19  0.006  0.002  0.011  0.019
   20  0.001  0.000  0.019  0.020
   21  0.001  0.000  0.019  0.020
   22  0.003  0.001  0.011  0.016
   23  0.001  0.000  0.019  0.020
   24  0.003  0.001  0.011  0.016
   25  0.006  0.002  0.011  0.019
   26  0.006  0.002  0.011  0.019
   27  0.003  0.001  0.011  0.016
   28  0.003  0.001  0.002  0.006
   29  0.000  0.002  0.009  0.011
   30  0.000  0.002  0.009  0.011
   31  0.000  0.002  0.009  0.011
   32  0.000  0.002  0.009  0.011
   33  0.000  0.002  0.009  0.011
   34  0.000  0.002  0.009  0.011
   35  0.002  0.001  0.001  0.005
   36  0.033  0.000  0.046  0.079
   37  0.000  0.000  0.000  0.000
   38  0.000  0.000  0.000  0.000
tot    0.227  0.038  0.500  0.765
 
band    18 # energy   -5.52578150 # occ.  2.00000000
 
ion      s      p      d    tot
    1  0.000  0.003  0.010  0.014
    2  0.021  0.004  0.005  0.031
    3  0.001  0.002  0.005  0.008
    4  0.021  0.004  0.005  0.030
    5  0.000  0.006  0.010  0.016
    6  0.011  0.003  0.006  0.020
    7  0.002  0.002  0.005  0.009
    8  0.011  0.003  0.006  0.020
    9  0.000  0.000  0.011  0.011
   10  0.028  0.004  0.006  0.038
   11  0.007  0.004  0.016  0.026
   12  0.007  0.001  0.020  0.027
   13  0.006  0.004  0.016  0.026
   14  0.026  0.003  0.006  0.034
   15  0.000  0.004  0.012  0.016
   16  0.007  0.001  0.019  0.028
   17  0.000  0.004  0.012  0.016
   18  0.000  0.001  0.008  0.009
   19  0.000  0.001  0.017  0.018
   20  0.011  0.008  0.003  0.022
   21  0.003  0.002  0.022  0.027
   22  0.000  0.001  0.007  0.008
   23  0.003  0.002  0.022  0.027
   24  0.002  0.002  0.011  0.015
   25  0.001  0.001  0.003  0.005
   26  0.000  0.001  0.017  0.018
   27  0.001  0.001  0.007  0.008
   28  0.000  0.002  0.006  0.008
   29  0.012  0.003  0.006  0.021
   30  0.001  0.001  0.004  0.005
   31  0.012  0.003  0.006  0.021
   32  0.007  0.002  0.006  0.014
   33  0.001  0.001  0.004  0.006
   34  0.007  0.002  0.006  0.015
   35  0.000  0.000  0.006  0.006
   36  0.000  0.008  0.084  0.093
   37  0.000  0.000  0.000  0.000
   38  0.000  0.007  0.000  0.007
tot    0.208  0.102  0.412  0.722
 
band    19 # energy   -5.52571778 # occ.  2.00000000
 
ion      s      p      d    tot
    1  0.000  0.004  0.010  0.014
    2  0.001  0.002  0.005  0.009
    3  0.021  0.004  0.006  0.031
    4  0.002  0.002  0.005  0.009
    5  0.000  0.006  0.010  0.016
    6  0.011  0.003  0.005  0.020
    7  0.021  0.004  0.006  0.031
    8  0.011  0.003  0.005  0.019
    9  0.000  0.000  0.011  0.011
   10  0.000  0.000  0.024  0.024
   11  0.019  0.003  0.009  0.031
   12  0.021  0.003  0.010  0.035
   13  0.019  0.003  0.009  0.031
   14  0.000  0.004  0.019  0.023
   15  0.000  0.002  0.009  0.011
   16  0.020  0.003  0.011  0.034
   17  0.000  0.002  0.009  0.011
   18  0.000  0.005  0.013  0.019
   19  0.001  0.001  0.008  0.009
   20  0.000  0.000  0.028  0.028
   21  0.008  0.006  0.009  0.024
   22  0.002  0.002  0.010  0.013
   23  0.008  0.006  0.009  0.024
   24  0.000  0.000  0.006  0.006
   25  0.000  0.001  0.022  0.023
   26  0.001  0.001  0.008  0.009
   27  0.002  0.002  0.009  0.013
   28  0.000  0.002  0.006  0.008
   29  0.001  0.001  0.004  0.006
   30  0.012  0.003  0.006  0.022
   31  0.001  0.001  0.004  0.007
   32  0.007  0.002  0.004  0.013
   33  0.012  0.003  0.006  0.022
   34  0.006  0.002  0.004  0.013
   35  0.000  0.000  0.006  0.006
   36  0.000  0.008  0.084  0.093
   37  0.000  0.000  0.000  0.000
   38  0.000  0.007  0.000  0.007
tot    0.208  0.102  0.412  0.722
 
band    20 # energy   -5.43028648 # occ.  2.00000000
 
ion      s      p      d    tot
    1  0.043  0.003  0.000  0.046
    2  0.000  0.003  0.010  0.013
    3  0.000  0.003  0.010  0.013
    4  0.000  0.003  0.010  0.013
    5  0.000  0.000  0.001  0.002
    6  0.000  0.003  0.010  0.013
    7  0.000  0.003  0.010  0.013
    8  0.000  0.003  0.010  0.013
    9  0.020  0.003  0.001  0.024
   10  0.008  0.004  0.012  0.024
   11  0.004  0.000  0.014  0.018
   12  0.008  0.004  0.012  0.024
   13  0.004  0.000  0.014  0.018
   14  0.004  0.000  0.014  0.018
   15  0.006  0.003  0.017  0.026
   16  0.008  0.004  0.012  0.024
   17  0.006  0.003  0.017  0.026
   18  0.006  0.003  0.017  0.026
   19  0.005  0.004  0.018  0.027
   20  0.000  0.000  0.016  0.016
   21  0.000  0.000  0.016  0.016
   22  0.011  0.003  0.010  0.024
   23  0.000  0.000  0.016  0.016
   24  0.011  0.003  0.010  0.024
   25  0.005  0.004  0.018  0.027
   26  0.005  0.004  0.018  0.027
   27  0.011  0.003  0.010  0.024
   28  0.044  0.003  0.000  0.048
   29  0.000  0.003  0.010  0.013
   30  0.000  0.003  0.010  0.013
   31  0.000  0.003  0.010  0.013
   32  0.000  0.003  0.010  0.013
   33  0.000  0.003  0.010  0.013
   34  0.000  0.003  0.010  0.013
   35  0.019  0.003  0.002  0.023
   36  0.001  0.001  0.000  0.002
   37  0.000  0.000  0.000  0.000
   38  0.000  0.000  0.000  0.000
tot    0.229  0.092  0.387  0.708
 
band    21 # energy   -5.40800587 # occ.  2.00000000
 
ion      s      p      d    tot
    1  0.005  0.000  0.002  0.008
    2  0.001  0.002  0.009  0.013
    3  0.001  0.002  0.009  0.013
    4  0.001  0.002  0.009  0.013
    5  0.020  0.004  0.004  0.028
    6  0.001  0.002  0.009  0.013
    7  0.001  0.002  0.009  0.013
    8  0.001  0.002  0.009  0.013
    9  0.025  0.001  0.000  0.027
   10  0.002  0.000  0.020  0.022
   11  0.013  0.003  0.015  0.032
   12  0.002  0.000  0.020  0.022
   13  0.013  0.003  0.015  0.032
   14  0.013  0.003  0.015  0.032
   15  0.002  0.002  0.012  0.016
   16  0.002  0.000  0.020  0.022