PROCAR new format
# of k-points:   10         # of bands:  252         # of ions:   37

 k-point     1 :    0.00000000 0.00000000 0.00000000     weight = 0.01562500

band     1 # energy  -13.60915146 # occ.  2.00000000
 
ion      s      p      d    tot
    1  0.000  0.000  0.000  0.000
    2  0.000  0.000  0.000  0.000
    3  0.000  0.000  0.000  0.000
    4  0.000  0.000  0.000  0.000
    5  0.000  0.000  0.000  0.000
    6  0.000  0.000  0.000  0.000
    7  0.000  0.000  0.000  0.000
    8  0.000  0.000  0.000  0.000
    9  0.000  0.000  0.000  0.000
   10  0.000  0.000  0.000  0.000
   11  0.000  0.000  0.000  0.000
   12  0.000  0.000  0.000  0.000
   13  0.000  0.000  0.000  0.000
   14  0.000  0.000  0.000  0.000
   15  0.000  0.000  0.000  0.000
   16  0.000  0.000  0.000  0.000
   17  0.000  0.000  0.000  0.000
   18  0.000  0.000  0.000  0.000
   19  0.000  0.000  0.000  0.000
   20  0.000  0.000  0.000  0.000
   21  0.000  0.000  0.000  0.000
   22  0.000  0.000  0.000  0.000
   23  0.000  0.000  0.000  0.000
   24  0.000  0.000  0.000  0.000
   25  0.000  0.000  0.000  0.000
   26  0.000  0.000  0.000  0.000
   27  0.000  0.000  0.000  0.000
   28  0.000  0.000  0.000  0.000
   29  0.000  0.000  0.000  0.001
   30  0.000  0.000  0.000  0.001
   31  0.000  0.000  0.000  0.001
   32  0.000  0.000  0.000  0.001
   33  0.000  0.000  0.000  0.001
   34  0.000  0.000  0.000  0.001
   35  0.000  0.000  0.000  0.000
   36  0.071  0.068  0.086  0.225
   37  0.615  0.020  0.000  0.635
tot    0.688  0.089  0.087  0.865
 
band     2 # energy   -8.80829351 # occ.  2.00000000
 
ion      s      p      d    tot
    1  0.007  0.001  0.000  0.007
    2  0.007  0.001  0.000  0.007
    3  0.007  0.001  0.000  0.007
    4  0.007  0.001  0.000  0.007
    5  0.007  0.001  0.000  0.007
    6  0.007  0.001  0.000  0.007
    7  0.007  0.001  0.000  0.007
    8  0.007  0.001  0.000  0.007
    9  0.007  0.001  0.000  0.007
   10  0.025  0.000  0.000  0.025
   11  0.025  0.000  0.000  0.025
   12  0.025  0.000  0.000  0.025
   13  0.025  0.000  0.000  0.025
   14  0.025  0.000  0.000  0.025
   15  0.025  0.000  0.000  0.025
   16  0.025  0.000  0.000  0.025
   17  0.025  0.000  0.000  0.025
   18  0.025  0.000  0.000  0.025
   19  0.025  0.000  0.000  0.025
   20  0.025  0.000  0.000  0.025
   21  0.025  0.000  0.000  0.025
   22  0.025  0.000  0.000  0.025
   23  0.025  0.000  0.000  0.025
   24  0.025  0.000  0.000  0.025
   25  0.025  0.000  0.000  0.025
   26  0.025  0.000  0.000  0.025
   27  0.025  0.000  0.000  0.025
   28  0.007  0.001  0.000  0.007
   29  0.006  0.001  0.000  0.007
   30  0.006  0.001  0.000  0.007
   31  0.006  0.001  0.000  0.007
   32  0.006  0.001  0.000  0.007
   33  0.006  0.001  0.000  0.007
   34  0.006  0.001  0.000  0.007
   35  0.007  0.001  0.000  0.007
   36  0.005  0.002  0.000  0.008
   37  0.002  0.000  0.000  0.002
tot    0.564  0.018  0.001  0.584
 
band     3 # energy   -7.48233837 # occ.  2.00000000
 
ion      s      p      d    tot
    1  0.019  0.001  0.001  0.020
    2  0.019  0.001  0.001  0.020
    3  0.019  0.001  0.001  0.020
    4  0.019  0.001  0.001  0.020
    5  0.018  0.001  0.001  0.020
    6  0.019  0.001  0.001  0.020
    7  0.019  0.001  0.001  0.020
    8  0.019  0.001  0.001  0.020
    9  0.019  0.001  0.001  0.020
   10  0.010  0.002  0.001  0.013
   11  0.010  0.002  0.001  0.013
   12  0.010  0.002  0.001  0.013
   13  0.010  0.002  0.001  0.013
   14  0.010  0.002  0.001  0.013
   15  0.010  0.002  0.001  0.013
   16  0.010  0.002  0.001  0.013
   17  0.010  0.002  0.001  0.013
   18  0.010  0.002  0.001  0.013
   19  0.011  0.002  0.001  0.014
   20  0.010  0.002  0.001  0.013
   21  0.010  0.002  0.001  0.013
   22  0.011  0.002  0.001  0.014
   23  0.010  0.002  0.001  0.013
   24  0.011  0.002  0.001  0.014
   25  0.011  0.002  0.001  0.014
   26  0.011  0.002  0.001  0.014
   27  0.011  0.002  0.001  0.014
   28  0.018  0.001  0.000  0.019
   29  0.017  0.001  0.000  0.018
   30  0.017  0.001  0.000  0.018
   31  0.017  0.001  0.000  0.018
   32  0.017  0.001  0.000  0.018
   33  0.017  0.001  0.000  0.018
   34  0.017  0.001  0.000  0.018
   35  0.018  0.001  0.000  0.019
   36  0.013  0.003  0.003  0.019
   37  0.003  0.000  0.000  0.003
tot    0.505  0.058  0.022  0.585
 
band     4 # energy   -5.85329882 # occ.  2.00000000
 
ion      s      p      d    tot
    1  0.011  0.000  0.004  0.014
    2  0.008  0.001  0.005  0.014
    3  0.008  0.001  0.005  0.014
    4  0.008  0.001  0.005  0.014
    5  0.000  0.001  0.005  0.007
    6  0.008  0.001  0.005  0.014
    7  0.008  0.001  0.005  0.014
    8  0.008  0.001  0.005  0.014
    9  0.027  0.001  0.001  0.029
   10  0.002  0.003  0.005  0.010
   11  0.022  0.007  0.001  0.030
   12  0.002  0.003  0.005  0.010
   13  0.022  0.007  0.001  0.030
   14  0.022  0.007  0.001  0.030
   15  0.003  0.002  0.007  0.012
   16  0.002  0.003  0.005  0.010
   17  0.003  0.002  0.007  0.012
   18  0.003  0.002  0.007  0.012
   19  0.000  0.002  0.008  0.010
   20  0.030  0.006  0.003  0.039
   21  0.030  0.006  0.003  0.039
   22  0.001  0.005  0.004  0.010
   23  0.030  0.006  0.003  0.039
   24  0.001  0.005  0.004  0.010
   25  0.000  0.002  0.008  0.010
   26  0.000  0.002  0.008  0.010
   27  0.001  0.005  0.004  0.010
   28  0.017  0.000  0.002  0.019
   29  0.009  0.001  0.006  0.016
   30  0.009  0.001  0.006  0.016
   31  0.009  0.001  0.006  0.016
   32  0.009  0.001  0.006  0.016
   33  0.009  0.001  0.006  0.016
   34  0.009  0.001  0.006  0.016
   35  0.028  0.001  0.002  0.031
   36  0.001  0.002  0.022  0.025
   37  0.000  0.002  0.000  0.002
tot    0.363  0.090  0.184  0.637
 
band     5 # energy   -5.82802672 # occ.  2.00000000
 
ion      s      p      d    tot
    1  0.000  0.001  0.004  0.005
    2  0.008  0.002  0.002  0.012
    3  0.000  0.001  0.002  0.003
    4  0.005  0.002  0.002  0.008
    5  0.000  0.003  0.005  0.008
    6  0.006  0.002  0.002  0.010
    7  0.000  0.001  0.002  0.003
    8  0.008  0.002  0.002  0.013
    9  0.000  0.001  0.002  0.003
   10  0.035  0.005  0.003  0.042
   11  0.021  0.006  0.007  0.034
   12  0.004  0.001  0.013  0.018
   13  0.006  0.008  0.008  0.022
   14  0.050  0.002  0.006  0.058
   15  0.001  0.007  0.004  0.011
   16  0.015  0.002  0.010  0.026
   17  0.000  0.010  0.003  0.013
   18  0.001  0.001  0.005  0.007
   19  0.001  0.008  0.004  0.013
   20  0.060  0.002  0.006  0.069
   21  0.007  0.007  0.010  0.025
   22  0.004  0.001  0.015  0.020
   23  0.026  0.006  0.009  0.040
   24  0.033  0.005  0.002  0.041
   25  0.004  0.001  0.006  0.010
   26  0.000  0.011  0.003  0.014
   27  0.014  0.002  0.011  0.027
   28  0.000  0.001  0.003  0.004
   29  0.011  0.003  0.003  0.017
   30  0.000  0.001  0.002  0.003
   31  0.008  0.002  0.003  0.014
   32  0.006  0.002  0.002  0.010
   33  0.001  0.001  0.003  0.005
   34  0.010  0.003  0.003  0.015
   35  0.000  0.001  0.005  0.006
   36  0.000  0.006  0.008  0.014
   37  0.000  0.000  0.000  0.000
tot    0.348  0.118  0.178  0.643
 
band     6 # energy   -5.82801620 # occ.  2.00000000
 
ion      s      p      d    tot
    1  0.000  0.001  0.004  0.005
    2  0.001  0.001  0.002  0.004
    3  0.009  0.002  0.002  0.013
    4  0.004  0.001  0.002  0.008
    5  0.000  0.003  0.005  0.008
    6  0.003  0.001  0.002  0.006
    7  0.009  0.002  0.002  0.013
    8  0.001  0.001  0.002  0.003
    9  0.000  0.001  0.002  0.003
   10  0.001  0.000  0.014  0.016
   11  0.031  0.005  0.007  0.042
   12  0.031  0.004  0.004  0.039
   13  0.046  0.003  0.006  0.055
   14  0.002  0.008  0.008  0.018
   15  0.001  0.005  0.004  0.010
   16  0.021  0.003  0.007  0.031
   17  0.001  0.002  0.005  0.008
   18  0.000  0.011  0.003  0.014
   19  0.002  0.006  0.004  0.012
   20  0.002  0.008  0.010  0.020
   21  0.055  0.003  0.007  0.065
   22  0.031  0.004  0.004  0.039
   23  0.037  0.005  0.008  0.049
   24  0.001  0.001  0.016  0.018
   25  0.000  0.012  0.002  0.015
   26  0.003  0.002  0.005  0.010
   27  0.021  0.003  0.008  0.032
   28  0.000  0.001  0.003  0.004
   29  0.001  0.001  0.002  0.004
   30  0.012  0.003  0.003  0.018
   31  0.004  0.002  0.002  0.008
   32  0.006  0.002  0.003  0.011
   33  0.011  0.003  0.003  0.017
   34  0.002  0.001  0.003  0.006
   35  0.000  0.001  0.005  0.006
   36  0.000  0.006  0.008  0.014
   37  0.000  0.000  0.000  0.000
tot    0.348  0.118  0.178  0.643
 
band     7 # energy   -5.80626422 # occ.  2.00000000
 
ion      s      p      d    tot
    1  0.024  0.003  0.000  0.027
    2  0.001  0.002  0.004  0.007
    3  0.000  0.002  0.004  0.006
    4  0.001  0.002  0.004  0.007
    5  0.000  0.000  0.001  0.001
    6  0.001  0.001  0.004  0.006
    7  0.000  0.002  0.004  0.006
    8  0.001  0.001  0.004  0.006
    9  0.006  0.002  0.001  0.009
   10  0.027  0.004  0.007  0.038
   11  0.004  0.001  0.011  0.016
   12  0.022  0.004  0.007  0.034
   13  0.004  0.001  0.011  0.016
   14  0.003  0.001  0.010  0.014
   15  0.016  0.009  0.002  0.027
   16  0.022  0.004  0.007  0.034
   17  0.016  0.009  0.002  0.027
   18  0.022  0.008  0.002  0.032
   19  0.019  0.008  0.003  0.030
   20  0.000  0.002  0.011  0.013
   21  0.000  0.002  0.010  0.012
   22  0.031  0.004  0.008  0.043
   23  0.000  0.002  0.010  0.012
   24  0.026  0.004  0.009  0.038
   25  0.013  0.010  0.002  0.025
   26  0.019  0.008  0.003  0.030
   27  0.031  0.004  0.008  0.043
   28  0.024  0.002  0.000  0.026
   29  0.001  0.002  0.004  0.007
   30  0.000  0.002  0.004  0.006
   31  0.001  0.002  0.004  0.007
   32  0.001  0.002  0.004  0.007
   33  0.000  0.002  0.004  0.006
   34  0.001  0.002  0.004  0.007
   35  0.009  0.003  0.003  0.014
   36  0.000  0.000  0.000  0.001
   37  0.000  0.000  0.000  0.000
tot    0.348  0.114  0.177  0.639
 
band     8 # energy   -5.80545238 # occ.  2.00000000
 
ion      s      p      d    tot
    1  0.000  0.002  0.003  0.006
    2  0.010  0.002  0.002  0.014
    3  0.002  0.001  0.002  0.006
    4  0.003  0.001  0.002  0.006
    5  0.000  0.000  0.003  0.003
    6  0.004  0.002  0.002  0.008
    7  0.002  0.001  0.002  0.004
    8  0.010  0.002  0.003  0.015
    9  0.000  0.003  0.006  0.008
   10  0.004  0.011  0.003  0.018
   11  0.003  0.004  0.008  0.015
   12  0.026  0.000  0.007  0.033
   13  0.007  0.003  0.003  0.013
   14  0.002  0.005  0.009  0.015
   15  0.019  0.003  0.012  0.033
   16  0.007  0.009  0.004  0.020
   17  0.062  0.004  0.004  0.070
   18  0.010  0.003  0.013  0.026
   19  0.021  0.002  0.012  0.035
   20  0.001  0.006  0.008  0.014
   21  0.005  0.003  0.004  0.012
   22  0.029  0.001  0.007  0.037
   23  0.002  0.005  0.007  0.014
   24  0.006  0.011  0.004  0.021
   25  0.012  0.002  0.014  0.028
   26  0.058  0.005  0.003  0.066
   27  0.011  0.009  0.004  0.024
   28  0.000  0.003  0.006  0.008
   29  0.010  0.003  0.002  0.015
   30  0.001  0.001  0.002  0.004
   31  0.005  0.002  0.003  0.009
   32  0.002  0.001  0.002  0.006
   33  0.003  0.001  0.002  0.007
   34  0.010  0.002  0.002  0.015
   35  0.000  0.003  0.004  0.007
   36  0.000  0.000  0.003  0.003
   37  0.000  0.000  0.000  0.000
tot    0.346  0.116  0.178  0.640
 
band     9 # energy   -5.80544921 # occ.  2.00000000
 
ion      s      p      d    tot
    1  0.000  0.002  0.003  0.006
    2  0.000  0.001  0.002  0.003
    3  0.008  0.002  0.002  0.012
    4  0.007  0.002  0.003  0.011
    5  0.000  0.000  0.003  0.003
    6  0.006  0.002  0.002  0.010
    7  0.009  0.002  0.002  0.013
    8  0.000  0.001  0.002  0.003
    9  0.000  0.003  0.006  0.008
   10  0.018  0.003  0.006  0.027
   11  0.005  0.003  0.005  0.013
   12  0.000  0.013  0.002  0.016
   13  0.000  0.005  0.010  0.015
   14  0.007  0.003  0.005  0.015
   15  0.044  0.003  0.007  0.055
   16  0.019  0.004  0.005  0.029
   17  0.001  0.002  0.015  0.018
   18  0.046  0.004  0.006  0.056
   19  0.038  0.004  0.007  0.049
   20  0.004  0.003  0.004  0.011
   21  0.000  0.006  0.009  0.015
   22  0.000  0.013  0.003  0.016
   23  0.004  0.004  0.006  0.014
   24  0.029  0.003  0.006  0.037
   25  0.053  0.003  0.006  0.062
   26  0.000  0.001  0.017  0.018
   27  0.018  0.005  0.006  0.029
   28  0.000  0.003  0.006  0.008
   29  0.000  0.001  0.002  0.003
   30  0.010  0.002  0.003  0.015
   31  0.006  0.002  0.002  0.009
   32  0.008  0.002  0.003  0.013
   33  0.008  0.002  0.002  0.012
   34  0.000  0.001  0.003  0.004
   35  0.000  0.003  0.004  0.007
   36  0.000  0.000  0.003  0.003
   37  0.000  0.000  0.000  0.000
tot    0.346  0.116  0.178  0.640
 
band    10 # energy   -5.78114231 # occ.  2.00000000
 
ion      s      p      d    tot
    1  0.001  0.001  0.004  0.006
    2  0.008  0.001  0.006  0.015
    3  0.008  0.001  0.006  0.015
    4  0.008  0.001  0.006  0.015
    5  0.039  0.001  0.001  0.042
    6  0.008  0.001  0.006  0.015
    7  0.008  0.001  0.006  0.015
    8  0.008  0.001  0.006  0.015
    9  0.001  0.001  0.006  0.008
   10  0.011  0.005  0.004  0.020
   11  0.007  0.005  0.006  0.018
   12  0.011  0.005  0.004  0.020
   13  0.007  0.005  0.006  0.018
   14  0.008  0.005  0.006  0.018
   15  0.016  0.002  0.007  0.025
   16  0.011  0.005  0.004  0.020
   17  0.016  0.002  0.007  0.025
   18  0.016  0.002  0.007  0.025
   19  0.017  0.003  0.006  0.026
   20  0.008  0.005  0.004  0.018
   21  0.008  0.005  0.004  0.018
   22  0.004  0.005  0.005  0.014
   23  0.008  0.005  0.004  0.018
   24  0.004  0.005  0.005  0.014
   25  0.017  0.003  0.006  0.026
   26  0.017  0.003  0.006  0.026
   27  0.004  0.005  0.005  0.014
   28  0.001  0.001  0.006  0.007
   29  0.008  0.001  0.005  0.014
   30  0.008  0.001  0.005  0.014
   31  0.008  0.001  0.005  0.014
   32  0.008  0.001  0.005  0.014
   33  0.008  0.001  0.005  0.014
   34  0.008  0.001  0.005  0.014
   35  0.003  0.000  0.003  0.007
   36  0.029  0.004  0.005  0.038
   37  0.004  0.001  0.000  0.004
tot    0.362  0.096  0.187  0.645
 
band    11 # energy   -5.07595927 # occ.  2.00000000
 
ion      s      p      d    tot
    1  0.012  0.000  0.005  0.017
    2  0.003  0.002  0.009  0.014
    3  0.003  0.002  0.009  0.014
    4  0.003  0.002  0.009  0.014
    5  0.006  0.004  0.008  0.017
    6  0.003  0.002  0.009  0.014
    7  0.003  0.002  0.009  0.014
    8  0.003  0.002  0.009  0.014
    9  0.019  0.000  0.003  0.022
   10  0.003  0.000  0.023  0.026
   11  0.018  0.002  0.016  0.036
   12  0.003  0.000  0.023  0.026
   13  0.018  0.002  0.016  0.036
   14  0.018  0.002  0.016  0.036
   15  0.000  0.001  0.017  0.018
   16  0.003  0.000  0.023  0.026
   17  0.000  0.001  0.017  0.018
   18  0.000  0.001  0.017  0.018
   19  0.000  0.000  0.014  0.014
   20  0.013  0.003  0.023  0.039
   21  0.013  0.003  0.023  0.039
   22  0.001  0.000  0.021  0.022
   23  0.013  0.003  0.023  0.039
   24  0.001  0.000  0.021  0.022
   25  0.000  0.000  0.014  0.014
   26  0.000  0.000  0.014  0.014
   27  0.001  0.000  0.021  0.022
   28  0.008  0.000  0.003  0.010
   29  0.002  0.001  0.007  0.011
   30  0.002  0.001  0.007  0.011
   31  0.002  0.001  0.007  0.011
   32  0.002  0.001  0.007  0.011
   33  0.002  0.001  0.007  0.011
   34  0.002  0.001  0.007  0.011
   35  0.014  0.000  0.003  0.017
   36  0.009  0.004  0.034  0.047
   37  0.002  0.009  0.000  0.011
tot    0.208  0.051  0.496  0.756
 
band    12 # energy   -5.05155408 # occ.  2.00000000
 
ion      s      p      d    tot
    1  0.000  0.002  0.010  0.012
    2  0.006  0.002  0.005  0.014
    3  0.022  0.004  0.005  0.031
    4  0.005  0.002  0.005  0.012
    5  0.000  0.006  0.009  0.015
    6  0.005  0.002  0.005  0.012
    7  0.022  0.004  0.005  0.031
    8  0.006  0.002  0.005  0.013
    9  0.000  0.002  0.012  0.014
   10  0.000  0.001  0.017  0.018
   11  0.018  0.004  0.010  0.032
   12  0.009  0.003  0.011  0.023
   13  0.017  0.004  0.011  0.031
   14  0.000  0.002  0.026  0.027
   15  0.001  0.001  0.010  0.012
   16  0.010  0.003  0.010  0.023
   17  0.001  0.001  0.011  0.013
   18  0.000  0.004  0.018  0.023
   19  0.001  0.001  0.010  0.012
   20  0.000  0.001  0.031  0.032
   21  0.012  0.004  0.012  0.028
   22  0.007  0.003  0.011  0.022
   23  0.013  0.004  0.010  0.028
   24  0.000  0.001  0.013  0.014
   25  0.000  0.003  0.021  0.025
   26  0.001  0.001  0.011  0.013
   27  0.008  0.004  0.011  0.023
   28  0.000  0.001  0.011  0.013
   29  0.007  0.002  0.005  0.015
   30  0.022  0.004  0.005  0.031
   31  0.006  0.002  0.005  0.014
   32  0.004  0.002  0.005  0.011
   33  0.022  0.004  0.005  0.031
   34  0.005  0.002  0.005  0.012
   35  0.000  0.002  0.009  0.010
   36  0.000  0.009  0.007  0.016
   37  0.000  0.001  0.000  0.001
tot    0.231  0.099  0.375  0.704
 
band    13 # energy   -5.05152336 # occ.  2.00000000
 
ion      s      p      d    tot
    1  0.000  0.002  0.010  0.012
    2  0.016  0.003  0.005  0.024
    3  0.000  0.002  0.005  0.007
    4  0.017  0.003  0.005  0.026
    5  0.000  0.006  0.009  0.015
    6  0.017  0.003  0.006  0.026
    7  0.000  0.002  0.005  0.007
    8  0.016  0.003  0.006  0.024
    9  0.000  0.002  0.012  0.014
   10  0.013  0.004  0.008  0.025
   11  0.005  0.002  0.021  0.028
   12  0.004  0.002  0.015  0.020
   13  0.006  0.002  0.020  0.029
   14  0.024  0.004  0.005  0.033
   15  0.000  0.003  0.016  0.020
   16  0.003  0.001  0.015  0.020
   17  0.000  0.003  0.015  0.019
   18  0.002  0.000  0.008  0.009
   19  0.000  0.002  0.018  0.021
   20  0.017  0.005  0.004  0.026
   21  0.005  0.002  0.023  0.030
   22  0.003  0.002  0.012  0.017
   23  0.004  0.002  0.025  0.031
   24  0.010  0.004  0.011  0.025
   25  0.001  0.000  0.007  0.008
   26  0.000  0.002  0.018  0.020
   27  0.002  0.001  0.012  0.016
   28  0.000  0.001  0.011  0.013
   29  0.015  0.003  0.005  0.023
   30  0.000  0.002  0.005  0.007
   31  0.016  0.003  0.005  0.024
   32  0.018  0.003  0.005  0.027
   33  0.000  0.002  0.005  0.007
   34  0.017  0.003  0.005  0.026
   35  0.000  0.002  0.009  0.010
   36  0.000  0.009  0.007  0.016
   37  0.000  0.001  0.000  0.001
tot    0.231  0.099  0.375  0.704
 
band    14 # energy   -5.02903513 # occ.  2.00000000
 
ion      s      p      d    tot
    1  0.035  0.004  0.000  0.039
    2  0.000  0.003  0.010  0.014
    3  0.000  0.003  0.010  0.014
    4  0.000  0.003  0.010  0.014
    5  0.000  0.000  0.000  0.000
    6  0.000  0.003  0.010  0.014
    7  0.000  0.003  0.010  0.014
    8  0.000  0.003  0.010  0.014
    9  0.030  0.003  0.000  0.034
   10  0.010  0.004  0.010  0.024
   11  0.001  0.000  0.015  0.016
   12  0.009  0.004  0.010  0.024
   13  0.001  0.000  0.015  0.016
   14  0.001  0.000  0.015  0.016
   15  0.006  0.003  0.018  0.028
   16  0.010  0.004  0.010  0.024
   17  0.006  0.003  0.018  0.028
   18  0.007  0.003  0.017  0.028
   19  0.005  0.004  0.018  0.027
   20  0.000  0.000  0.016  0.016
   21  0.000  0.000  0.015  0.016
   22  0.011  0.003  0.010  0.024
   23  0.000  0.000  0.015  0.016
   24  0.010  0.003  0.010  0.024
   25  0.005  0.004  0.019  0.027
   26  0.005  0.004  0.018  0.027
   27  0.011  0.003  0.010  0.024
   28  0.036  0.003  0.000  0.039
   29  0.000  0.003  0.010  0.013
   30  0.000  0.003  0.010  0.013
   31  0.000  0.003  0.010  0.013
   32  0.000  0.003  0.010  0.013
   33  0.000  0.003  0.010  0.013
   34  0.000  0.003  0.010  0.013
   35  0.027  0.003  0.001  0.031
   36  0.000  0.000  0.000  0.000
   37  0.000  0.000  0.000  0.000
tot    0.227  0.093  0.385  0.705
 
band    15 # energy   -5.02486770 # occ.  2.00000000
 
ion      s      p      d    tot
    1  0.000  0.005  0.011  0.015
    2  0.005  0.002  0.005  0.013
    3  0.021  0.004  0.006  0.031
    4  0.005  0.002  0.005  0.012
    5  0.000  0.000  0.012  0.012
    6  0.006  0.002  0.005  0.013
    7  0.021  0.004  0.006  0.031
    8  0.006  0.002  0.005  0.013
    9  0.000  0.005  0.008  0.013
   10  0.011  0.002  0.006  0.018
   11  0.000  0.002  0.014  0.016
   12  0.003  0.003  0.021  0.027
   13  0.000  0.002  0.014  0.016
   14  0.002  0.001  0.010  0.013
   15  0.005  0.001  0.018  0.025
   16  0.003  0.003  0.021  0.027
   17  0.006  0.001  0.018  0.025
   18  0.021  0.006  0.007  0.034
   19  0.005  0.001  0.019  0.025
   20  0.002  0.001  0.011  0.014
   21  0.001  0.002  0.014  0.017
   22  0.002  0.003  0.022  0.027
   23  0.001  0.002  0.014  0.017
   24  0.010  0.002  0.005  0.017
   25  0.021  0.006  0.007  0.033
   26  0.005  0.001  0.019  0.025
   27  0.002  0.003  0.022  0.027
   28  0.000  0.005  0.007  0.012
   29  0.007  0.002  0.005  0.014
   30  0.021  0.004  0.005  0.029
   31  0.006  0.002  0.005  0.014
   32  0.004  0.002  0.005  0.011
   33  0.021  0.004  0.005  0.029
   34  0.004  0.002  0.005  0.012
   35  0.000  0.004  0.011  0.015
   36  0.000  0.000  0.011  0.011
   37  0.000  0.000  0.000  0.000
tot    0.226  0.094  0.384  0.705
 
band    16 # energy   -5.02483416 # occ.  2.00000000
 
ion      s      p      d    tot
    1  0.000  0.005  0.011  0.015
    2  0.016  0.003  0.005  0.025
    3  0.000  0.002  0.005  0.007
    4  0.016  0.003  0.005  0.025
    5  0.000  0.000  0.012  0.012
    6  0.016  0.003  0.006  0.025
    7  0.000  0.002  0.005  0.007
    8  0.016  0.003  0.006  0.025
    9  0.000  0.005  0.008  0.013
   10  0.000  0.003  0.027  0.030
   11  0.001  0.001  0.011  0.014
   12  0.008  0.002  0.011  0.021
   13  0.001  0.001  0.011  0.014
   14  0.000  0.003  0.015  0.018
   15  0.016  0.004  0.011  0.031
   16  0.008  0.002  0.011  0.021
   17  0.016  0.004  0.011  0.031
   18  0.000  0.000  0.022  0.022
   19  0.015  0.004  0.011  0.030
   20  0.000  0.002  0.015  0.018
   21  0.002  0.002  0.012  0.015
   22  0.007  0.002  0.011  0.020
   23  0.002  0.002  0.012  0.015
   24  0.000  0.003  0.028  0.031
   25  0.000  0.000  0.023  0.023
   26  0.015  0.004  0.011  0.030
   27  0.007  0.002  0.011  0.020
   28  0.000  0.005  0.007  0.012
   29  0.014  0.003  0.005  0.022
   30  0.000  0.002  0.006  0.007
   31  0.014  0.003  0.005  0.023
   32  0.017  0.003  0.005  0.025
   33  0.000  0.002  0.006  0.007
   34  0.017  0.003  0.005  0.025
   35  0.000  0.004  0.011  0.015
   36  0.000  0.000  0.011  0.011
   37  0.000  0.000  0.000  0.000
tot    0.226  0.094  0.384  0.705
 
band    17 # energy   -4.99354537 # occ.  2.00000000
 
ion      s      p      d    tot
    1  0.003  0.002  0.003  0.007
    2  0.001  0.002  0.009  0.013
    3  0.001  0.002  0.009  0.013
    4  0.001  0.002  0.009  0.013
    5  0.039  0.002  0.001  0.042
    6  0.001  0.002  0.009  0.013
    7  0.001  0.002  0.009  0.013
    8  0.001  0.002  0.009  0.013
    9  0.001  0.001  0.005  0.007
   10  0.005  0.001  0.018  0.024
   11  0.001  0.002  0.018  0.022
   12  0.005  0.001  0.018  0.024
   13  0.001  0.002  0.018  0.022
   14  0.001  0.002  0.018  0.022
   15  0.010  0.001  0.016  0.027
   16  0.005  0.001  0.018  0.024
   17  0.010  0.001  0.016  0.027
   18  0.010  0.001  0.016  0.027
   19  0.012  0.001  0.019  0.031
   20  0.001  0.003  0.020  0.023
   21  0.001  0.003  0.020  0.023
   22  0.005  0.001  0.020  0.026
   23  0.001  0.003  0.020  0.023
   24  0.005  0.001  0.020  0.026
   25  0.012  0.001  0.019  0.031
   26  0.012  0.001  0.019  0.031
   27  0.005  0.001  0.020  0.026
   28  0.000  0.002  0.007  0.009
   29  0.003  0.002  0.011  0.015
   30  0.003  0.002  0.011  0.015
   31  0.003  0.002  0.011  0.015
   32  0.003  0.002  0.011  0.015
   33  0.003  0.002  0.011  0.015
   34  0.003  0.002  0.011  0.015
   35  0.001  0.002  0.005  0.008
   36  0.038  0.004  0.007  0.049
   37  0.003  0.002  0.000  0.005
tot    0.210  0.060  0.483  0.754
 
band    18 # energy   -4.40328428 # occ.  2.00000000
 
ion      s      p      d    tot
    1  0.000  0.002  0.001  0.003
    2  0.008  0.001  0.006  0.014
    3  0.008  0.001  0.006  0.015
    4  0.008  0.001  0.006  0.014
    5  0.000  0.001  0.018  0.019
    6  0.000  0.001  0.005  0.006
    7  0.008  0.001  0.006  0.015
    8  0.000  0.001  0.005  0.006
    9  0.000  0.000  0.013  0.014
   10  0.000  0.005  0.011  0.016
   11  0.000  0.000  0.031  0.031
   12  0.000  0.001  0.011  0.012
   13  0.000  0.000  0.031  0.031
   14  0.000  0.000  0.001  0.002
   15  0.000  0.001  0.010  0.011
   16  0.000  0.001  0.011  0.012
   17  0.000  0.001  0.010  0.011
   18  0.000  0.002  0.011  0.013
   19  0.000  0.001  0.030  0.031
   20  0.002  0.003  0.026  0.032
   21  0.001  0.001  0.015  0.017
   22  0.000  0.000  0.025  0.025
   23  0.001  0.001  0.015  0.017
   24  0.000  0.001  0.007  0.007
   25  0.001  0.002  0.004  0.007
   26  0.000  0.001  0.030  0.031
   27  0.000  0.000  0.025  0.025
   28  0.000  0.002  0.017  0.020
   29  0.019  0.001  0.013  0.033
   30  0.001  0.001  0.011  0.013
   31  0.019  0.001  0.013  0.033
   32  0.010  0.001  0.010  0.021
   33  0.001  0.001  0.011  0.013
   34  0.010  0.001  0.010  0.021
   35  0.000  0.000  0.031  0.031
   36  0.000  0.009  0.101  0.110
   37  0.000  0.046  0.000  0.046
tot    0.097  0.092  0.591  0.781
 
band    19 # energy   -4.40321774 # occ.  2.00000000
 
ion      s      p      d    tot
    1  0.000  0.002  0.001  0.003
    2  0.003  0.001  0.006  0.009
    3  0.002  0.001  0.006  0.009
    4  0.003  0.001  0.006  0.009
    5  0.000  0.001  0.018  0.019
    6  0.011  0.001  0.006  0.017
    7  0.002  0.001  0.006  0.009
    8  0.011  0.001  0.006  0.017
    9  0.000  0.000  0.013  0.014
   10  0.000  0.000  0.011  0.011
   11  0.000  0.000  0.011  0.012
   12  0.000  0.004  0.011  0.015
   13  0.000  0.000  0.011  0.012
   14  0.000  0.000  0.041  0.041
   15  0.000  0.002  0.011  0.013
   16  0.000  0.004  0.011  0.015
   17  0.000  0.002  0.011  0.013
   18  0.000  0.000  0.010  0.010
   19  0.000  0.001  0.013  0.015
   20  0.000  0.000  0.012  0.012
   21  0.002  0.003  0.022  0.027
   22  0.000  0.000  0.013  0.013
   23  0.002  0.003  0.022  0.027
   24  0.000  0.000  0.031  0.031
   25  0.000  0.000  0.039  0.039
   26  0.000  0.001  0.013  0.015
   27  0.000  0.000  0.013  0.013
   28  0.000  0.002  0.017  0.020
   29  0.001  0.001  0.009  0.012
   30  0.019  0.001  0.012  0.032
   31  0.001  0.001  0.009  0.012
   32  0.010  0.001  0.013  0.024
   33  0.019  0.001  0.012  0.032
   34  0.010  0.001  0.013  0.024
   35  0.000  0.000  0.031  0.031
   36  0.000  0.009  0.101  0.110
   37  0.000  0.046  0.000  0.046
tot    0.097  0.092  0.591  0.781
 
band    20 # energy   -4.33953593 # occ.  2.00000000
 
ion      s      p      d    tot
    1  0.001  0.000  0.001  0.002
    2  0.000  0.001  0.015  0.016
    3  0.000  0.001  0.015  0.016
    4  0.000  0.001  0.015  0.016
    5  0.013  0.000  0.000  0.014
    6  0.000  0.001  0.015  0.016
    7  0.000  0.001  0.015  0.016
    8  0.000  0.001  0.015  0.016
    9  0.023  0.001  0.001  0.025
   10  0.000  0.001  0.006  0.008
   11  0.000  0.000  0.016  0.016
   12  0.000  0.001  0.006  0.008
   13  0.000  0.000  0.016  0.016
   14  0.000  0.000  0.015  0.016
   15  0.000  0.003  0.033  0.037
   16  0.000  0.001  0.006  0.008
   17  0.000  0.003  0.033  0.037
   18  0.000  0.003  0.033  0.036
   19  0.000  0.001  0.025  0.026
   20  0.000  0.001  0.014  0.015
   21  0.000  0.001  0.014  0.015
   22  0.001  0.004  0.042  0.046
   23  0.000  0.001  0.014  0.015
   24  0.001  0.004  0.042  0.047
   25  0.000  0.001  0.025  0.026
   26  0.000  0.001  0.025  0.026
   27  0.001  0.004  0.042  0.046
   28  0.015  0.001  0.000  0.016
   29  0.000  0.002  0.018  0.020
   30  0.000  0.002  0.018  0.020
   31  0.000  0.002  0.018  0.020
   32  0.000  0.002  0.018  0.020
   33  0.000  0.002  0.018  0.020
   34  0.000  0.002  0.018  0.020
   35  0.034  0.001  0.003  0.038
   36  0.000  0.000  0.039  0.039
   37  0.001  0.009  0.000  0.011
tot    0.093  0.061  0.652  0.806
 
band    21 # energy   -4.33765397 # occ.  2.00000000
 
ion      s      p      d    tot
    1  0.000  0.000  0.035  0.035
    2  0.010  0.001  0.010  0.021
    3  0.014  0.001  0.010  0.025
    4  0.010  0.001  0.010  0.021
    5  0.000  0.002  0.004  0.006
    6  0.000  0.001  0.009  0.010
    7  0.014  0.001  0.010  0.024
    8  0.000  0.001  0.009  0.010
    9  0.000  0.002  0.017  0.020
   10  0.000  0.000  0.046  0.046
   11  0.001  0.005  0.018  0.024
   12  0.000  0.001  0.019  0.020
   13  0.001  0.005  0.017  0.023
   14  0.000  0.000  0.006  0.007
   15  0.001  0.003  0.017  0.020
   16  0.000  0.001  0.019  0.020
   17  0.001  0.003  0.017  0.020
   18  0.000  0.000  0.049  0.049
   19  0.000  0.003  0.017  0.020
   20  0.000  0.000  0.069  0.069
   21  0.001  0.000  0.021  0.022
   22  0.001  0.005  0.019  0.025
   23  0.001  0.000  0.020  0.021
   24  0.000  0.000  0.021  0.021
   25  0.000  0.000  0.019  0.019
   26  0.000  0.003  0.017  0.020
   27  0.001  0.005  0.019  0.025
   28  0.000  0.000  0.016  0.016
   29  0.014  0.001  0.009  0.025
   30  0.002  0.001  0.010  0.013
   31  0.014  0.001  0.009  0.025
   32  0.006  0.001  0.008  0.014
   33  0.002  0.001  0.010  0.013
   34  0.005  0.001  0.008  0.014
   35  0.000  0.002  0.002  0.004
   36  0.000  0.001  0.032  0.033