PROCAR new format
# of k-points:   10         # of bands:  252         # of ions:   39

 k-point     1 :    0.00000000 0.00000000 0.00000000     weight = 0.01562500

band     1 # energy  -23.92311963 # occ.  2.00000000
 
ion      s      p      d    tot
    1  0.000  0.000  0.000  0.000
    2  0.000  0.000  0.000  0.000
    3  0.000  0.000  0.000  0.000
    4  0.000  0.000  0.000  0.000
    5  0.000  0.000  0.000  0.000
    6  0.000  0.000  0.000  0.000
    7  0.000  0.000  0.000  0.000
    8  0.000  0.000  0.000  0.000
    9  0.000  0.000  0.000  0.000
   10  0.000  0.000  0.000  0.000
   11  0.000  0.000  0.000  0.000
   12  0.000  0.000  0.000  0.000
   13  0.000  0.000  0.000  0.000
   14  0.000  0.000  0.000  0.000
   15  0.000  0.000  0.000  0.000
   16  0.000  0.000  0.000  0.000
   17  0.000  0.000  0.000  0.000
   18  0.000  0.000  0.000  0.000
   19  0.000  0.000  0.000  0.000
   20  0.000  0.000  0.000  0.000
   21  0.000  0.000  0.000  0.000
   22  0.000  0.000  0.000  0.000
   23  0.000  0.000  0.000  0.000
   24  0.000  0.000  0.000  0.000
   25  0.000  0.000  0.000  0.000
   26  0.000  0.000  0.000  0.000
   27  0.000  0.000  0.000  0.000
   28  0.000  0.000  0.000  0.000
   29  0.000  0.000  0.000  0.000
   30  0.000  0.000  0.000  0.000
   31  0.000  0.000  0.000  0.000
   32  0.000  0.000  0.000  0.000
   33  0.000  0.000  0.000  0.000
   34  0.000  0.000  0.000  0.000
   35  0.000  0.000  0.000  0.000
   36  0.000  0.000  0.000  0.000
   37  0.079  0.059  0.000  0.137
   38  0.726  0.007  0.000  0.733
   39  0.062  0.013  0.000  0.075
tot    0.867  0.079  0.000  0.946
 
band     2 # energy  -14.59883555 # occ.  2.00000000
 
ion      s      p      d    tot
    1  0.000  0.000  0.000  0.000
    2  0.000  0.000  0.000  0.000
    3  0.000  0.000  0.000  0.000
    4  0.000  0.000  0.000  0.000
    5  0.000  0.000  0.000  0.000
    6  0.000  0.000  0.000  0.000
    7  0.000  0.000  0.000  0.000
    8  0.000  0.000  0.000  0.000
    9  0.000  0.000  0.000  0.000
   10  0.000  0.000  0.000  0.000
   11  0.000  0.000  0.000  0.000
   12  0.000  0.000  0.000  0.000
   13  0.000  0.000  0.000  0.000
   14  0.000  0.000  0.000  0.000
   15  0.000  0.000  0.000  0.000
   16  0.000  0.000  0.000  0.000
   17  0.000  0.000  0.000  0.000
   18  0.000  0.000  0.000  0.000
   19  0.000  0.000  0.000  0.000
   20  0.000  0.000  0.000  0.000
   21  0.000  0.000  0.000  0.000
   22  0.000  0.000  0.000  0.000
   23  0.000  0.000  0.000  0.000
   24  0.000  0.000  0.000  0.000
   25  0.000  0.000  0.000  0.000
   26  0.000  0.000  0.000  0.000
   27  0.000  0.000  0.000  0.000
   28  0.000  0.000  0.000  0.000
   29  0.000  0.000  0.000  0.000
   30  0.000  0.000  0.000  0.000
   31  0.000  0.000  0.000  0.000
   32  0.000  0.000  0.000  0.000
   33  0.000  0.000  0.000  0.000
   34  0.000  0.000  0.000  0.000
   35  0.000  0.000  0.000  0.000
   36  0.002  0.002  0.003  0.007
   37  0.156  0.052  0.000  0.208
   38  0.017  0.528  0.000  0.545
   39  0.203  0.033  0.000  0.237
tot    0.379  0.615  0.003  0.997
 
band     3 # energy   -8.58541538 # occ.  2.00000000
 
ion      s      p      d    tot
    1  0.005  0.000  0.000  0.006
    2  0.005  0.000  0.000  0.006
    3  0.005  0.000  0.000  0.006
    4  0.005  0.000  0.000  0.006
    5  0.005  0.000  0.000  0.006
    6  0.005  0.000  0.000  0.006
    7  0.005  0.000  0.000  0.006
    8  0.005  0.000  0.000  0.006
    9  0.005  0.000  0.000  0.005
   10  0.022  0.000  0.000  0.023
   11  0.023  0.000  0.000  0.024
   12  0.022  0.000  0.000  0.023
   13  0.023  0.000  0.000  0.024
   14  0.023  0.000  0.000  0.024
   15  0.021  0.000  0.000  0.021
   16  0.022  0.000  0.000  0.023
   17  0.021  0.000  0.000  0.021
   18  0.021  0.000  0.000  0.021
   19  0.021  0.000  0.000  0.022
   20  0.032  0.000  0.001  0.033
   21  0.032  0.000  0.001  0.033
   22  0.023  0.000  0.000  0.023
   23  0.032  0.000  0.001  0.033
   24  0.023  0.000  0.000  0.023
   25  0.021  0.000  0.000  0.022
   26  0.021  0.000  0.000  0.022
   27  0.023  0.000  0.000  0.023
   28  0.005  0.000  0.000  0.005
   29  0.007  0.000  0.000  0.007
   30  0.007  0.000  0.000  0.007
   31  0.007  0.000  0.000  0.007
   32  0.007  0.000  0.000  0.007
   33  0.007  0.000  0.000  0.007
   34  0.007  0.000  0.000  0.007
   35  0.005  0.000  0.000  0.005
   36  0.037  0.000  0.006  0.042
   37  0.006  0.007  0.000  0.014
   38  0.001  0.003  0.000  0.003
   39  0.001  0.000  0.000  0.001
tot    0.572  0.020  0.011  0.603
 
band     4 # energy   -7.67810443 # occ.  2.00000000
 
ion      s      p      d    tot
    1  0.009  0.000  0.000  0.010
    2  0.010  0.000  0.000  0.011
    3  0.010  0.000  0.000  0.011
    4  0.010  0.000  0.000  0.011
    5  0.010  0.000  0.000  0.010
    6  0.010  0.000  0.000  0.011
    7  0.010  0.000  0.000  0.011
    8  0.010  0.000  0.000  0.011
    9  0.011  0.000  0.000  0.011
   10  0.011  0.001  0.002  0.014
   11  0.011  0.000  0.001  0.013
   12  0.011  0.001  0.002  0.014
   13  0.011  0.000  0.001  0.013
   14  0.011  0.000  0.001  0.013
   15  0.015  0.000  0.001  0.016
   16  0.011  0.001  0.002  0.014
   17  0.015  0.000  0.001  0.016
   18  0.015  0.000  0.001  0.016
   19  0.000  0.001  0.001  0.002
   20  0.007  0.003  0.006  0.016
   21  0.007  0.003  0.006  0.016
   22  0.000  0.001  0.001  0.002
   23  0.007  0.003  0.006  0.016
   24  0.000  0.001  0.001  0.002
   25  0.000  0.001  0.001  0.002
   26  0.000  0.001  0.001  0.002
   27  0.000  0.001  0.001  0.002
   28  0.004  0.000  0.001  0.005
   29  0.011  0.001  0.003  0.014
   30  0.011  0.001  0.003  0.014
   31  0.011  0.001  0.003  0.014
   32  0.011  0.001  0.003  0.014
   33  0.011  0.001  0.003  0.014
   34  0.011  0.001  0.003  0.014
   35  0.004  0.000  0.001  0.005
   36  0.132  0.013  0.048  0.193
   37  0.062  0.060  0.000  0.121
   38  0.005  0.019  0.000  0.024
   39  0.005  0.000  0.000  0.006
tot    0.503  0.117  0.103  0.723
 
band     5 # energy   -7.02490045 # occ.  2.00000000
 
ion      s      p      d    tot
    1  0.013  0.000  0.001  0.014
    2  0.009  0.000  0.001  0.011
    3  0.009  0.000  0.001  0.011
    4  0.009  0.000  0.001  0.011
    5  0.009  0.000  0.002  0.011
    6  0.009  0.000  0.001  0.011
    7  0.009  0.000  0.001  0.011
    8  0.009  0.000  0.001  0.011
    9  0.007  0.000  0.002  0.009
   10  0.004  0.001  0.001  0.006
   11  0.002  0.001  0.002  0.005
   12  0.004  0.001  0.001  0.006
   13  0.002  0.001  0.002  0.005
   14  0.002  0.001  0.002  0.005
   15  0.000  0.002  0.002  0.004
   16  0.004  0.001  0.001  0.006
   17  0.000  0.002  0.002  0.004
   18  0.000  0.002  0.002  0.004
   19  0.017  0.000  0.006  0.023
   20  0.003  0.001  0.018  0.022
   21  0.003  0.001  0.018  0.022
   22  0.025  0.000  0.004  0.030
   23  0.003  0.001  0.018  0.022
   24  0.025  0.000  0.004  0.030
   25  0.017  0.000  0.006  0.023
   26  0.017  0.000  0.006  0.023
   27  0.025  0.000  0.004  0.030
   28  0.008  0.001  0.000  0.008
   29  0.002  0.001  0.003  0.006
   30  0.002  0.001  0.003  0.006
   31  0.002  0.001  0.003  0.006
   32  0.002  0.001  0.003  0.006
   33  0.002  0.001  0.003  0.006
   34  0.002  0.001  0.003  0.006
   35  0.009  0.001  0.000  0.010
   36  0.052  0.025  0.078  0.155
   37  0.071  0.062  0.000  0.133
   38  0.005  0.018  0.000  0.023
   39  0.005  0.000  0.000  0.005
tot    0.401  0.129  0.208  0.739
 
band     6 # energy   -6.67147466 # occ.  2.00000000
 
ion      s      p      d    tot
    1  0.000  0.000  0.000  0.000
    2  0.000  0.000  0.000  0.000
    3  0.000  0.000  0.000  0.000
    4  0.000  0.000  0.000  0.000
    5  0.000  0.000  0.000  0.000
    6  0.000  0.000  0.000  0.000
    7  0.000  0.000  0.000  0.000
    8  0.000  0.000  0.000  0.000
    9  0.000  0.000  0.000  0.000
   10  0.000  0.000  0.000  0.001
   11  0.000  0.000  0.000  0.000
   12  0.000  0.000  0.000  0.000
   13  0.000  0.000  0.000  0.000
   14  0.000  0.000  0.000  0.000
   15  0.000  0.000  0.000  0.000
   16  0.000  0.000  0.000  0.000
   17  0.000  0.000  0.000  0.000
   18  0.000  0.000  0.000  0.000
   19  0.000  0.000  0.000  0.001
   20  0.000  0.000  0.001  0.001
   21  0.000  0.000  0.001  0.001
   22  0.000  0.000  0.000  0.000
   23  0.000  0.000  0.001  0.001
   24  0.000  0.000  0.000  0.000
   25  0.000  0.000  0.000  0.000
   26  0.000  0.000  0.000  0.001
   27  0.000  0.000  0.000  0.000
   28  0.000  0.000  0.000  0.000
   29  0.001  0.000  0.002  0.003
   30  0.000  0.000  0.001  0.001
   31  0.001  0.000  0.002  0.003
   32  0.001  0.000  0.002  0.003
   33  0.000  0.000  0.001  0.001
   34  0.001  0.000  0.002  0.003
   35  0.000  0.000  0.000  0.000
   36  0.000  0.003  0.017  0.019
   37  0.000  0.111  0.000  0.111
   38  0.000  0.523  0.000  0.523
   39  0.000  0.007  0.000  0.007
tot    0.007  0.645  0.030  0.682
 
band     7 # energy   -6.67132745 # occ.  2.00000000
 
ion      s      p      d    tot
    1  0.000  0.000  0.000  0.000
    2  0.000  0.000  0.000  0.000
    3  0.000  0.000  0.000  0.000
    4  0.000  0.000  0.000  0.000
    5  0.000  0.000  0.000  0.000
    6  0.000  0.000  0.000  0.000
    7  0.000  0.000  0.000  0.000
    8  0.000  0.000  0.000  0.000
    9  0.000  0.000  0.000  0.000
   10  0.000  0.000  0.000  0.000
   11  0.000  0.000  0.000  0.000
   12  0.000  0.000  0.000  0.000
   13  0.000  0.000  0.000  0.000
   14  0.000  0.000  0.000  0.000
   15  0.000  0.000  0.000  0.000
   16  0.000  0.000  0.000  0.000
   17  0.000  0.000  0.000  0.000
   18  0.000  0.000  0.000  0.000
   19  0.000  0.000  0.000  0.000
   20  0.000  0.000  0.001  0.001
   21  0.000  0.000  0.001  0.001
   22  0.000  0.000  0.000  0.000
   23  0.000  0.000  0.001  0.001
   24  0.000  0.000  0.000  0.000
   25  0.000  0.000  0.001  0.001
   26  0.000  0.000  0.000  0.000
   27  0.000  0.000  0.000  0.000
   28  0.000  0.000  0.000  0.000
   29  0.001  0.000  0.001  0.002
   30  0.002  0.000  0.002  0.004
   31  0.001  0.000  0.001  0.002
   32  0.000  0.000  0.001  0.001
   33  0.002  0.000  0.002  0.004
   34  0.000  0.000  0.001  0.001
   35  0.000  0.000  0.000  0.000
   36  0.000  0.003  0.017  0.019
   37  0.000  0.111  0.000  0.111
   38  0.000  0.523  0.000  0.523
   39  0.000  0.007  0.000  0.007
tot    0.007  0.645  0.030  0.682
 
band     8 # energy   -6.43700102 # occ.  2.00000000
 
ion      s      p      d    tot
    1  0.001  0.000  0.007  0.008
    2  0.006  0.000  0.005  0.011
    3  0.006  0.000  0.005  0.011
    4  0.006  0.000  0.005  0.011
    5  0.004  0.000  0.003  0.007
    6  0.006  0.000  0.005  0.011
    7  0.006  0.000  0.005  0.011
    8  0.006  0.000  0.005  0.011
    9  0.018  0.000  0.002  0.021
   10  0.007  0.001  0.007  0.015
   11  0.004  0.001  0.005  0.010
   12  0.007  0.001  0.007  0.015
   13  0.004  0.001  0.005  0.010
   14  0.004  0.001  0.005  0.010
   15  0.004  0.001  0.004  0.009
   16  0.007  0.001  0.007  0.015
   17  0.004  0.001  0.004  0.009
   18  0.004  0.001  0.004  0.009
   19  0.003  0.001  0.015  0.020
   20  0.021  0.002  0.024  0.047
   21  0.021  0.002  0.024  0.047
   22  0.002  0.001  0.009  0.012
   23  0.021  0.002  0.024  0.047
   24  0.002  0.001  0.009  0.012
   25  0.003  0.001  0.015  0.020
   26  0.003  0.001  0.015  0.020
   27  0.002  0.001  0.009  0.012
   28  0.015  0.000  0.006  0.021
   29  0.017  0.000  0.013  0.029
   30  0.017  0.000  0.013  0.029
   31  0.017  0.000  0.013  0.029
   32  0.016  0.000  0.013  0.029
   33  0.017  0.000  0.013  0.029
   34  0.017  0.000  0.013  0.029
   35  0.030  0.000  0.008  0.037
   36  0.001  0.005  0.022  0.028
   37  0.000  0.000  0.000  0.000
   38  0.000  0.000  0.000  0.000
   39  0.000  0.000  0.000  0.000
tot    0.325  0.028  0.345  0.699
 
band     9 # energy   -6.41487351 # occ.  2.00000000
 
ion      s      p      d    tot
    1  0.000  0.000  0.008  0.008
    2  0.001  0.000  0.003  0.004
    3  0.003  0.001  0.002  0.006
    4  0.006  0.001  0.003  0.010
    5  0.000  0.001  0.006  0.007
    6  0.003  0.001  0.002  0.006
    7  0.006  0.001  0.003  0.010
    8  0.000  0.000  0.003  0.003
    9  0.000  0.000  0.001  0.001
   10  0.008  0.001  0.026  0.034
   11  0.013  0.003  0.020  0.036
   12  0.036  0.002  0.006  0.044
   13  0.046  0.001  0.011  0.058
   14  0.010  0.003  0.021  0.034
   15  0.000  0.002  0.006  0.009
   16  0.010  0.001  0.024  0.035
   17  0.001  0.000  0.010  0.011
   18  0.000  0.002  0.006  0.009
   19  0.003  0.003  0.006  0.012
   20  0.015  0.002  0.033  0.050
   21  0.069  0.001  0.013  0.082
   22  0.015  0.002  0.005  0.022
   23  0.020  0.002  0.031  0.053
   24  0.003  0.001  0.021  0.025
   25  0.002  0.003  0.005  0.011
   26  0.011  0.000  0.013  0.024
   27  0.004  0.001  0.020  0.025
   28  0.000  0.000  0.001  0.002
   29  0.001  0.000  0.003  0.005
   30  0.007  0.001  0.004  0.013
   31  0.001  0.000  0.002  0.004
   32  0.007  0.001  0.005  0.013
   33  0.002  0.000  0.003  0.005
   34  0.002  0.001  0.003  0.006
   35  0.000  0.000  0.004  0.004
   36  0.000  0.006  0.010  0.015
   37  0.000  0.000  0.000  0.000
   38  0.000  0.002  0.000  0.002
   39  0.000  0.000  0.000  0.000
tot    0.306  0.048  0.343  0.697
 
band    10 # energy   -6.41486248 # occ.  2.00000000
 
ion      s      p      d    tot
    1  0.000  0.000  0.008  0.008
    2  0.005  0.001  0.003  0.009
    3  0.003  0.001  0.003  0.007
    4  0.000  0.000  0.002  0.003
    5  0.000  0.001  0.006  0.007
    6  0.003  0.001  0.003  0.007
    7  0.000  0.000  0.002  0.003
    8  0.006  0.001  0.003  0.009
    9  0.000  0.000  0.001  0.001
   10  0.028  0.002  0.011  0.041
   11  0.033  0.002  0.015  0.049
   12  0.000  0.000  0.031  0.032
   13  0.000  0.004  0.023  0.027
   14  0.036  0.001  0.014  0.052
   15  0.000  0.001  0.009  0.010
   16  0.026  0.002  0.013  0.040
   17  0.000  0.003  0.005  0.008
   18  0.001  0.001  0.009  0.011
   19  0.008  0.001  0.010  0.019
   20  0.054  0.001  0.018  0.074
   21  0.000  0.002  0.039  0.041
   22  0.000  0.001  0.026  0.026
   23  0.049  0.001  0.020  0.071
   24  0.012  0.001  0.009  0.023
   25  0.009  0.001  0.011  0.020
   26  0.000  0.004  0.003  0.007
   27  0.011  0.001  0.011  0.023
   28  0.000  0.000  0.001  0.002
   29  0.005  0.001  0.004  0.010
   30  0.000  0.000  0.002  0.002
   31  0.005  0.001  0.004  0.011
   32  0.000  0.000  0.002  0.002
   33  0.005  0.001  0.004  0.010
   34  0.005  0.001  0.004  0.009
   35  0.000  0.000  0.004  0.004
   36  0.000  0.006  0.010  0.015
   37  0.000  0.000  0.000  0.000
   38  0.000  0.002  0.000  0.002
   39  0.000  0.000  0.000  0.000
tot    0.306  0.048  0.343  0.697
 
band    11 # energy   -6.38092803 # occ.  2.00000000
 
ion      s      p      d    tot
    1  0.018  0.000  0.015  0.033
    2  0.013  0.000  0.015  0.028
    3  0.013  0.000  0.015  0.028
    4  0.013  0.000  0.015  0.028
    5  0.008  0.000  0.016  0.025
    6  0.013  0.000  0.015  0.028
    7  0.013  0.000  0.015  0.028
    8  0.013  0.000  0.015  0.028
    9  0.015  0.000  0.013  0.028
   10  0.003  0.000  0.029  0.033
   11  0.013  0.000  0.022  0.036
   12  0.003  0.000  0.029  0.033
   13  0.013  0.000  0.022  0.036
   14  0.013  0.000  0.022  0.036
   15  0.007  0.000  0.024  0.031
   16  0.003  0.000  0.029  0.033
   17  0.007  0.000  0.024  0.031
   18  0.007  0.000  0.024  0.031
   19  0.007  0.000  0.009  0.016
   20  0.002  0.000  0.023  0.025
   21  0.002  0.000  0.023  0.025
   22  0.000  0.000  0.013  0.013
   23  0.002  0.000  0.023  0.025
   24  0.000  0.000  0.013  0.013
   25  0.007  0.000  0.009  0.016
   26  0.007  0.000  0.009  0.016
   27  0.000  0.000  0.013  0.013
   28  0.000  0.000  0.002  0.002
   29  0.001  0.000  0.003  0.004
   30  0.001  0.000  0.003  0.004
   31  0.001  0.000  0.003  0.004
   32  0.001  0.000  0.003  0.004
   33  0.001  0.000  0.003  0.004
   34  0.001  0.000  0.003  0.004
   35  0.003  0.000  0.001  0.004
   36  0.001  0.000  0.005  0.007
   37  0.000  0.000  0.000  0.000
   38  0.000  0.000  0.000  0.000
   39  0.000  0.000  0.000  0.000
tot    0.229  0.005  0.522  0.756
 
band    12 # energy   -6.33339495 # occ.  2.00000000
 
ion      s      p      d    tot
    1  0.002  0.001  0.001  0.005
    2  0.001  0.001  0.007  0.008
    3  0.001  0.001  0.007  0.008
    4  0.001  0.001  0.007  0.008
    5  0.023  0.002  0.000  0.025
    6  0.001  0.001  0.007  0.008
    7  0.001  0.001  0.007  0.008
    8  0.001  0.001  0.007  0.008
    9  0.000  0.000  0.004  0.005
   10  0.019  0.003  0.004  0.026
   11  0.022  0.001  0.018  0.041
   12  0.019  0.003  0.004  0.026
   13  0.022  0.001  0.018  0.041
   14  0.022  0.001  0.018  0.041
   15  0.005  0.000  0.026  0.032
   16  0.019  0.003  0.004  0.026
   17  0.005  0.000  0.026  0.032
   18  0.005  0.000  0.026  0.032
   19  0.022  0.002  0.009  0.032
   20  0.011  0.003  0.013  0.027
   21  0.011  0.003  0.013  0.027
   22  0.003  0.000  0.026  0.029
   23  0.011  0.003  0.013  0.027
   24  0.003  0.000  0.026  0.029
   25  0.022  0.002  0.009  0.032
   26  0.022  0.002  0.009  0.032
   27  0.003  0.000  0.026  0.029
   28  0.011  0.001  0.001  0.013
   29  0.000  0.000  0.004  0.005
   30  0.000  0.000  0.004  0.005
   31  0.000  0.000  0.004  0.005
   32  0.000  0.000  0.004  0.005
   33  0.000  0.000  0.004  0.005
   34  0.000  0.000  0.004  0.005
   35  0.002  0.000  0.002  0.004
   36  0.001  0.001  0.002  0.004
   37  0.001  0.001  0.000  0.001
   38  0.000  0.000  0.000  0.000
   39  0.000  0.000  0.000  0.000
tot    0.292  0.040  0.367  0.699
 
band    13 # energy   -6.30714708 # occ.  2.00000000
 
ion      s      p      d    tot
    1  0.000  0.001  0.003  0.004
    2  0.007  0.001  0.004  0.013
    3  0.009  0.001  0.004  0.014
    4  0.001  0.001  0.004  0.006
    5  0.000  0.000  0.005  0.005
    6  0.000  0.000  0.004  0.004
    7  0.006  0.001  0.003  0.011
    8  0.003  0.001  0.003  0.007
    9  0.000  0.001  0.011  0.013
   10  0.021  0.001  0.015  0.037
   11  0.000  0.001  0.027  0.028
   12  0.014  0.002  0.011  0.027
   13  0.006  0.001  0.015  0.023
   14  0.009  0.001  0.009  0.020
   15  0.002  0.001  0.040  0.044
   16  0.001  0.005  0.003  0.009
   17  0.037  0.001  0.021  0.059
   18  0.056  0.001  0.010  0.068
   19  0.001  0.000  0.034  0.035
   20  0.000  0.001  0.015  0.016
   21  0.000  0.001  0.013  0.015
   22  0.021  0.002  0.013  0.036
   23  0.000  0.002  0.011  0.013
   24  0.031  0.001  0.012  0.044
   25  0.033  0.002  0.007  0.042
   26  0.022  0.001  0.016  0.039
   27  0.001  0.004  0.017  0.021
   28  0.000  0.000  0.006  0.006
   29  0.000  0.000  0.001  0.002
   30  0.001  0.000  0.001  0.002
   31  0.001  0.000  0.002  0.004
   32  0.003  0.001  0.002  0.006
   33  0.003  0.001  0.002  0.006
   34  0.004  0.001  0.002  0.007
   35  0.000  0.001  0.004  0.004
   36  0.000  0.000  0.001  0.001
   37  0.000  0.001  0.000  0.001
   38  0.000  0.004  0.000  0.004
   39  0.000  0.000  0.000  0.000
tot    0.294  0.045  0.354  0.693
 
band    14 # energy   -6.30712263 # occ.  2.00000000
 
ion      s      p      d    tot
    1  0.000  0.001  0.003  0.004
    2  0.002  0.001  0.003  0.006
    3  0.000  0.000  0.003  0.004
    4  0.007  0.001  0.004  0.012
    5  0.000  0.000  0.005  0.005
    6  0.009  0.001  0.004  0.014
    7  0.003  0.001  0.004  0.007
    8  0.006  0.001  0.004  0.011
    9  0.000  0.001  0.011  0.013
   10  0.003  0.004  0.004  0.011
   11  0.010  0.001  0.008  0.019
   12  0.010  0.003  0.009  0.021
   13  0.004  0.001  0.019  0.024
   14  0.001  0.001  0.025  0.027
   15  0.062  0.002  0.007  0.070
   16  0.023  0.000  0.016  0.039
   17  0.027  0.001  0.027  0.055
   18  0.007  0.001  0.038  0.046
   19  0.036  0.002  0.004  0.042
   20  0.000  0.002  0.012  0.014
   21  0.000  0.002  0.013  0.015
   22  0.015  0.002  0.014  0.032
   23  0.000  0.001  0.015  0.016
   24  0.004  0.003  0.016  0.024
   25  0.004  0.000  0.031  0.036
   26  0.016  0.001  0.022  0.038
   27  0.034  0.001  0.011  0.046
   28  0.000  0.000  0.006  0.006
   29  0.004  0.001  0.002  0.007
   30  0.003  0.001  0.002  0.006
   31  0.003  0.001  0.002  0.005
   32  0.001  0.000  0.001  0.003
   33  0.001  0.000  0.002  0.003
   34  0.000  0.000  0.002  0.002
   35  0.000  0.001  0.004  0.004
   36  0.000  0.000  0.001  0.001
   37  0.000  0.001  0.000  0.001
   38  0.000  0.004  0.000  0.004
   39  0.000  0.000  0.000  0.000
tot    0.294  0.045  0.354  0.693
 
band    15 # energy   -6.25405894 # occ.  2.00000000
 
ion      s      p      d    tot
    1  0.013  0.001  0.000  0.014
    2  0.001  0.001  0.005  0.007
    3  0.001  0.001  0.005  0.007
    4  0.001  0.001  0.005  0.007
    5  0.002  0.000  0.002  0.004
    6  0.001  0.001  0.005  0.007
    7  0.001  0.001  0.005  0.007
    8  0.001  0.001  0.005  0.007
    9  0.006  0.001  0.003  0.010
   10  0.008  0.000  0.024  0.032
   11  0.001  0.001  0.014  0.016
   12  0.008  0.000  0.024  0.032
   13  0.001  0.001  0.014  0.016
   14  0.001  0.001  0.014  0.016
   15  0.027  0.002  0.002  0.031
   16  0.008  0.000  0.023  0.032
   17  0.027  0.002  0.002  0.031
   18  0.027  0.002  0.002  0.031
   19  0.001  0.002  0.007  0.010
   20  0.002  0.000  0.020  0.023
   21  0.002  0.000  0.020  0.023
   22  0.018  0.003  0.004  0.025
   23  0.002  0.000  0.020  0.023
   24  0.018  0.003  0.004  0.025
   25  0.001  0.002  0.007  0.010
   26  0.001  0.002  0.007  0.010
   27  0.018  0.003  0.004  0.025
   28  0.015  0.000  0.007  0.022
   29  0.009  0.000  0.009  0.018
   30  0.009  0.000  0.009  0.018
   31  0.009  0.000  0.009  0.018
   32  0.009  0.000  0.009  0.018
   33  0.009  0.000  0.009  0.018
   34  0.009  0.000  0.009  0.018
   35  0.002  0.001  0.010  0.012
   36  0.000  0.011  0.049  0.061
   37  0.024  0.019  0.000  0.044
   38  0.002  0.005  0.000  0.006
   39  0.001  0.000  0.000  0.002
tot    0.288  0.069  0.374  0.731
 
band    16 # energy   -5.93187018 # occ.  2.00000000
 
ion      s      p      d    tot
    1  0.000  0.001  0.004  0.005
    2  0.001  0.001  0.005  0.006
    3  0.009  0.001  0.004  0.014
    4  0.001  0.001  0.005  0.006
    5  0.000  0.001  0.009  0.011
    6  0.004  0.001  0.003  0.008
    7  0.009  0.001  0.004  0.014
    8  0.004  0.001  0.003  0.008
    9  0.000  0.000  0.008  0.008
   10  0.000  0.001  0.050  0.051
   11  0.018  0.001  0.019  0.038
   12  0.008  0.001  0.018  0.027
   13  0.017  0.001  0.019  0.038
   14  0.000  0.000  0.046  0.046
   15  0.001  0.000  0.018  0.020
   16  0.008  0.001  0.018  0.027
   17  0.001  0.000  0.018  0.020
   18  0.000  0.001  0.011  0.013
   19  0.003  0.000  0.017  0.021
   20  0.000  0.000  0.091  0.091
   21  0.014  0.001  0.028  0.043
   22  0.003  0.001  0.019  0.023
   23  0.014  0.001  0.028  0.043
   24  0.000  0.001  0.030  0.031
   25  0.000  0.001  0.010  0.010
   26  0.003  0.000  0.017  0.021
   27  0.003  0.001  0.019  0.023
   28  0.000  0.000  0.008  0.008
   29  0.004  0.001  0.006  0.011
   30  0.009  0.001  0.005  0.016
   31  0.004  0.001  0.006  0.011
   32  0.001  0.000  0.004  0.005
   33  0.009  0.001  0.005  0.016
   34  0.001  0.000  0.004  0.005
   35  0.000  0.000  0.002  0.003
   36  0.000  0.005  0.010  0.015
   37  0.000  0.000  0.000  0.000
   38  0.000  0.000  0.000  0.000
   39  0.000  0.000  0.000  0.000
tot    0.151  0.032  0.573  0.756
 
band    17 # energy   -5.93186456 # occ.  2.00000000
 
ion      s      p      d    tot
    1  0.000  0.001  0.004  0.005
    2  0.008  0.001  0.004  0.013
    3  0.000  0.000  0.004  0.005
    4  0.008  0.001  0.004  0.013
    5  0.000  0.001  0.009  0.011
    6  0.005  0.001  0.005  0.011
    7  0.000  0.000  0.004  0.005
    8  0.005  0.001  0.005  0.011
    9  0.000  0.000  0.008  0.008
   10  0.010  0.002  0.008  0.019
   11  0.006  0.000  0.037  0.043
   12  0.003  0.001  0.039  0.043
   13  0.006  0.000  0.037  0.043
   14  0.023  0.001  0.011  0.035
   15  0.000  0.001  0.014  0.015
   16  0.003  0.001  0.040  0.043
   17  0.000  0.001  0.014  0.015
   18  0.002  0.000  0.021  0.023
   19  0.001  0.001  0.012  0.014
   20  0.019  0.001  0.007  0.027
   21  0.005  0.000  0.070  0.075
   22  0.001  0.001  0.026  0.028
   23  0.005  0.000  0.070  0.076
   24  0.005  0.001  0.015  0.021
   25  0.004  0.000  0.020  0.024
   26  0.001  0.001  0.012  0.014
   27  0.001  0.001  0.026  0.028
   28  0.000  0.000  0.008  0.008
   29  0.005  0.001  0.004  0.010
   30  0.000  0.000  0.004  0.005
   31  0.005  0.001  0.004  0.010
   32  0.009  0.001  0.006  0.016
   33  0.000  0.000  0.004  0.005
   34  0.009  0.001  0.006  0.016
   35  0.000  0.000  0.002  0.003
   36  0.000  0.005  0.010  0.015
   37  0.000  0.000  0.000  0.000
   38  0.000  0.000  0.000  0.000
   39  0.000  0.000  0.000  0.000
tot    0.151  0.032  0.573  0.756
 
band    18 # energy   -5.91603381 # occ.  2.00000000
 
ion      s      p      d    tot
    1  0.016  0.002  0.002  0.020
    2  0.000  0.001  0.007  0.007
    3  0.000  0.001  0.007  0.007
    4  0.000  0.001  0.007  0.007
    5  0.000  0.000  0.002  0.003
    6  0.000  0.001  0.007  0.007
    7  0.000  0.001  0.007  0.007
    8  0.000  0.001  0.007  0.007
    9  0.011  0.001  0.000  0.012
   10  0.009  0.001  0.011  0.022
   11  0.005  0.000  0.039  0.044
   12  0.009  0.001  0.011  0.022
   13  0.005  0.000  0.039  0.044
   14  0.005  0.000  0.039  0.044
   15  0.001  0.001  0.025  0.027
   16  0.009  0.001  0.011  0.022
   17  0.001  0.001  0.025  0.027
   18  0.001  0.001  0.025  0.027
   19  0.005  0.001  0.007  0.013
   20  0.000  0.000  0.057  0.058
   21  0.000  0.000  0.057  0.058
   22  0.011  0.001  0.024  0.036
   23  0.000  0.000  0.057  0.058
   24  0.011  0.001  0.024  0.036
   25  0.005  0.001  0.007  0.013
   26  0.005  0.001  0.007  0.013
   27  0.011  0.001  0.024  0.036
   28  0.016  0.001  0.000  0.018
   29  0.000  0.000  0.008  0.009
   30  0.000  0.000  0.008  0.009
   31  0.000  0.000  0.008  0.009
   32  0.000  0.000  0.008  0.009
   33  0.000  0.000  0.008  0.009
   34  0.000  0.000  0.008  0.009
   35  0.002  0.001  0.004  0.007
   36  0.002  0.000  0.003  0.006
   37  0.000  0.000  0.000  0.000
   38  0.000  0.000  0.000  0.000
   39  0.000  0.000  0.000  0.000
tot    0.142  0.026  0.592  0.760
 
band    19 # energy   -5.83191195 # occ.  2.00000000
 
ion      s      p      d    tot
    1  0.000  0.001  0.014  0.015
    2  0.003  0.000  0.005  0.008
    3  0.008  0.001  0.004  0.014
    4  0.006  0.001  0.005  0.012
    5  0.000  0.000  0.006  0.006
    6  0.010  0.001  0.004  0.015
    7  0.002  0.001  0.005  0.008
    8  0.000  0.000  0.005  0.006
    9  0.000  0.001  0.006  0.007
   10  0.006  0.000  0.024  0.031
   11  0.000  0.001  0.020  0.022
   12  0.000  0.001  0.031  0.032
   13  0.000  0.001  0.016  0.017
   14  0.000  0.001  0.019  0.020
   15  0.012  0.002  0.012  0.025
   16  0.010  0.000  0.019  0.029
   17  0.000  0.000  0.058  0.059
   18  0.007  0.001  0.030  0.038
   19  0.017  0.001  0.010  0.028
   20  0.000  0.001  0.025  0.026
   21  0.000  0.002  0.023  0.025
   22  0.001  0.001  0.028  0.030
   23  0.000  0.000  0.026  0.027
   24  0.013  0.001  0.022  0.035
   25  0.011  0.001  0.031  0.043
   26  0.001  0.000  0.065  0.066
   27  0.020  0.001  0.018  0.039
   28  0.000  0.001  0.005  0.006
   29  0.000  0.001  0.006  0.007
   30  0.004  0.001  0.004  0.009
   31  0.006  0.001  0.002  0.009
   32  0.006  0.001  0.003  0.010
   33  0.003  0.001  0.003  0.007
   34  0.000  0.000  0.005  0.006
   35  0.000  0.001  0.008  0.009
   36  0.000  0.000  0.003  0.003
   37  0.000  0.000  0.000  0.000
   38  0.000  0.000  0.000  0.000
   39  0.000  0.000  0.000  0.000
tot    0.147  0.028  0.576  0.751
 
band    20 # energy   -5.83190756 # occ.  2.00000000
 
ion      s      p      d    tot
    1  0.000  0.001  0.014  0.015
    2  0.007  0.001  0.005  0.013
    3  0.001  0.001  0.005  0.007
    4  0.004  0.001  0.005  0.009
    5  0.000  0.000  0.006  0.006
    6  0.000  0.000  0.005  0.006
    7  0.007  0.001  0.004  0.013
    8  0.009  0.001  0.004  0.015
    9  0.000  0.001  0.006  0.007
   10  0.005  0.000  0.026  0.031
   11  0.000  0.001  0.017  0.018
   12  0.010  0.000  0.018  0.029
   13  0.000  0.001  0.021  0.022
   14  0.000  0.001  0.018  0.019
   15  0.001  0.000  0.055  0.057
   16  0.001  0.001  0.031  0.032
   17  0.012  0.002  0.008  0.023
   18  0.006  0.001  0.037  0.044
   19  0.002  0.000  0.061  0.063
   20  0.000  0.001  0.025  0.026
   21  0.000  0.000  0.027  0.027
   22  0.022  0.001  0.017  0.040
   23  0.000  0.002  0.023  0.025
   24  0.010  0.001  0.024  0.034
   25  0.008  0.001  0.040  0.049
   26  0.018  0.001  0.006  0.025
   27  0.002  0.001  0.027  0.030
   28  0.000  0.001  0.005  0.006
   29  0.006  0.001  0.002  0.009
   30  0.002  0.000  0.004  0.007
   31  0.001  0.001  0.006  0.007
   32  0.000  0.000  0.005  0.006
   33  0.003  0.001  0.005  0.009
   34  0.007  0.001  0.003  0.010
   35  0.000  0.001  0.008  0.009
   36  0.000  0.000  0.003  0.003
   37  0.000  0.000  0.000  0.000
   38  0.000  0.000  0.000  0.000
   39  0.000  0.000  0.000  0.000