PROCAR new format
# of k-points:   10         # of bands:  252         # of ions:   38

 k-point     1 :    0.00000000 0.00000000 0.00000000     weight = 0.01562500

band     1 # energy  -21.76960812 # occ.  2.00000000
 
ion      s      p      d    tot
    1  0.000  0.000  0.000  0.000
    2  0.000  0.000  0.000  0.000
    3  0.000  0.000  0.000  0.000
    4  0.000  0.000  0.000  0.000
    5  0.000  0.000  0.000  0.000
    6  0.000  0.000  0.000  0.000
    7  0.000  0.000  0.000  0.000
    8  0.000  0.000  0.000  0.000
    9  0.000  0.000  0.000  0.000
   10  0.000  0.000  0.000  0.000
   11  0.000  0.000  0.000  0.000
   12  0.000  0.000  0.000  0.000
   13  0.000  0.000  0.000  0.000
   14  0.000  0.000  0.000  0.000
   15  0.000  0.000  0.000  0.000
   16  0.000  0.000  0.000  0.000
   17  0.000  0.000  0.000  0.000
   18  0.000  0.000  0.000  0.000
   19  0.000  0.000  0.000  0.000
   20  0.000  0.000  0.000  0.000
   21  0.000  0.000  0.000  0.000
   22  0.000  0.000  0.000  0.000
   23  0.000  0.000  0.000  0.000
   24  0.000  0.000  0.000  0.000
   25  0.000  0.000  0.000  0.000
   26  0.000  0.000  0.000  0.000
   27  0.000  0.000  0.000  0.000
   28  0.000  0.000  0.000  0.000
   29  0.000  0.000  0.000  0.000
   30  0.000  0.000  0.000  0.000
   31  0.000  0.000  0.000  0.000
   32  0.000  0.000  0.000  0.000
   33  0.000  0.000  0.000  0.000
   34  0.000  0.000  0.000  0.000
   35  0.000  0.000  0.000  0.000
   36  0.000  0.000  0.000  0.000
   37  0.153  0.111  0.000  0.264
   38  0.638  0.091  0.000  0.728
tot    0.791  0.202  0.000  0.993
 
band     2 # energy   -7.68680207 # occ.  2.00000000
 
ion      s      p      d    tot
    1  0.000  0.000  0.000  0.000
    2  0.000  0.000  0.000  0.000
    3  0.000  0.000  0.000  0.000
    4  0.000  0.000  0.000  0.000
    5  0.000  0.000  0.000  0.000
    6  0.000  0.000  0.000  0.000
    7  0.000  0.000  0.000  0.000
    8  0.000  0.000  0.000  0.000
    9  0.000  0.000  0.000  0.000
   10  0.000  0.000  0.000  0.000
   11  0.000  0.000  0.000  0.000
   12  0.000  0.000  0.000  0.000
   13  0.000  0.000  0.000  0.000
   14  0.000  0.000  0.000  0.000
   15  0.000  0.000  0.000  0.000
   16  0.000  0.000  0.000  0.000
   17  0.000  0.000  0.000  0.000
   18  0.000  0.000  0.000  0.000
   19  0.000  0.000  0.000  0.000
   20  0.001  0.000  0.001  0.002
   21  0.001  0.000  0.001  0.002
   22  0.000  0.000  0.000  0.000
   23  0.001  0.000  0.001  0.002
   24  0.000  0.000  0.000  0.000
   25  0.000  0.000  0.000  0.000
   26  0.000  0.000  0.000  0.000
   27  0.000  0.000  0.000  0.000
   28  0.000  0.000  0.000  0.000
   29  0.001  0.000  0.001  0.001
   30  0.001  0.000  0.001  0.001
   31  0.001  0.000  0.001  0.001
   32  0.001  0.000  0.001  0.001
   33  0.001  0.000  0.001  0.001
   34  0.001  0.000  0.001  0.001
   35  0.000  0.000  0.000  0.000
   36  0.038  0.019  0.060  0.117
   37  0.279  0.004  0.000  0.283
   38  0.142  0.221  0.000  0.363
tot    0.466  0.246  0.066  0.778
 
band     3 # energy   -6.38938785 # occ.  2.00000000
 
ion      s      p      d    tot
    1  0.006  0.001  0.000  0.007
    2  0.006  0.001  0.000  0.007
    3  0.006  0.001  0.000  0.007
    4  0.006  0.001  0.000  0.007
    5  0.006  0.001  0.000  0.007
    6  0.006  0.001  0.000  0.007
    7  0.006  0.001  0.000  0.007
    8  0.006  0.001  0.000  0.007
    9  0.006  0.001  0.000  0.007
   10  0.024  0.000  0.000  0.024
   11  0.024  0.000  0.000  0.024
   12  0.024  0.000  0.000  0.024
   13  0.024  0.000  0.000  0.024
   14  0.024  0.000  0.000  0.024
   15  0.023  0.000  0.000  0.023
   16  0.024  0.000  0.000  0.024
   17  0.023  0.000  0.000  0.023
   18  0.023  0.000  0.000  0.023
   19  0.022  0.000  0.000  0.023
   20  0.024  0.000  0.000  0.024
   21  0.024  0.000  0.000  0.024
   22  0.022  0.000  0.000  0.023
   23  0.024  0.000  0.000  0.024
   24  0.022  0.000  0.000  0.023
   25  0.022  0.000  0.000  0.023
   26  0.022  0.000  0.000  0.023
   27  0.022  0.000  0.000  0.023
   28  0.005  0.001  0.000  0.006
   29  0.005  0.001  0.000  0.006
   30  0.005  0.001  0.000  0.006
   31  0.005  0.001  0.000  0.006
   32  0.005  0.001  0.000  0.006
   33  0.005  0.001  0.000  0.006
   34  0.005  0.001  0.000  0.006
   35  0.005  0.001  0.000  0.006
   36  0.006  0.001  0.000  0.007
   37  0.001  0.002  0.000  0.003
   38  0.002  0.010  0.000  0.012
tot    0.519  0.024  0.006  0.550
 
band     4 # energy   -5.54828456 # occ.  2.00000000
 
ion      s      p      d    tot
    1  0.007  0.000  0.000  0.008
    2  0.008  0.000  0.000  0.009
    3  0.008  0.000  0.000  0.009
    4  0.008  0.000  0.000  0.009
    5  0.008  0.000  0.000  0.009
    6  0.008  0.000  0.000  0.009
    7  0.008  0.000  0.000  0.009
    8  0.008  0.000  0.000  0.009
    9  0.008  0.000  0.000  0.009
   10  0.010  0.001  0.015  0.027
   11  0.011  0.001  0.012  0.024
   12  0.010  0.001  0.015  0.027
   13  0.011  0.001  0.012  0.024
   14  0.011  0.001  0.012  0.024
   15  0.011  0.001  0.011  0.023
   16  0.010  0.001  0.015  0.027
   17  0.011  0.001  0.011  0.023
   18  0.011  0.001  0.011  0.023
   19  0.010  0.001  0.014  0.025
   20  0.013  0.001  0.020  0.034
   21  0.013  0.001  0.020  0.034
   22  0.008  0.001  0.012  0.021
   23  0.013  0.001  0.020  0.034
   24  0.008  0.001  0.012  0.021
   25  0.010  0.001  0.014  0.025
   26  0.010  0.001  0.014  0.025
   27  0.008  0.001  0.012  0.021
   28  0.006  0.000  0.000  0.007
   29  0.006  0.000  0.000  0.007
   30  0.006  0.000  0.000  0.007
   31  0.006  0.000  0.000  0.007
   32  0.006  0.000  0.000  0.007
   33  0.006  0.000  0.000  0.007
   34  0.006  0.000  0.000  0.007
   35  0.005  0.000  0.000  0.006
   36  0.018  0.000  0.006  0.023
   37  0.000  0.016  0.000  0.016
   38  0.004  0.032  0.000  0.036
tot    0.332  0.071  0.267  0.669
 
band     5 # energy   -5.26942090 # occ.  2.00000000
 
ion      s      p      d    tot
    1  0.001  0.000  0.013  0.014
    2  0.004  0.000  0.008  0.013
    3  0.004  0.000  0.008  0.013
    4  0.004  0.000  0.008  0.013
    5  0.006  0.000  0.006  0.012
    6  0.004  0.000  0.008  0.013
    7  0.004  0.000  0.008  0.013
    8  0.004  0.000  0.008  0.013
    9  0.007  0.000  0.007  0.014
   10  0.004  0.000  0.012  0.016
   11  0.000  0.000  0.024  0.024
   12  0.004  0.000  0.012  0.016
   13  0.000  0.000  0.024  0.024
   14  0.000  0.000  0.024  0.024
   15  0.000  0.000  0.017  0.018
   16  0.004  0.000  0.012  0.016
   17  0.000  0.000  0.017  0.018
   18  0.000  0.000  0.017  0.018
   19  0.001  0.000  0.020  0.021
   20  0.000  0.000  0.049  0.050
   21  0.000  0.000  0.049  0.050
   22  0.007  0.000  0.015  0.022
   23  0.000  0.000  0.049  0.050
   24  0.007  0.000  0.015  0.022
   25  0.001  0.000  0.020  0.021
   26  0.001  0.000  0.020  0.021
   27  0.007  0.000  0.015  0.022
   28  0.001  0.000  0.011  0.012
   29  0.003  0.000  0.008  0.011
   30  0.003  0.000  0.008  0.011
   31  0.003  0.000  0.008  0.011
   32  0.003  0.000  0.008  0.011
   33  0.003  0.000  0.008  0.011
   34  0.003  0.000  0.008  0.011
   35  0.000  0.000  0.010  0.010
   36  0.036  0.001  0.015  0.052
   37  0.001  0.042  0.000  0.044
   38  0.007  0.068  0.000  0.075
tot    0.141  0.116  0.568  0.824
 
band     6 # energy   -5.21602659 # occ.  2.00000000
 
ion      s      p      d    tot
    1  0.021  0.001  0.010  0.032
    2  0.010  0.000  0.016  0.026
    3  0.010  0.000  0.016  0.026
    4  0.010  0.000  0.016  0.026
    5  0.006  0.000  0.016  0.022
    6  0.010  0.000  0.016  0.026
    7  0.010  0.000  0.016  0.026
    8  0.010  0.000  0.016  0.026
    9  0.006  0.000  0.016  0.022
   10  0.001  0.000  0.029  0.030
   11  0.000  0.000  0.007  0.008
   12  0.001  0.000  0.029  0.030
   13  0.000  0.000  0.007  0.008
   14  0.000  0.000  0.007  0.008
   15  0.003  0.001  0.004  0.007
   16  0.001  0.000  0.029  0.030
   17  0.003  0.001  0.004  0.007
   18  0.003  0.001  0.004  0.007
   19  0.000  0.000  0.019  0.020
   20  0.001  0.000  0.055  0.057
   21  0.001  0.000  0.055  0.057
   22  0.009  0.000  0.002  0.012
   23  0.001  0.000  0.055  0.057
   24  0.009  0.000  0.002  0.012
   25  0.000  0.000  0.019  0.020
   26  0.000  0.000  0.019  0.020
   27  0.009  0.000  0.002  0.012
   28  0.005  0.000  0.000  0.005
   29  0.003  0.000  0.004  0.008
   30  0.003  0.000  0.004  0.008
   31  0.003  0.000  0.004  0.008
   32  0.003  0.000  0.004  0.008
   33  0.003  0.000  0.004  0.008
   34  0.003  0.000  0.004  0.008
   35  0.011  0.001  0.001  0.012
   36  0.005  0.000  0.030  0.035
   37  0.001  0.019  0.000  0.021
   38  0.002  0.026  0.000  0.029
tot    0.180  0.056  0.543  0.780
 
band     7 # energy   -5.12566949 # occ.  2.00000000
 
ion      s      p      d    tot
    1  0.000  0.000  0.009  0.009
    2  0.001  0.000  0.003  0.004
    3  0.000  0.000  0.002  0.003
    4  0.001  0.000  0.003  0.004
    5  0.000  0.000  0.002  0.002
    6  0.001  0.000  0.002  0.003
    7  0.000  0.000  0.003  0.003
    8  0.001  0.000  0.003  0.004
    9  0.000  0.000  0.004  0.004
   10  0.014  0.001  0.021  0.036
   11  0.000  0.001  0.026  0.027
   12  0.003  0.001  0.020  0.024
   13  0.000  0.001  0.027  0.027
   14  0.000  0.000  0.024  0.024
   15  0.003  0.000  0.027  0.030
   16  0.005  0.001  0.020  0.026
   17  0.002  0.000  0.031  0.032
   18  0.009  0.001  0.007  0.017
   19  0.008  0.001  0.034  0.043
   20  0.019  0.001  0.009  0.029
   21  0.004  0.000  0.107  0.111
   22  0.000  0.001  0.032  0.033
   23  0.006  0.000  0.091  0.098
   24  0.000  0.000  0.033  0.033
   25  0.024  0.001  0.030  0.054
   26  0.004  0.001  0.035  0.041
   27  0.000  0.001  0.032  0.033
   28  0.000  0.000  0.006  0.006
   29  0.000  0.000  0.003  0.003
   30  0.001  0.000  0.006  0.007
   31  0.000  0.000  0.003  0.003
   32  0.000  0.000  0.005  0.005
   33  0.001  0.000  0.005  0.007
   34  0.000  0.000  0.004  0.005
   35  0.000  0.000  0.000  0.000
   36  0.000  0.000  0.006  0.006
   37  0.000  0.003  0.000  0.003
   38  0.000  0.007  0.000  0.007
tot    0.108  0.024  0.675  0.807
 
band     8 # energy   -5.12566804 # occ.  2.00000000
 
ion      s      p      d    tot
    1  0.000  0.000  0.009  0.009
    2  0.000  0.000  0.002  0.003
    3  0.001  0.000  0.003  0.004
    4  0.000  0.000  0.002  0.003
    5  0.000  0.000  0.002  0.002
    6  0.000  0.000  0.003  0.004
    7  0.001  0.000  0.003  0.004
    8  0.000  0.000  0.003  0.003
    9  0.000  0.000  0.004  0.004
   10  0.000  0.001  0.020  0.021
   11  0.000  0.000  0.025  0.025
   12  0.012  0.001  0.021  0.033
   13  0.000  0.000  0.024  0.025
   14  0.000  0.001  0.027  0.028
   15  0.006  0.000  0.016  0.023
   16  0.010  0.001  0.021  0.031
   17  0.008  0.001  0.012  0.021
   18  0.000  0.000  0.036  0.036
   19  0.016  0.001  0.032  0.049
   20  0.000  0.000  0.129  0.129
   21  0.016  0.001  0.031  0.047
   22  0.000  0.000  0.032  0.033
   23  0.013  0.000  0.047  0.061
   24  0.000  0.001  0.032  0.033
   25  0.000  0.001  0.036  0.038
   26  0.020  0.001  0.031  0.051
   27  0.000  0.001  0.032  0.033
   28  0.000  0.000  0.006  0.006
   29  0.001  0.000  0.006  0.007
   30  0.000  0.000  0.003  0.003
   31  0.001  0.000  0.006  0.007
   32  0.001  0.000  0.004  0.005
   33  0.000  0.000  0.003  0.003
   34  0.001  0.000  0.004  0.005
   35  0.000  0.000  0.000  0.000
   36  0.000  0.000  0.006  0.006
   37  0.000  0.003  0.000  0.003
   38  0.000  0.007  0.000  0.007
tot    0.108  0.024  0.675  0.807
 
band     9 # energy   -5.11552087 # occ.  2.00000000
 
ion      s      p      d    tot
    1  0.000  0.000  0.004  0.004
    2  0.000  0.000  0.002  0.002
    3  0.001  0.000  0.006  0.007
    4  0.000  0.000  0.002  0.002
    5  0.000  0.000  0.009  0.009
    6  0.001  0.001  0.005  0.007
    7  0.001  0.000  0.006  0.007
    8  0.001  0.001  0.005  0.006
    9  0.000  0.000  0.001  0.001
   10  0.007  0.001  0.015  0.023
   11  0.009  0.001  0.058  0.068
   12  0.002  0.000  0.076  0.078
   13  0.007  0.001  0.063  0.070
   14  0.030  0.001  0.015  0.047
   15  0.002  0.001  0.017  0.020
   16  0.002  0.000  0.071  0.073
   17  0.002  0.001  0.015  0.018
   18  0.007  0.000  0.038  0.045
   19  0.000  0.000  0.032  0.033
   20  0.011  0.001  0.034  0.046
   21  0.002  0.001  0.025  0.028
   22  0.003  0.000  0.033  0.037
   23  0.003  0.001  0.026  0.030
   24  0.016  0.001  0.009  0.025
   25  0.001  0.000  0.016  0.018
   26  0.000  0.000  0.034  0.035
   27  0.005  0.000  0.031  0.036
   28  0.000  0.000  0.001  0.001
   29  0.001  0.000  0.004  0.005
   30  0.000  0.000  0.002  0.003
   31  0.001  0.000  0.004  0.005
   32  0.000  0.000  0.002  0.003
   33  0.000  0.000  0.002  0.003
   34  0.000  0.000  0.002  0.003
   35  0.000  0.000  0.006  0.007
   36  0.000  0.000  0.002  0.002
   37  0.000  0.000  0.000  0.000
   38  0.000  0.000  0.000  0.000
tot    0.117  0.016  0.674  0.807
 
band    10 # energy   -5.11551801 # occ.  2.00000000
 
ion      s      p      d    tot
    1  0.000  0.000  0.004  0.004
    2  0.001  0.001  0.006  0.008
    3  0.000  0.000  0.003  0.004
    4  0.001  0.001  0.006  0.008
    5  0.000  0.000  0.009  0.009
    6  0.000  0.000  0.003  0.004
    7  0.001  0.000  0.003  0.004
    8  0.000  0.000  0.004  0.004
    9  0.000  0.000  0.001  0.001
   10  0.000  0.000  0.093  0.094
   11  0.022  0.001  0.033  0.055
   12  0.006  0.001  0.032  0.038
   13  0.024  0.001  0.028  0.053
   14  0.000  0.001  0.076  0.077
   15  0.005  0.001  0.029  0.035
   16  0.005  0.001  0.037  0.043
   17  0.006  0.001  0.031  0.037
   18  0.000  0.002  0.009  0.011
   19  0.001  0.000  0.023  0.024
   20  0.000  0.001  0.022  0.024
   21  0.009  0.001  0.031  0.041
   22  0.012  0.001  0.015  0.028
   23  0.008  0.001  0.030  0.039
   24  0.000  0.000  0.040  0.040
   25  0.000  0.000  0.039  0.039
   26  0.001  0.000  0.021  0.022
   27  0.011  0.001  0.018  0.030
   28  0.000  0.000  0.001  0.001
   29  0.000  0.000  0.002  0.002
   30  0.001  0.000  0.003  0.004
   31  0.000  0.000  0.002  0.002
   32  0.001  0.000  0.003  0.004
   33  0.001  0.000  0.003  0.004
   34  0.001  0.000  0.003  0.004
   35  0.000  0.000  0.006  0.007
   36  0.000  0.000  0.002  0.002
   37  0.000  0.000  0.000  0.000
   38  0.000  0.000  0.000  0.000
tot    0.117  0.016  0.674  0.807
 
band    11 # energy   -5.11158508 # occ.  2.00000000
 
ion      s      p      d    tot
    1  0.001  0.000  0.000  0.001
    2  0.000  0.000  0.005  0.006
    3  0.000  0.000  0.005  0.006
    4  0.000  0.000  0.005  0.006
    5  0.002  0.001  0.006  0.009
    6  0.000  0.000  0.005  0.006
    7  0.000  0.000  0.005  0.006
    8  0.000  0.000  0.005  0.006
    9  0.002  0.000  0.002  0.005
   10  0.006  0.001  0.006  0.013
   11  0.015  0.001  0.039  0.055
   12  0.006  0.001  0.006  0.013
   13  0.015  0.001  0.039  0.055
   14  0.015  0.001  0.039  0.054
   15  0.001  0.000  0.056  0.057
   16  0.006  0.001  0.006  0.013
   17  0.001  0.000  0.056  0.057
   18  0.001  0.000  0.056  0.057
   19  0.008  0.000  0.041  0.049
   20  0.008  0.001  0.017  0.026
   21  0.008  0.001  0.017  0.026
   22  0.000  0.000  0.039  0.039
   23  0.008  0.001  0.017  0.026
   24  0.000  0.000  0.039  0.039
   25  0.009  0.000  0.041  0.049
   26  0.008  0.000  0.041  0.049
   27  0.000  0.000  0.039  0.039
   28  0.004  0.001  0.003  0.008
   29  0.000  0.000  0.004  0.004
   30  0.000  0.000  0.004  0.004
   31  0.000  0.000  0.004  0.004
   32  0.000  0.000  0.004  0.004
   33  0.000  0.000  0.004  0.004
   34  0.000  0.000  0.004  0.004
   35  0.001  0.000  0.004  0.005
   36  0.000  0.000  0.000  0.000
   37  0.000  0.000  0.000  0.000
   38  0.000  0.000  0.000  0.000
tot    0.124  0.017  0.661  0.802
 
band    12 # energy   -5.09265930 # occ.  2.00000000
 
ion      s      p      d    tot
    1  0.001  0.000  0.010  0.011
    2  0.000  0.000  0.008  0.009
    3  0.000  0.000  0.008  0.009
    4  0.000  0.000  0.008  0.009
    5  0.004  0.000  0.005  0.009
    6  0.000  0.000  0.008  0.009
    7  0.000  0.000  0.008  0.009
    8  0.000  0.000  0.008  0.009
    9  0.004  0.001  0.005  0.010
   10  0.002  0.000  0.071  0.073
   11  0.001  0.000  0.048  0.049
   12  0.002  0.000  0.071  0.073
   13  0.001  0.000  0.048  0.049
   14  0.001  0.000  0.048  0.049
   15  0.009  0.000  0.011  0.021
   16  0.002  0.000  0.071  0.073
   17  0.009  0.000  0.011  0.021
   18  0.009  0.000  0.011  0.021
   19  0.002  0.000  0.013  0.016
   20  0.000  0.000  0.049  0.050
   21  0.000  0.000  0.049  0.050
   22  0.001  0.000  0.021  0.023
   23  0.000  0.000  0.049  0.050
   24  0.001  0.000  0.021  0.023
   25  0.002  0.000  0.013  0.016
   26  0.002  0.000  0.013  0.016
   27  0.001  0.000  0.021  0.023
   28  0.005  0.001  0.000  0.005
   29  0.000  0.000  0.009  0.009
   30  0.000  0.000  0.009  0.009
   31  0.000  0.000  0.009  0.009
   32  0.000  0.000  0.009  0.009
   33  0.000  0.000  0.009  0.009
   34  0.000  0.000  0.009  0.009
   35  0.001  0.000  0.004  0.005
   36  0.003  0.000  0.002  0.005
   37  0.000  0.000  0.000  0.000
   38  0.000  0.000  0.000  0.000
tot    0.066  0.008  0.769  0.843
 
band    13 # energy   -5.08504396 # occ.  2.00000000
 
ion      s      p      d    tot
    1  0.003  0.000  0.010  0.013
    2  0.001  0.000  0.008  0.009
    3  0.001  0.000  0.008  0.009
    4  0.001  0.000  0.008  0.009
    5  0.002  0.000  0.006  0.007
    6  0.001  0.000  0.008  0.009
    7  0.001  0.000  0.008  0.009
    8  0.001  0.000  0.008  0.009
    9  0.001  0.000  0.000  0.001
   10  0.001  0.000  0.034  0.036
   11  0.003  0.000  0.018  0.021
   12  0.001  0.000  0.034  0.036
   13  0.003  0.000  0.018  0.021
   14  0.003  0.000  0.018  0.021
   15  0.002  0.000  0.035  0.037
   16  0.001  0.000  0.034  0.036
   17  0.002  0.000  0.035  0.037
   18  0.002  0.000  0.035  0.037
   19  0.009  0.001  0.028  0.037
   20  0.000  0.001  0.024  0.025
   21  0.000  0.001  0.024  0.025
   22  0.001  0.000  0.058  0.059
   23  0.000  0.001  0.024  0.025
   24  0.001  0.000  0.058  0.059
   25  0.009  0.001  0.028  0.037
   26  0.009  0.001  0.028  0.037
   27  0.001  0.000  0.058  0.059
   28  0.000  0.000  0.016  0.017
   29  0.002  0.000  0.008  0.010
   30  0.002  0.000  0.008  0.010
   31  0.002  0.000  0.008  0.010
   32  0.002  0.000  0.008  0.010
   33  0.002  0.000  0.008  0.010
   34  0.002  0.000  0.008  0.010
   35  0.002  0.000  0.000  0.002
   36  0.009  0.000  0.000  0.010
   37  0.000  0.007  0.000  0.007
   38  0.001  0.010  0.000  0.011
tot    0.083  0.027  0.717  0.827
 
band    14 # energy   -5.07280316 # occ.  2.00000000
 
ion      s      p      d    tot
    1  0.000  0.000  0.014  0.014
    2  0.003  0.000  0.006  0.009
    3  0.000  0.000  0.011  0.011
    4  0.002  0.000  0.006  0.009
    5  0.000  0.000  0.010  0.010
    6  0.003  0.001  0.007  0.012
    7  0.000  0.000  0.011  0.011
    8  0.004  0.001  0.007  0.011
    9  0.000  0.001  0.008  0.008
   10  0.000  0.000  0.050  0.050
   11  0.000  0.000  0.035  0.036
   12  0.011  0.000  0.032  0.043
   13  0.000  0.000  0.037  0.037
   14  0.000  0.000  0.024  0.024
   15  0.011  0.000  0.034  0.046
   16  0.010  0.000  0.034  0.044
   17  0.013  0.000  0.024  0.037
   18  0.000  0.000  0.102  0.102
   19  0.000  0.000  0.026  0.027
   20  0.000  0.000  0.042  0.042
   21  0.004  0.000  0.018  0.022
   22  0.005  0.000  0.021  0.025
   23  0.004  0.000  0.021  0.025
   24  0.000  0.000  0.033  0.033
   25  0.000  0.000  0.024  0.024
   26  0.000  0.000  0.027  0.027
   27  0.004  0.000  0.022  0.026
   28  0.000  0.000  0.013  0.013
   29  0.001  0.000  0.005  0.006
   30  0.003  0.001  0.004  0.008
   31  0.001  0.000  0.005  0.006
   32  0.001  0.000  0.005  0.006
   33  0.003  0.001  0.004  0.008
   34  0.000  0.000  0.006  0.006
   35  0.000  0.000  0.006  0.006
   36  0.000  0.000  0.002  0.002
   37  0.000  0.000  0.000  0.000
   38  0.000  0.000  0.000  0.000
tot    0.084  0.010  0.735  0.829
 
band    15 # energy   -5.07280001 # occ.  2.00000000
 
ion      s      p      d    tot
    1  0.000  0.000  0.014  0.014
    2  0.001  0.001  0.010  0.012
    3  0.004  0.001  0.005  0.010
    4  0.002  0.001  0.010  0.012
    5  0.000  0.000  0.010  0.010
    6  0.001  0.000  0.008  0.009
    7  0.004  0.001  0.005  0.010
    8  0.000  0.000  0.009  0.010
    9  0.000  0.001  0.008  0.008
   10  0.014  0.000  0.027  0.041
   11  0.000  0.000  0.029  0.029
   12  0.003  0.000  0.045  0.048
   13  0.000  0.000  0.027  0.028
   14  0.000  0.000  0.040  0.041
   15  0.005  0.000  0.073  0.078
   16  0.004  0.000  0.043  0.047
   17  0.003  0.000  0.083  0.086
   18  0.016  0.000  0.005  0.021
   19  0.000  0.000  0.025  0.025
   20  0.006  0.000  0.012  0.017
   21  0.001  0.000  0.036  0.037
   22  0.001  0.000  0.030  0.031
   23  0.002  0.000  0.033  0.034
   24  0.006  0.000  0.018  0.024
   25  0.000  0.000  0.027  0.028
   26  0.000  0.000  0.025  0.025
   27  0.002  0.000  0.028  0.030
   28  0.000  0.000  0.013  0.013
   29  0.002  0.001  0.005  0.008
   30  0.000  0.000  0.005  0.006
   31  0.002  0.000  0.005  0.007
   32  0.003  0.000  0.004  0.007
   33  0.000  0.000  0.006  0.006
   34  0.003  0.000  0.004  0.007
   35  0.000  0.000  0.006  0.006
   36  0.000  0.000  0.002  0.002
   37  0.000  0.000  0.000  0.000
   38  0.000  0.000  0.000  0.000
tot    0.084  0.010  0.735  0.829
 
band    16 # energy   -5.06594768 # occ.  2.00000000
 
ion      s      p      d    tot
    1  0.000  0.000  0.010  0.010
    2  0.004  0.000  0.013  0.017
    3  0.004  0.000  0.013  0.017
    4  0.004  0.000  0.013  0.017
    5  0.006  0.000  0.003  0.009
    6  0.004  0.000  0.014  0.017
    7  0.004  0.000  0.013  0.017
    8  0.004  0.000  0.013  0.017
    9  0.007  0.000  0.024  0.031
   10  0.005  0.000  0.009  0.014
   11  0.000  0.000  0.008  0.008
   12  0.005  0.000  0.009  0.014
   13  0.000  0.000  0.008  0.008
   14  0.000  0.000  0.008  0.008
   15  0.001  0.000  0.033  0.034
   16  0.005  0.000  0.009  0.014
   17  0.001  0.000  0.033  0.034
   18  0.001  0.000  0.033  0.034
   19  0.000  0.001  0.013  0.014
   20  0.004  0.000  0.020  0.024
   21  0.004  0.000  0.020  0.024
   22  0.000  0.000  0.030  0.031
   23  0.004  0.000  0.020  0.024
   24  0.000  0.000  0.030  0.031
   25  0.000  0.001  0.012  0.013
   26  0.000  0.001  0.013  0.014
   27  0.000  0.000  0.030  0.031
   28  0.010  0.000  0.008  0.018
   29  0.009  0.000  0.021  0.031
   30  0.009  0.000  0.021  0.031
   31  0.009  0.000  0.021  0.031
   32  0.009  0.000  0.021  0.031
   33  0.009  0.000  0.021  0.031
   34  0.009  0.000  0.021  0.031
   35  0.017  0.000  0.032  0.049
   36  0.004  0.001  0.004  0.008
   37  0.000  0.001  0.000  0.001
   38  0.000  0.003  0.000  0.003
tot    0.151  0.012  0.628  0.791
 
band    17 # energy   -5.06435036 # occ.  2.00000000
 
ion      s      p      d    tot
    1  0.000  0.000  0.006  0.006
    2  0.002  0.000  0.007  0.009
    3  0.000  0.000  0.009  0.009
    4  0.003  0.000  0.007  0.009
    5  0.000  0.000  0.008  0.008
    6  0.002  0.000  0.006  0.008
    7  0.000  0.000  0.009  0.009
    8  0.002  0.000  0.006  0.008
    9  0.000  0.000  0.019  0.019
   10  0.002  0.000  0.029  0.031
   11  0.001  0.000  0.049  0.050
   12  0.000  0.000  0.021  0.022
   13  0.001  0.000  0.046  0.047
   14  0.005  0.000  0.008  0.013
   15  0.000  0.000  0.033  0.033
   16  0.000  0.000  0.021  0.021
   17  0.000  0.000  0.033  0.033
   18  0.001  0.000  0.036  0.038
   19  0.002  0.000  0.071  0.073
   20  0.000  0.000  0.051  0.051
   21  0.000  0.000  0.022  0.022
   22  0.003  0.000  0.057  0.061
   23  0.000  0.000  0.020  0.020
   24  0.011  0.000  0.025  0.036
   25  0.007  0.000  0.008  0.015
   26  0.002  0.000  0.066  0.068
   27  0.003  0.000  0.060  0.063
   28  0.000  0.000  0.004  0.005
   29  0.000  0.000  0.007  0.008
   30  0.002  0.000  0.003  0.005
   31  0.000  0.000  0.008  0.008
   32  0.001  0.000  0.008  0.009
   33  0.002  0.000  0.003  0.005
   34  0.001  0.000  0.007  0.008
   35  0.000  0.000  0.012  0.012
   36  0.000  0.000  0.002  0.002
   37  0.000  0.000  0.000  0.000
   38  0.000  0.000  0.000  0.000
tot    0.055  0.007  0.783  0.845
 
band    18 # energy   -5.06433465 # occ.  2.00000000
 
ion      s      p      d    tot
    1  0.000  0.000  0.006  0.006
    2  0.000  0.000  0.007  0.008
    3  0.003  0.000  0.005  0.009
    4  0.000  0.000  0.007  0.008
    5  0.000  0.000  0.008  0.008
    6  0.001  0.000  0.008  0.010
    7  0.003  0.000  0.005  0.009
    8  0.001  0.000  0.008  0.010
    9  0.000  0.000  0.019  0.019
   10  0.000  0.000  0.018  0.018
   11  0.004  0.000  0.019  0.024
   12  0.001  0.000  0.026  0.027
   13  0.004  0.000  0.023  0.027
   14  0.000  0.000  0.061  0.061
   15  0.001  0.000  0.035  0.037
   16  0.001  0.000  0.027  0.028
   17  0.001  0.000  0.035  0.036
   18  0.000  0.000  0.032  0.032
   19  0.006  0.000  0.025  0.031
   20  0.000  0.000  0.011  0.011
   21  0.000  0.000  0.040  0.040
   22  0.008  0.000  0.037  0.046
   23  0.000  0.000  0.042  0.042
   24  0.000  0.000  0.070  0.070
   25  0.000  0.000  0.089  0.089
   26  0.005  0.000  0.030  0.036
   27  0.009  0.000  0.035  0.044
   28  0.000  0.000  0.004  0.005
   29  0.002  0.001  0.004  0.006
   30  0.000  0.000  0.009  0.009
   31  0.002  0.001  0.004  0.006
   32  0.001  0.000  0.004  0.006
   33  0.000  0.000  0.009  0.009
   34  0.001  0.000  0.005  0.006
   35  0.000  0.000  0.012  0.012
   36  0.000  0.000  0.002  0.002
   37  0.000  0.000  0.000  0.000
   38  0.000  0.000  0.000  0.000
tot    0.055  0.007  0.783  0.845
 
band    19 # energy   -4.95223598 # occ.  2.00000000
 
ion      s      p      d    tot
    1  0.001  0.000  0.000  0.001
    2  0.000  0.000  0.005  0.005
    3  0.000  0.000  0.005  0.005
    4  0.000  0.000  0.005  0.005
    5  0.001  0.001  0.017  0.019
    6  0.000  0.000  0.005  0.005
    7  0.000  0.000  0.005  0.005
    8  0.000  0.000  0.005  0.005
    9  0.000  0.000  0.004  0.004
   10  0.000  0.000  0.004  0.004
   11  0.000  0.001  0.079  0.080
   12  0.000  0.000  0.004  0.004
   13  0.000  0.001  0.079  0.080
   14  0.000  0.001  0.079  0.080
   15  0.002  0.001  0.026  0.029
   16  0.000  0.000  0.004  0.004
   17  0.002  0.001  0.026  0.029
   18  0.002  0.001  0.026  0.029
   19  0.000  0.001  0.021  0.022
   20  0.003  0.000  0.047  0.051
   21  0.003  0.000  0.047  0.051
   22  0.004  0.001  0.006  0.011
   23  0.003  0.000  0.047  0.051
   24  0.004  0.001  0.006  0.011
   25  0.000  0.001  0.021  0.022
   26  0.000  0.001  0.021  0.022
   27  0.004  0.001  0.006  0.011
   28  0.011  0.000  0.007  0.019
   29  0.002  0.001  0.014  0.017
   30  0.002  0.001  0.014  0.017
   31  0.002  0.001  0.014  0.017
   32  0.002  0.001  0.014  0.017
   33  0.002  0.001  0.014  0.017
   34  0.002  0.001  0.014  0.017
   35  0.000  0.000  0.002  0.003
   36  0.002  0.002  0.025  0.029
   37  0.002  0.021  0.000  0.024
   38  0.002  0.026  0.000  0.028
tot    0.065  0.062  0.718  0.845
 
band    20 # energy   -4.92499636 # occ.  2.00000000
 
ion      s      p      d    tot
    1  0.000  0.000  0.001  0.001
    2  0.001  0.001  0.007  0.009
    3  0.000  0.000  0.006  0.006
    4  0.001  0.001  0.007  0.009
    5  0.000  0.001  0.010  0.011
    6  0.001  0.000  0.004  0.006
    7  0.000  0.000  0.006  0.006
    8  0.001  0.000  0.004  0.006
    9  0.000  0.000  0.009  0.009
   10  0.000  0.001  0.026  0.027
   11  0.000  0.000  0.061  0.061
   12  0.000  0.000  0.010  0.010
   13  0.000  0.000  0.061  0.061
   14  0.002  0.000  0.033  0.035
   15  0.000  0.000  0.027  0.027
   16  0.000  0.000  0.010  0.010
   17  0.000  0.000  0.027  0.027
   18  0.001  0.000  0.030  0.032
   19  0.000  0.000  0.006  0.006
   20  0.002  0.000  0.057  0.059
   21  0.000  0.000  0.071  0.072
   22  0.000  0.000  0.038  0.038
   23  0.000  0.000  0.071  0.072
   24  0.000  0.000  0.019  0.019
   25  0.000  0.001  0.022  0.023
   26  0.000  0.000  0.006  0.006
   27  0.000  0.000  0.038  0.038
   28  0.000  0.000  0.002  0.002
   29  0.000  0.000  0.007  0.007
   30  0.001  0.000  0.007  0.008
   31  0.000  0.000  0.007  0.007
   32  0.001  0.001  0.008  0.009
   33  0.001  0.000  0.007  0.008
   34  0.001  0.001  0.008  0.009
   35  0.000  0.000  0.002  0.002
   36  0.000  0.000  0.016  0.017
   37  0.000  0.026  0.000  0.026
   38  0.000  0.060  0.000  0.060
tot    0.015  0.097  0.732  0.843
 
band    21 # energy   -4.92497006 # occ.  2.00000000
 
ion      s      p      d    tot
    1  0.000  0.000  0.001  0.001
    2  0.001  0.000  0.004  0.005
    3  0.002  0.001  0.005  0.007
    4  0.001  0.000  0.004  0.005
    5  0.000  0.001  0.010  0.011
    6  0.000  0.000  0.008  0.008
    7  0.002  0.001  0.005  0.007
    8  0.000  0.000  0.008  0.008
    9  0.000  0.000  0.009  0.009
   10  0.000  0.000  0.004  0.004
   11  0.001  0.000  0.043  0.044
   12  0.000  0.001  0.021  0.022
   13  0.001  0.000  0.043  0.044
   14  0.000  0.000  0.070  0.070
   15  0.001  0.000  0.029  0.030
   16  0.000  0.001  0.021  0.022