 vasp.6.2.0 18Jan21 (build Jun 12 2021 23:27:24) complex                        
  
 executed on             LinuxIFC date 2022.05.28  01:44:27
 running on   28 total cores
 distrk:  each k-point on   28 cores,    1 groups
 distr:  one band on NCORE=   1 cores,   28 groups


--------------------------------------------------------------------------------------------------------


 INCAR:
   ISMEAR = -5
   SIGMA = 0.1
   ISPIN = 1
   EDIFF = 1.d-5
   EDIFFG = -0.01
   NSW = 0
   NELM = 150
   ENCUT = 500
   ISIF = 2
   IBRION = 2
   LREAL = Auto
   ALGO = Fast
   ICHARG = 11
   LORBIT = 10
   LCHARG = .F.
   LWAVE = .F.

 POTCAR:    PAW_PBE Ag 02Apr2005                  
 POTCAR:    PAW_PBE Nb_sv 25May2007               
 POTCAR:    PAW_PBE C 08Apr2002                   
 POTCAR:    PAW_PBE O 08Apr2002                   
 -----------------------------------------------------------------------------
|                                                                             |
|           W    W    AA    RRRRR   N    N  II  N    N   GGGG   !!!           |
|           W    W   A  A   R    R  NN   N  II  NN   N  G    G  !!!           |
|           W    W  A    A  R    R  N N  N  II  N N  N  G       !!!           |
|           W WW W  AAAAAA  RRRRR   N  N N  II  N  N N  G  GGG   !            |
|           WW  WW  A    A  R   R   N   NN  II  N   NN  G    G                |
|           W    W  A    A  R    R  N    N  II  N    N   GGGG   !!!           |
|                                                                             |
|     For optimal performance we recommend to set                             |
|       NCORE = 2 up to number-of-cores-per-socket                            |
|     NCORE specifies how many cores store one orbital (NPAR=cpu/NCORE).      |
|     This setting can greatly improve the performance of VASP for DFT.       |
|     The default, NCORE=1 might be grossly inefficient on modern             |
|     multi-core architectures or massively parallel machines. Do your        |
|     own testing! More info at https://www.vasp.at/wiki/index.php/NCORE      |
|     Unfortunately you need to use the default for GW and RPA                |
|     calculations (for HF NCORE is supported but not extensively tested      |
|     yet).                                                                   |
|                                                                             |
 -----------------------------------------------------------------------------

 POTCAR:    PAW_PBE Ag 02Apr2005                  
   VRHFIN =Ag : s1 d10                                                                              
   LEXCH  = PE                                                                                      
   EATOM  =  1037.2675 eV,   76.2370 Ry                                                             
                                                                                                    
   TITEL  = PAW_PBE Ag 02Apr2005                                                                    
   LULTRA =        F    use ultrasoft PP ?                                                          
   IUNSCR =        1    unscreen: 0-lin 1-nonlin 2-no                                               
   RPACOR =    2.000    partial core radius                                                         
   POMASS =  107.868; ZVAL   =   11.000    mass and valenz                                          
   RCORE  =    2.500    outmost cutoff radius                                                       
   RWIGS  =    2.840; RWIGS  =    1.503    wigner-seitz radius (au A)                               
   ENMAX  =  249.844; ENMIN  =  187.383 eV                                                          
   ICORE  =        3    local potential                                                             
   LCOR   =        T    correct aug charges                                                         
   LPAW   =        T    paw PP                                                                      
   EAUG   =  412.496                                                                                
   DEXC   =    0.000                                                                                
   RMAX   =    2.560    core radius for proj-oper                                                   
   RAUG   =    1.300    factor for augmentation sphere                                              
   RDEP   =    2.576    radius for radial grids                                                     
   RDEPT  =    2.072    core radius for aug-charge                                                  
                                                                                                    
   Atomic configuration                                                                             
   12 entries                                                                                       
     n  l   j            E        occ.                                                              
     1  0  0.50    -25324.9161   2.0000                                                             
     2  0  0.50     -3728.5341   2.0000                                                             
     2  1  1.50     -3344.0404   6.0000                                                             
     3  0  0.50      -683.5581   2.0000                                                             
     3  1  1.50      -557.3225   6.0000                                                             
     3  2  2.50      -358.3853  10.0000                                                             
     4  0  0.50       -95.0341   2.0000                                                             
     4  1  1.50       -58.5511   6.0000                                                             
     4  2  2.50        -7.4440  10.0000                                                             
     5  0  0.50        -4.4045   1.0000                                                             
     5  1  0.50        -1.3606   0.0000                                                             
     4  3  2.50        -1.3606   0.0000                                                             
   Description                                                                                      
     l       E           TYP  RCUT    TYP  RCUT                                                     
     2     -7.4439781     23  2.400                                                                 
     2     -8.8045607     23  2.400                                                                 
     0     -4.4044681     23  2.400                                                                 
     0      1.9520038     23  2.400                                                                 
     1     -1.3605826     23  2.500                                                                 
     1     27.2116520     23  2.500                                                                 
     3     -4.0817478     23  2.400                                                                 
  local pseudopotential read in
  partial core-charges read in
  partial kinetic energy density read in
  atomic valenz-charges read in
  non local Contribution for L=           2  read in
    real space projection operators read in
  non local Contribution for L=           2  read in
    real space projection operators read in
  non local Contribution for L=           0  read in
    real space projection operators read in
  non local Contribution for L=           0  read in
    real space projection operators read in
  non local Contribution for L=           1  read in
    real space projection operators read in
  non local Contribution for L=           1  read in
    real space projection operators read in
    PAW grid and wavefunctions read in
 
   number of l-projection  operators is LMAX  =           6
   number of lm-projection operators is LMMAX =          18
 
 POTCAR:    PAW_PBE Nb_sv 25May2007               
   VRHFIN =Nb: 4p5s4d                                                                               
   LEXCH  = PE                                                                                      
   EATOM  =  1555.1913 eV,  114.3033 Ry                                                             
                                                                                                    
   TITEL  = PAW_PBE Nb_sv 25May2007                                                                 
   LULTRA =        F    use ultrasoft PP ?                                                          
   IUNSCR =        1    unscreen: 0-lin 1-nonlin 2-no                                               
   RPACOR =    1.800    partial core radius                                                         
   POMASS =   92.910; ZVAL   =   13.000    mass and valenz                                          
   RCORE  =    2.400    outmost cutoff radius                                                       
   RWIGS  =    2.400; RWIGS  =    1.270    wigner-seitz radius (au A)                               
   ENMAX  =  293.235; ENMIN  =  219.927 eV                                                          
   ICORE  =        3    local potential                                                             
   LCOR   =        T    correct aug charges                                                         
   LPAW   =        T    paw PP                                                                      
   EAUG   =  455.659                                                                                
   DEXC   =    0.000                                                                                
   RMAX   =    2.456    core radius for proj-oper                                                   
   RAUG   =    1.300    factor for augmentation sphere                                              
   RDEP   =    2.451    radius for radial grids                                                     
   RDEPT  =    1.956    core radius for aug-charge                                                  
                                                                                                    
   Atomic configuration                                                                             
   11 entries                                                                                       
     n  l   j            E        occ.                                                              
     1  0  0.50    -18805.2457   2.0000                                                             
     2  0  0.50     -2630.2869   2.0000                                                             
     2  1  1.50     -2348.4046   6.0000                                                             
     3  0  0.50      -438.8757   2.0000                                                             
     3  1  1.50      -346.7588   6.0000                                                             
     3  2  2.50      -196.2560  10.0000                                                             
     4  0  0.50       -58.3859   2.0000                                                             
     5  0  0.50        -3.9816   1.0000                                                             
     4  1  1.50       -34.5141   6.0000                                                             
     4  2  2.50        -3.0408   4.0000                                                             
     4  3  2.50        -1.3606   0.0000                                                             
   Description                                                                                      
     l       E           TYP  RCUT    TYP  RCUT                                                     
     0    -58.3859094     23  2.200                                                                 
     0     -3.9816262     23  2.200                                                                 
     1    -34.5140738     23  2.200                                                                 
     1     13.6058260     23  2.200                                                                 
     2     -3.0408010     23  2.200                                                                 
     2     -0.1283038     23  2.200                                                                 
     3     -1.3605826     23  2.400                                                                 
  local pseudopotential read in
  partial core-charges read in
  partial kinetic energy density read in
  atomic valenz-charges read in
  non local Contribution for L=           0  read in
    real space projection operators read in
  non local Contribution for L=           0  read in
    real space projection operators read in
  non local Contribution for L=           1  read in
    real space projection operators read in
  non local Contribution for L=           1  read in
    real space projection operators read in
  non local Contribution for L=           2  read in
    real space projection operators read in
  non local Contribution for L=           2  read in
    real space projection operators read in
    PAW grid and wavefunctions read in
 
   number of l-projection  operators is LMAX  =           6
   number of lm-projection operators is LMMAX =          18
 
 POTCAR:    PAW_PBE C 08Apr2002                   
   VRHFIN =C: s2p2                                                                                  
   LEXCH  = PE                                                                                      
   EATOM  =   147.1560 eV,   10.8157 Ry                                                             
                                                                                                    
   TITEL  = PAW_PBE C 08Apr2002                                                                     
   LULTRA =        F    use ultrasoft PP ?                                                          
   IUNSCR =        1    unscreen: 0-lin 1-nonlin 2-no                                               
   RPACOR =    1.200    partial core radius                                                         
   POMASS =   12.011; ZVAL   =    4.000    mass and valenz                                          
   RCORE  =    1.500    outmost cutoff radius                                                       
   RWIGS  =    1.630; RWIGS  =    0.863    wigner-seitz radius (au A)                               
   ENMAX  =  400.000; ENMIN  =  300.000 eV                                                          
   ICORE  =        2    local potential                                                             
   LCOR   =        T    correct aug charges                                                         
   LPAW   =        T    paw PP                                                                      
   EAUG   =  644.873                                                                                
   DEXC   =    0.000                                                                                
   RMAX   =    1.529    core radius for proj-oper                                                   
   RAUG   =    1.300    factor for augmentation sphere                                              
   RDEP   =    1.501    radius for radial grids                                                     
   RDEPT  =    1.300    core radius for aug-charge                                                  
                                                                                                    
   Atomic configuration                                                                             
    4 entries                                                                                       
     n  l   j            E        occ.                                                              
     1  0  0.50      -273.3789   2.0000                                                             
     2  0  0.50       -13.7508   2.0000                                                             
     2  1  0.50        -5.2854   2.0000                                                             
     3  2  1.50        -5.4423   0.0000                                                             
   Description                                                                                      
     l       E           TYP  RCUT    TYP  RCUT                                                     
     0    -13.7508458     23  1.200                                                                 
     0     -8.2022199     23  1.200                                                                 
     1     -5.2854383     23  1.500                                                                 
     1     34.0145650     23  1.500                                                                 
     2     -5.4423304      7  1.500                                                                 
  local pseudopotential read in
  partial core-charges read in
  partial kinetic energy density read in
  atomic valenz-charges read in
  non local Contribution for L=           0  read in
    real space projection operators read in
  non local Contribution for L=           0  read in
    real space projection operators read in
  non local Contribution for L=           1  read in
    real space projection operators read in
  non local Contribution for L=           1  read in
    real space projection operators read in
    PAW grid and wavefunctions read in
 
   number of l-projection  operators is LMAX  =           4
   number of lm-projection operators is LMMAX =           8
 
 POTCAR:    PAW_PBE O 08Apr2002                   
   VRHFIN =O: s2p4                                                                                  
   LEXCH  = PE                                                                                      
   EATOM  =   432.3788 eV,   31.7789 Ry                                                             
                                                                                                    
   TITEL  = PAW_PBE O 08Apr2002                                                                     
   LULTRA =        F    use ultrasoft PP ?                                                          
   IUNSCR =        1    unscreen: 0-lin 1-nonlin 2-no                                               
   RPACOR =    1.200    partial core radius                                                         
   POMASS =   16.000; ZVAL   =    6.000    mass and valenz                                          
   RCORE  =    1.520    outmost cutoff radius                                                       
   RWIGS  =    1.550; RWIGS  =    0.820    wigner-seitz radius (au A)                               
   ENMAX  =  400.000; ENMIN  =  300.000 eV                                                          
   ICORE  =        2    local potential                                                             
   LCOR   =        T    correct aug charges                                                         
   LPAW   =        T    paw PP                                                                      
   EAUG   =  605.392                                                                                
   DEXC   =    0.000                                                                                
   RMAX   =    1.553    core radius for proj-oper                                                   
   RAUG   =    1.300    factor for augmentation sphere                                              
   RDEP   =    1.550    radius for radial grids                                                     
   RDEPT  =    1.329    core radius for aug-charge                                                  
                                                                                                    
   Atomic configuration                                                                             
    4 entries                                                                                       
     n  l   j            E        occ.                                                              
     1  0  0.50      -514.6923   2.0000                                                             
     2  0  0.50       -23.9615   2.0000                                                             
     2  1  0.50        -9.0305   4.0000                                                             
     3  2  1.50        -9.5241   0.0000                                                             
   Description                                                                                      
     l       E           TYP  RCUT    TYP  RCUT                                                     
     0    -23.9615318     23  1.200                                                                 
     0     -9.5240782     23  1.200                                                                 
     1     -9.0304911     23  1.520                                                                 
     1      8.1634956     23  1.520                                                                 
     2     -9.5240782      7  1.500                                                                 
  local pseudopotential read in
  partial core-charges read in
  partial kinetic energy density read in
  kinetic energy density of atom read in
  atomic valenz-charges read in
  non local Contribution for L=           0  read in
    real space projection operators read in
  non local Contribution for L=           0  read in
    real space projection operators read in
  non local Contribution for L=           1  read in
    real space projection operators read in
  non local Contribution for L=           1  read in
    real space projection operators read in
    PAW grid and wavefunctions read in
 
   number of l-projection  operators is LMAX  =           4
   number of lm-projection operators is LMMAX =           8
 
 Optimization of the real space projectors (new method)

 maximal supplied QI-value         = 15.12
 optimisation between [QCUT,QGAM] = [ 11.34, 22.83] = [ 36.00,145.93] Ry 
 Optimized for a Real-space Cutoff    1.43 Angstroem

   l    n(q)    QCUT    max X(q) W(low)/X(q) W(high)/X(q)  e(spline) 
   2      9    11.338    53.897    0.16E-03    0.20E-03    0.28E-06
   2      9    11.338    52.416    0.16E-03    0.20E-03    0.29E-06
   0     10    11.338   122.045    0.31E-04    0.76E-04    0.15E-06
   0     10    11.338    73.629    0.30E-04    0.72E-04    0.15E-06
   1      9    11.338    15.255    0.20E-03    0.19E-04    0.17E-06
   1      9    11.338     9.562    0.16E-03    0.15E-04    0.14E-06
 Optimization of the real space projectors (new method)

 maximal supplied QI-value         = 15.68
 optimisation between [QCUT,QGAM] = [ 11.45, 22.90] = [ 36.71,146.85] Ry 
 Optimized for a Real-space Cutoff    1.56 Angstroem

   l    n(q)    QCUT    max X(q) W(low)/X(q) W(high)/X(q)  e(spline) 
   0     11    11.450    10.201    0.21E-04    0.96E-05    0.78E-07
   0     11    11.450     8.174    0.31E-04    0.18E-04    0.14E-06
   1     10    11.450     3.488    0.27E-04    0.12E-04    0.96E-07
   1     10    11.450     4.917    0.11E-03    0.11E-03    0.37E-06
   2     10    11.450   153.744    0.37E-03    0.81E-03    0.10E-05
   2     10    11.450   126.342    0.37E-03    0.81E-03    0.10E-05
 Optimization of the real space projectors (new method)

 maximal supplied QI-value         = 25.13
 optimisation between [QCUT,QGAM] = [ 11.31, 22.87] = [ 35.82,146.48] Ry 
 Optimized for a Real-space Cutoff    1.00 Angstroem

   l    n(q)    QCUT    max X(q) W(low)/X(q) W(high)/X(q)  e(spline) 
   0      7    11.310   115.676    0.43E-03    0.13E-02    0.19E-06
   0      7    11.310    87.132    0.43E-03    0.13E-02    0.18E-06
   1      6    11.310     4.429    0.42E-03    0.74E-03    0.11E-06
   1      6    11.310     2.733    0.34E-03    0.55E-03    0.92E-07
 Optimization of the real space projectors (new method)

 maximal supplied QI-value         = 24.76
 optimisation between [QCUT,QGAM] = [ 11.39, 22.77] = [ 36.31,145.25] Ry 
 Optimized for a Real-space Cutoff    1.00 Angstroem

   l    n(q)    QCUT    max X(q) W(low)/X(q) W(high)/X(q)  e(spline) 
   0      7    11.387    20.381    0.39E-03    0.13E-02    0.15E-06
   0      7    11.387    15.268    0.42E-03    0.14E-02    0.17E-06
   1      6    11.387     5.964    0.41E-03    0.11E-02    0.17E-06
   1      6    11.387     5.382    0.39E-03    0.87E-03    0.15E-06
  PAW_PBE Ag 02Apr2005                  :
 energy of atom  1       EATOM=-1037.2675
 kinetic energy error for atom=    0.0052 (will be added to EATOM!!)
  PAW_PBE Nb_sv 25May2007               :
 energy of atom  2       EATOM=-1555.1913
 kinetic energy error for atom=    0.0069 (will be added to EATOM!!)
  PAW_PBE C 08Apr2002                   :
 energy of atom  3       EATOM= -147.1560
 kinetic energy error for atom=    0.0076 (will be added to EATOM!!)
  PAW_PBE O 08Apr2002                   :
 energy of atom  4       EATOM= -432.3788
 kinetic energy error for atom=    0.0224 (will be added to EATOM!!)
 
 
 POSCAR: Ag-Nb-CO2
  positions in direct lattice
  velocities in cartesian coordinates
 exchange correlation table for  LEXCH =        8
   RHO(1)=    0.500       N(1)  =     2000
   RHO(2)=  100.500       N(2)  =     4000

 VTST: version 3.2, (02/03/18)

 CHAIN: initializing optimizer
 
 OPT: Using VASP Conjugate-Gradient optimizer
 CHAIN: Read ICHAIN            0
 
 POSCAR: Ag-Nb-CO2
  positions in direct lattice
  velocities in cartesian coordinates
 


--------------------------------------------------------------------------------------------------------


 ion  position               nearest neighbor table
   1  0.000  0.000  0.217-   2 2.93   8 2.93   7 2.93   6 2.93   4 2.93  12 2.93  16 2.93  10 2.93
                             3 2.93
   2  0.333  0.000  0.217-   1 2.93   8 2.93   9 2.93   3 2.93   4 2.93   5 2.93  10 2.93  17 2.93
                            11 2.93
   3  0.667  0.000  0.217-   9 2.93   2 2.93   5 2.93  11 2.93   7 2.93  18 2.93   1 2.93   6 2.93
                            12 2.93
   4  0.000  0.333  0.217-   5 2.93   6 2.93   2 2.93   1 2.93   7 2.93  13 2.93  15 2.93   9 2.93
                            10 2.93
   5  0.333  0.333  0.217-   4 2.93   3 2.93   7 2.93   2 2.93   8 2.93  14 2.93  13 2.93  11 2.93
                             6 2.93
   6  0.667  0.333  0.217-   4 2.93   9 2.93   1 2.93  15 2.93   8 2.93  12 2.93   3 2.93   5 2.93
                            14 2.93
   7  0.000  0.667  0.217-   8 2.93   1 2.93   5 2.93   3 2.93   4 2.93  16 2.93  18 2.93  13 2.93
                             9 2.93
   8  0.333  0.667  0.217-   7 2.93   1 2.93   2 2.93   9 2.93   5 2.93  16 2.93   6 2.93  17 2.93
                            14 2.93
   9  0.667  0.667  0.217-   3 2.93   2 2.93   8 2.93   6 2.93  17 2.93   4 2.93  15 2.93   7 2.93
                            18 2.93
  10  0.111  0.111  0.315-  20 2.90  19 2.93  26 2.93  12 2.93  16 2.93  15 2.93  17 2.93  13 2.93
                            11 2.93   2 2.93   1 2.93   4 2.93
  11  0.444  0.111  0.315-  21 2.90  20 2.90  14 2.93  17 2.93  18 2.93   3 2.93  12 2.93  13 2.93
                            10 2.93   5 2.93   2 2.93  27 2.93
  12  0.778  0.111  0.315-  21 2.90  25 2.93  19 2.93  10 2.93  16 2.93  18 2.93  15 2.93  11 2.93
                             1 2.93  14 2.93   6 2.93   3 2.93
  13  0.111  0.444  0.315-  20 2.90  23 2.90  15 2.93  14 2.93  18 2.93  10 2.93  11 2.93  16 2.93
                             4 2.93   5 2.93   7 2.93  22 2.93
  14  0.444  0.444  0.315-  23 2.90  21 2.90  13 2.93  11 2.93  16 2.93   5 2.93  12 2.93  17 2.93
                             8 2.93  15 2.93   6 2.93  24 2.93
  15  0.778  0.444  0.315-  19 2.93  13 2.93  10 2.93  12 2.93  17 2.93  18 2.93   4 2.93   6 2.93
                             9 2.93  14 2.93  24 2.93  22 2.93
  16  0.111  0.778  0.315-  23 2.90  26 2.93  25 2.93  18 2.93  12 2.93  10 2.93  14 2.93  17 2.93
                            13 2.93   7 2.93   8 2.93   1 2.93
  17  0.444  0.778  0.315-  26 2.93  11 2.93  10 2.93   9 2.93  18 2.93  15 2.93  16 2.93   2 2.93
                            14 2.93   8 2.93  27 2.93  24 2.93
  18  0.778  0.778  0.315-  25 2.93  16 2.93  12 2.93  13 2.93  11 2.93  17 2.93  15 2.93   7 2.93
                             3 2.93   9 2.93  22 2.93  27 2.93
  19  0.889  0.222  0.413-  15 2.93  10 2.93  12 2.93  20 2.93  21 2.93  28 2.93  24 2.93  22 2.93
                            26 2.93  25 2.93  32 2.97  31 2.97
  20  0.222  0.222  0.412-  36 2.82  10 2.90  13 2.90  11 2.90  19 2.93  26 2.93  27 2.93  22 2.93
                            21 2.94  23 2.94  31 2.97  29 2.97
  21  0.556  0.222  0.412-  36 2.82  12 2.90  11 2.90  14 2.90  25 2.93  19 2.93  27 2.93  24 2.93
                            20 2.94  23 2.94  30 2.97  32 2.97
  22  0.889  0.556  0.413-  24 2.93  27 2.93  25 2.93  19 2.93  18 2.93  15 2.93  23 2.93  20 2.93
                            35 2.93  13 2.93  33 2.95  31 2.95
  23  0.222  0.556  0.412-  36 2.82  16 2.90  14 2.90  13 2.90  26 2.93  25 2.93  22 2.93  24 2.93
                            21 2.94  20 2.94  34 2.97  33 2.97
  24  0.556  0.556  0.413-  27 2.93  22 2.93  19 2.93  26 2.93  15 2.93  17 2.93  23 2.93  21 2.93
                            35 2.93  14 2.93  32 2.95  34 2.95
  25  0.889  0.889  0.413-  18 2.93  16 2.93  12 2.93  23 2.93  21 2.93  28 2.93  22 2.93  27 2.93
                            26 2.93  19 2.93  33 2.97  30 2.97
  26  0.222  0.889  0.413-  17 2.93  16 2.93  10 2.93  23 2.93  20 2.93  28 2.93  27 2.93  24 2.93
                            25 2.93  19 2.93  34 2.97  29 2.97
  27  0.556  0.889  0.413-  24 2.93  22 2.93  26 2.93  25 2.93  17 2.93  18 2.93  20 2.93  21 2.93
                            35 2.93  11 2.93  29 2.95  30 2.95
  28  0.000  0.000  0.511-  26 2.93  25 2.93  19 2.93  29 2.95  34 2.95  33 2.95  32 2.95  31 2.95
                            30 2.95
  29  0.333  0.004  0.513-  37 2.78  30 2.90  31 2.90  36 2.91  35 2.95  28 2.95  27 2.95  20 2.97
                            26 2.97  34 2.99
  30  0.663  0.004  0.513-  29 2.90  32 2.90  36 2.91  35 2.95  28 2.95  27 2.95  21 2.97  25 2.97
                            33 2.99
  31  0.004  0.333  0.513-  37 2.64  33 2.90  29 2.90  36 2.91  35 2.95  28 2.95  22 2.95  20 2.97
                            19 2.97  32 2.99
  32  0.663  0.333  0.513-  34 2.90  30 2.90  36 2.91  35 2.95  28 2.95  24 2.95  21 2.97  19 2.97
                            31 2.99
  33  0.004  0.663  0.513-  31 2.90  34 2.90  36 2.91  35 2.95  28 2.95  22 2.95  23 2.97  25 2.97
                            30 2.99
  34  0.333  0.663  0.513-  32 2.90  33 2.90  36 2.91  35 2.95  28 2.95  24 2.95  23 2.97  26 2.97
                            29 2.99
  35  0.667  0.667  0.512-  24 2.93  27 2.93  22 2.93  30 2.95  29 2.95  32 2.95  34 2.95  31 2.95
                            33 2.95
  36  0.333  0.333  0.505-  39 2.02  37 2.17  21 2.82  20 2.82  23 2.82  31 2.91  33 2.91  30 2.91
                            29 2.91  34 2.91  32 2.91
  37  0.252  0.283  0.583-  38 1.22  39 1.35  36 2.17  31 2.64  29 2.78
  38  0.186  0.242  0.620-  37 1.22
  39  0.353  0.358  0.586-  37 1.35  36 2.02
 
  LATTYP: Found a hexagonal cell.
 ALAT       =     8.7913665772
 C/A-ratio  =     2.7703738524
  
  Lattice vectors:
  
 A1 = (  -4.3956832886,  -7.6135467898,   0.0000000000)
 A2 = (   8.7913665771,   0.0000000000,   0.0000000000)
 A3 = (   0.0000000000,   0.0000000000,  24.3553720923)


Analysis of symmetry for initial positions (statically):
=====================================================================
 Subroutine PRICEL returns:
 Original cell was already a primitive cell.
 

 Routine SETGRP: Setting up the symmetry group for a 
 hexagonal supercell.


 Subroutine GETGRP returns: Found  1 space group operations
 (whereof  1 operations were pure point group operations)
 out of a pool of 24 trial point group operations.


The static configuration has the point symmetry C_1 .


Analysis of symmetry for dynamics (positions and initial velocities):
=====================================================================
 Subroutine PRICEL returns:
 Original cell was already a primitive cell.
 

 Routine SETGRP: Setting up the symmetry group for a 
 hexagonal supercell.


 Subroutine GETGRP returns: Found  1 space group operations
 (whereof  1 operations were pure point group operations)
 out of a pool of 24 trial point group operations.


The dynamic configuration has the point symmetry C_1 .


Analysis of constrained symmetry for selective dynamics:
=====================================================================
 Subroutine PRICEL returns:
 Original cell was already a primitive cell.
 

 Routine SETGRP: Setting up the symmetry group for a 
 hexagonal supercell.


 Subroutine GETGRP returns: Found  1 space group operations
 (whereof  1 operations were pure point group operations)
 out of a pool of 24 trial point group operations.


The constrained configuration has the point symmetry C_1 .


 Subroutine INISYM returns: Found  1 space group operations
 (whereof  1 operations are pure point group operations),
 and found     1 'primitive' translations


----------------------------------------------------------------------------------------

                                     Primitive cell                                     

  volume of cell :    1630.1898

  direct lattice vectors                    reciprocal lattice vectors
     8.791366577  0.000000000  0.000000000     0.113747958 -0.065672414  0.000000000
     4.395683289  7.613546790  0.000000000     0.000000000  0.131344829  0.000000000
     0.000000000  0.000000000 24.355372092     0.000000000  0.000000000  0.041058703

  length of vectors
     8.791366577  8.791366577 24.355372092     0.131344829  0.131344829  0.041058703

  position of ions in fractional coordinates (direct lattice)
     0.000000000  0.000000000  0.216879796
     0.333333313  0.000000000  0.216879796
     0.666666627  0.000000000  0.216879796
     1.000000000  0.333333343  0.216879796
     0.333333313  0.333333343  0.216879796
     0.666666687  0.333333343  0.216879796
     1.000000000  0.666666687  0.216879796
     0.333333313  0.666666687  0.216879796
     0.666666627  0.666666687  0.216879796
     0.111111104  0.111111112  0.315121252
     0.444444448  0.111111112  0.315121252
     0.777777791  0.111111112  0.315121252
     0.111111097  0.444444448  0.315121252
     0.444444418  0.444444448  0.315121252
     0.777777791  0.444444448  0.315121252
     0.111111104  0.777777791  0.315121252
     0.444444448  0.777777791  0.315121252
     0.777777791  0.777777791  0.315121252
     0.888874930  0.222250156  0.413105125
     0.222002280  0.222002295  0.411923225
     0.555995379  0.222002295  0.411923225
     0.888584292  0.555707884  0.413462778
     0.222002295  0.555995439  0.411923225
     0.555707884  0.555707884  0.413462778
     0.888874930  0.888874930  0.413105125
     0.222250126  0.888874930  0.413105125
     0.555707824  0.888584292  0.413462778
     0.000000000  0.000000000  0.511278028
     0.333455740  0.003519001  0.512718701
     0.663025199  0.003519001  0.512718701
     0.003519001  0.333455770  0.512718701
     0.663025259  0.333455770  0.512718701
     0.003519001  0.663025259  0.512718701
     0.333455740  0.663025259  0.512718701
     0.666666627  0.666666687  0.511887635
     0.333333313  0.333333343  0.504581095
     0.251790017  0.283004719  0.583281209
     0.186238010  0.241514649  0.620283758
     0.353331993  0.357561045  0.586417119

  ion indices of the primitive-cell ions
   primitive index   ion index
                 1           1
                 2           2
                 3           3
                 4           4
                 5           5
                 6           6
                 7           7
                 8           8
                 9           9
                10          10
                11          11
                12          12
                13          13
                14          14
                15          15
                16          16
                17          17
                18          18
                19          19
                20          20
                21          21
                22          22
                23          23
                24          24
                25          25
                26          26
                27          27
                28          28
                29          29
                30          30
                31          31
                32          32
                33          33
                34          34
                35          35
                36          36
                37          37
                38          38
                39          39

----------------------------------------------------------------------------------------

 
 
 KPOINTS: Automatic mesh                          

Automatic generation of k-mesh.
 Grid dimensions read from file:
 generate k-points for:    8    8    1

 Generating k-lattice:

  Cartesian coordinates                     Fractional coordinates (reciprocal lattice)
     0.014218495 -0.008209052  0.000000000     0.125000000 -0.000000000  0.000000000
     0.000000000  0.016418104  0.000000000     0.000000000  0.125000000  0.000000000
     0.000000000  0.000000000  0.041058703     0.000000000  0.000000000  1.000000000

  Length of vectors
     0.016418104  0.016418104  0.041058703

  Shift w.r.t. Gamma in fractional coordinates (k-lattice)
     0.000000000  0.000000000  0.000000000

 TETIRR: Found    192 inequivalent tetrahedra from      384
 
 Subroutine IBZKPT returns following result:
 ===========================================
 
 Found     34 irreducible k-points:
 
 Following reciprocal coordinates:
            Coordinates               Weight
  0.000000  0.000000  0.000000      1.000000
  0.125000  0.000000  0.000000      2.000000
  0.125000  0.125000  0.000000      2.000000
  0.000000  0.125000  0.000000      2.000000
  0.250000  0.000000  0.000000      2.000000
  0.250000  0.250000  0.000000      2.000000
  0.000000  0.250000  0.000000      2.000000
  0.375000  0.000000  0.000000      2.000000
  0.375000  0.375000  0.000000      2.000000
  0.000000  0.375000  0.000000      2.000000
  0.500000  0.000000  0.000000      1.000000
  0.500000  0.500000  0.000000      1.000000
  0.000000  0.500000  0.000000      1.000000
  0.250000  0.125000  0.000000      2.000000
  0.125000  0.250000  0.000000      2.000000
 -0.125000  0.125000  0.000000      2.000000
  0.375000  0.125000  0.000000      2.000000
  0.250000  0.375000  0.000000      2.000000
 -0.125000  0.250000  0.000000      2.000000
  0.250000 -0.125000  0.000000      2.000000
 -0.125000 -0.375000  0.000000      2.000000
 -0.375000 -0.250000  0.000000      2.000000
  0.500000  0.125000  0.000000      2.000000
  0.375000  0.500000  0.000000      2.000000
 -0.125000  0.375000  0.000000      2.000000
  0.375000 -0.125000  0.000000      2.000000
 -0.125000  0.500000  0.000000      2.000000
  0.500000 -0.375000  0.000000      2.000000
  0.500000  0.250000  0.000000      2.000000
  0.250000  0.500000  0.000000      2.000000
 -0.250000  0.250000  0.000000      2.000000
 -0.375000  0.250000  0.000000      2.000000
  0.375000 -0.375000  0.000000      2.000000
 -0.250000  0.375000  0.000000      2.000000
 
 Following cartesian coordinates:
            Coordinates               Weight
  0.000000  0.000000  0.000000      1.000000
  0.014218 -0.008209  0.000000      2.000000
  0.014218  0.008209  0.000000      2.000000
  0.000000  0.016418  0.000000      2.000000
  0.028437 -0.016418  0.000000      2.000000
  0.028437  0.016418  0.000000      2.000000
  0.000000  0.032836  0.000000      2.000000
  0.042655 -0.024627  0.000000      2.000000
  0.042655  0.024627  0.000000      2.000000
  0.000000  0.049254  0.000000      2.000000
  0.056874 -0.032836  0.000000      1.000000
  0.056874  0.032836  0.000000      1.000000
  0.000000  0.065672  0.000000      1.000000
  0.028437 -0.000000  0.000000      2.000000
  0.014218  0.024627  0.000000      2.000000
 -0.014218  0.024627  0.000000      2.000000
  0.042655 -0.008209  0.000000      2.000000
  0.028437  0.032836  0.000000      2.000000
 -0.014218  0.041045  0.000000      2.000000
  0.028437 -0.032836  0.000000      2.000000
 -0.014218 -0.041045  0.000000      2.000000
 -0.042655 -0.008209  0.000000      2.000000
  0.056874 -0.016418  0.000000      2.000000
  0.042655  0.041045  0.000000      2.000000
 -0.014218  0.057463  0.000000      2.000000
  0.042655 -0.041045  0.000000      2.000000
 -0.014218  0.073881  0.000000      2.000000
  0.056874 -0.082091  0.000000      2.000000
  0.056874 -0.000000  0.000000      2.000000
  0.028437  0.049254  0.000000      2.000000
 -0.028437  0.049254  0.000000      2.000000
 -0.042655  0.057463  0.000000      2.000000
  0.042655 -0.073881  0.000000      2.000000
 -0.028437  0.065672  0.000000      2.000000
 


--------------------------------------------------------------------------------------------------------




 Dimension of arrays:
   k-points           NKPTS =     34   k-points in BZ     NKDIM =     34   number of bands    NBANDS=    252
   number of dos      NEDOS =    301   number of ions     NIONS =     39
   non local maximal  LDIM  =      6   non local SUM 2l+1 LMDIM =     18
   total plane-waves  NPLWV = 322560
   max r-space proj   IRMAX =   3221   max aug-charges    IRDMAX=   9927
   dimension x,y,z NGX =    48 NGY =   48 NGZ =  140
   dimension x,y,z NGXF=    96 NGYF=   96 NGZF=  280
   support grid    NGXF=    96 NGYF=   96 NGZF=  280
   ions per type =              35   1   1   2
   NGX,Y,Z   is equivalent  to a cutoff of   9.08,  9.08,  9.56 a.u.
   NGXF,Y,Z  is equivalent  to a cutoff of  18.15, 18.15, 19.11 a.u.

 SYSTEM =  unknown system                          
 POSCAR =  Ag-Nb-CO2                               

 Startparameter for this run:
   NWRITE =      2    write-flag & timer
   PREC   = normal    normal or accurate (medium, high low for compatibility)
   ISTART =      0    job   : 0-new  1-cont  2-samecut
   ICHARG =     11    charge: 1-file 2-atom 10-const
   ISPIN  =      1    spin polarized calculation?
   LNONCOLLINEAR =      F non collinear calculations
   LSORBIT =      F    spin-orbit coupling
   INIWAV =      1    electr: 0-lowe 1-rand  2-diag
   LASPH  =      F    aspherical Exc in radial PAW
   METAGGA=      F    non-selfconsistent MetaGGA calc.

 Electronic Relaxation 1
   ENCUT  =  500.0 eV  36.75 Ry    6.06 a.u.  16.03 16.03 44.41*2*pi/ulx,y,z
   ENINI  =  500.0     initial cutoff
   ENAUG  =  644.9 eV  augmentation charge cutoff
   NELM   =    150;   NELMIN=  2; NELMDL= -5     # of ELM steps 
   EDIFF  = 0.1E-04   stopping-criterion for ELM
   LREAL  =      T    real-space projection
   NLSPLINE    = F    spline interpolate recip. space projectors
   LCOMPAT=      F    compatible to vasp.4.4
   GGA_COMPAT  = T    GGA compatible to vasp.4.4-vasp.4.6
   LMAXPAW     = -100 max onsite density
   LMAXMIX     =    2 max onsite mixed and CHGCAR
   VOSKOWN=      0    Vosko Wilk Nusair interpolation
   ROPT   =   -0.00050  -0.00050  -0.00050  -0.00050
 Ionic relaxation
   EDIFFG = -.1E-01   stopping-criterion for IOM
   NSW    =      0    number of steps for IOM
   NBLOCK =      1;   KBLOCK =      1    inner block; outer block 
   IBRION =     -1    ionic relax: 0-MD 1-quasi-New 2-CG
   NFREE  =      1    steps in history (QN), initial steepest desc. (CG)
   ISIF   =      2    stress and relaxation
   IWAVPR =     10    prediction:  0-non 1-charg 2-wave 3-comb
   ISYM   =      2    0-nonsym 1-usesym 2-fastsym
   LCORR  =      T    Harris-Foulkes like correction to forces

   POTIM  = 0.5000    time-step for ionic-motion
   TEIN   =    0.0    initial temperature
   TEBEG  =    0.0;   TEEND  =   0.0 temperature during run
   SMASS  =  -3.00    Nose mass-parameter (am)
   estimated Nose-frequenzy (Omega)   =  0.10E-29 period in steps = 0.13E+47 mass=  -0.177E-26a.u.
   SCALEE = 1.0000    scale energy and forces
   NPACO  =    256;   APACO  = 16.0  distance and # of slots for P.C.
   PSTRESS=    0.0 pullay stress

  Mass of Ions in am
   POMASS = 107.87 92.91 12.01 16.00
  Ionic Valenz
   ZVAL   =  11.00 13.00  4.00  6.00
  Atomic Wigner-Seitz radii
   RWIGS  =  -1.00 -1.00 -1.00 -1.00
  virtual crystal weights 
   VCA    =   1.00  1.00  1.00  1.00
   NELECT =     414.0000    total number of electrons
   NUPDOWN=      -1.0000    fix difference up-down

 DOS related values:
   EMIN   =  10.00;   EMAX   =-10.00  energy-range for DOS
   EFERMI =   0.00
   ISMEAR =    -5;   SIGMA  =   0.10  broadening in eV -4-tet -1-fermi 0-gaus

 Electronic relaxation 2 (details)
   IALGO  =     68    algorithm
   LDIAG  =      T    sub-space diagonalisation (order eigenvalues)
   LSUBROT=      F    optimize rotation matrix (better conditioning)
   TURBO    =      0    0=normal 1=particle mesh
   IRESTART =      0    0=no restart 2=restart with 2 vectors
   NREBOOT  =      0    no. of reboots
   NMIN     =      0    reboot dimension
   EREF     =   0.00    reference energy to select bands
   IMIX   =      4    mixing-type and parameters
     AMIX     =   0.40;   BMIX     =  1.00
     AMIX_MAG =   1.60;   BMIX_MAG =  1.00
     AMIN     =   0.10
     WC   =   100.;   INIMIX=   1;  MIXPRE=   1;  MAXMIX= -45

 Intra band minimization:
   WEIMIN = 0.0000     energy-eigenvalue tresh-hold
   EBREAK =  0.99E-08  absolut break condition
   DEPER  =   0.30     relativ break condition  

   TIME   =   0.40     timestep for ELM

  volume/ion in A,a.u.               =      41.80       282.08
  Fermi-wavevector in a.u.,A,eV,Ry     =   1.036722  1.959120 14.623433  1.074792
  Thomas-Fermi vector in A             =   2.171126
 
 Write flags
   LWAVE        =      F    write WAVECAR
   LDOWNSAMPLE  =      F    k-point downsampling of WAVECAR
   LCHARG       =      F    write CHGCAR
   LVTOT        =      F    write LOCPOT, total local potential
   LVHAR        =      F    write LOCPOT, Hartree potential only
   LELF         =      F    write electronic localiz. function (ELF)
   LORBIT       =     10    0 simple, 1 ext, 2 COOP (PROOUT), +10 PAW based schemes


 Dipole corrections
   LMONO  =      F    monopole corrections only (constant potential shift)
   LDIPOL =      F    correct potential (dipole corrections)
   IDIPOL =      0    1-x, 2-y, 3-z, 4-all directions 
   EPSILON=  1.0000000 bulk dielectric constant

 Exchange correlation treatment:
   GGA     =    --    GGA type
   LEXCH   =     8    internal setting for exchange type
   VOSKOWN=      0    Vosko Wilk Nusair interpolation
   LHFCALC =     F    Hartree Fock is set to
   LHFONE  =     F    Hartree Fock one center treatment
   AEXX    =    0.0000 exact exchange contribution

 Linear response parameters
   LEPSILON=     F    determine dielectric tensor
   LRPA    =     F    only Hartree local field effects (RPA)
   LNABLA  =     F    use nabla operator in PAW spheres
   LVEL    =     F    velocity operator in full k-point grid
   LINTERFAST=   F  fast interpolation
   KINTER  =     0    interpolate to denser k-point grid
   CSHIFT  =0.1000    complex shift for real part using Kramers Kronig
   OMEGAMAX=  -1.0    maximum frequency
   DEG_THRESHOLD= 0.2000000E-02 threshold for treating states as degnerate
   RTIME   =   -0.100 relaxation time in fs
  (WPLASMAI=    0.000 imaginary part of plasma frequency in eV, 0.658/RTIME)
   DFIELD  = 0.0000000 0.0000000 0.0000000 field for delta impulse in time
 
 Orbital magnetization related:
   ORBITALMAG=     F  switch on orbital magnetization
   LCHIMAG   =     F  perturbation theory with respect to B field
   DQ        =  0.001000  dq finite difference perturbation B field
   LLRAUG    =     F  two centre corrections for induced B field



--------------------------------------------------------------------------------------------------------


 Static calculation
 charge density and potential remain constant during run
 non-spin polarized calculation
 RMM-DIIS sequential band-by-band and
  variant of blocked Davidson during initial phase
 perform sub-space diagonalisation
    before iterative eigenvector-optimisation
 no mixing
 using additional bands           45
 real space projection scheme for non local part
 use partial core corrections
 calculate Harris-corrections to forces 
   (improved forces if not selfconsistent)
 use gradient corrections 
 WARNING: stress and forces are not correct
  (second derivative of E(xc) not defined)
 use of overlap-Matrix (Vanderbilt PP)
 Fermi weights with tetrahedron method with Bloechl corrections


--------------------------------------------------------------------------------------------------------


  energy-cutoff  :      500.00
  volume of cell :     1630.19
      direct lattice vectors                 reciprocal lattice vectors
     8.791366577  0.000000000  0.000000000     0.113747958 -0.065672414  0.000000000
     4.395683289  7.613546790  0.000000000     0.000000000  0.131344829  0.000000000
     0.000000000  0.000000000 24.355372092     0.000000000  0.000000000  0.041058703

  length of vectors
     8.791366577  8.791366577 24.355372092     0.131344829  0.131344829  0.041058703


 
 k-points in units of 2pi/SCALE and weight: Automatic mesh                          
   0.00000000  0.00000000  0.00000000       0.016
   0.01421849 -0.00820905  0.00000000       0.031
   0.01421849  0.00820905  0.00000000       0.031
   0.00000000  0.01641810  0.00000000       0.031
   0.02843699 -0.01641810  0.00000000       0.031
   0.02843699  0.01641810  0.00000000       0.031
   0.00000000  0.03283621  0.00000000       0.031
   0.04265548 -0.02462716  0.00000000       0.031
   0.04265548  0.02462716  0.00000000       0.031
   0.00000000  0.04925431  0.00000000       0.031
   0.05687398 -0.03283621  0.00000000       0.016
   0.05687398  0.03283621  0.00000000       0.016
   0.00000000  0.06567241  0.00000000       0.016
   0.02843699 -0.00000000  0.00000000       0.031
   0.01421849  0.02462716  0.00000000       0.031
  -0.01421849  0.02462716  0.00000000       0.031
   0.04265548 -0.00820905  0.00000000       0.031
   0.02843699  0.03283621  0.00000000       0.031
  -0.01421849  0.04104526  0.00000000       0.031
   0.02843699 -0.03283621  0.00000000       0.031
  -0.01421849 -0.04104526  0.00000000       0.031
  -0.04265548 -0.00820905  0.00000000       0.031
   0.05687398 -0.01641810  0.00000000       0.031
   0.04265548  0.04104526  0.00000000       0.031
  -0.01421849  0.05746336  0.00000000       0.031
   0.04265548 -0.04104526  0.00000000       0.031
  -0.01421849  0.07388147  0.00000000       0.031
   0.05687398 -0.08209052  0.00000000       0.031
   0.05687398 -0.00000000  0.00000000       0.031
   0.02843699  0.04925431  0.00000000       0.031
  -0.02843699  0.04925431  0.00000000       0.031
  -0.04265548  0.05746336  0.00000000       0.031
   0.04265548 -0.07388147  0.00000000       0.031
  -0.02843699  0.06567241  0.00000000       0.031
 
 k-points in reciprocal lattice and weights: Automatic mesh                          
   0.00000000  0.00000000  0.00000000       0.016
   0.12500000  0.00000000  0.00000000       0.031
   0.12500000  0.12500000  0.00000000       0.031
   0.00000000  0.12500000  0.00000000       0.031
   0.25000000  0.00000000  0.00000000       0.031
   0.25000000  0.25000000  0.00000000       0.031
   0.00000000  0.25000000  0.00000000       0.031
   0.37500000  0.00000000  0.00000000       0.031
   0.37500000  0.37500000  0.00000000       0.031
   0.00000000  0.37500000  0.00000000       0.031
   0.50000000  0.00000000  0.00000000       0.016
   0.50000000  0.50000000  0.00000000       0.016
   0.00000000  0.50000000  0.00000000       0.016
   0.25000000  0.12500000  0.00000000       0.031
   0.12500000  0.25000000  0.00000000       0.031
  -0.12500000  0.12500000  0.00000000       0.031
   0.37500000  0.12500000  0.00000000       0.031
   0.25000000  0.37500000  0.00000000       0.031
  -0.12500000  0.25000000  0.00000000       0.031
   0.25000000 -0.12500000  0.00000000       0.031
  -0.12500000 -0.37500000  0.00000000       0.031
  -0.37500000 -0.25000000  0.00000000       0.031
   0.50000000  0.12500000  0.00000000       0.031
   0.37500000  0.50000000  0.00000000       0.031
  -0.12500000  0.37500000  0.00000000       0.031
   0.37500000 -0.12500000  0.00000000       0.031
  -0.12500000  0.50000000  0.00000000       0.031
   0.50000000 -0.37500000  0.00000000       0.031
   0.50000000  0.25000000  0.00000000       0.031
   0.25000000  0.50000000  0.00000000       0.031
  -0.25000000  0.25000000  0.00000000       0.031
  -0.37500000  0.25000000  0.00000000       0.031
   0.37500000 -0.37500000  0.00000000       0.031
  -0.25000000  0.37500000  0.00000000       0.031
 
 position of ions in fractional coordinates (direct lattice) 
   0.00000000  0.00000000  0.21687980
   0.33333331  0.00000000  0.21687980
   0.66666663  0.00000000  0.21687980
   0.00000000  0.33333334  0.21687980
   0.33333331  0.33333334  0.21687980
   0.66666669  0.33333334  0.21687980
   0.00000000  0.66666669  0.21687980
   0.33333331  0.66666669  0.21687980
   0.66666663  0.66666669  0.21687980
   0.11111110  0.11111111  0.31512125
   0.44444445  0.11111111  0.31512125
   0.77777779  0.11111111  0.31512125
   0.11111110  0.44444445  0.31512125
   0.44444442  0.44444445  0.31512125
   0.77777779  0.44444445  0.31512125
   0.11111110  0.77777779  0.31512125
   0.44444445  0.77777779  0.31512125
   0.77777779  0.77777779  0.31512125
   0.88887493  0.22225016  0.41310513
   0.22200228  0.22200230  0.41192323
   0.55599538  0.22200230  0.41192323
   0.88858429  0.55570788  0.41346278
   0.22200230  0.55599544  0.41192323
   0.55570788  0.55570788  0.41346278
   0.88887493  0.88887493  0.41310513
   0.22225013  0.88887493  0.41310513
   0.55570782  0.88858429  0.41346278
   0.00000000  0.00000000  0.51127803
   0.33345574  0.00351900  0.51271870
   0.66302520  0.00351900  0.51271870
   0.00351900  0.33345577  0.51271870
   0.66302526  0.33345577  0.51271870
   0.00351900  0.66302526  0.51271870
   0.33345574  0.66302526  0.51271870
   0.66666663  0.66666669  0.51188763
   0.33333331  0.33333334  0.50458110
   0.25179002  0.28300472  0.58328121
   0.18623801  0.24151465  0.62028376
   0.35333199  0.35756105  0.58641712
 
 position of ions in cartesian coordinates  (Angst):
   0.00000000  0.00000000  5.28218814
   2.93045535  0.00000000  5.28218814
   5.86091070  0.00000000  5.28218814
   1.46522781  2.53784900  5.28218814
   4.39568315  2.53784900  5.28218814
   7.32613904  2.53784900  5.28218814
   2.93045562  5.07569801  5.28218814
   5.86091096  5.07569801  5.28218814
   8.79136632  5.07569801  5.28218814
   1.46522770  0.84594965  7.67489535
   4.39568332  0.84594965  7.67489535
   7.32613893  0.84594965  7.67489535
   2.93045542  3.38379860  7.67489535
   5.86091083  3.38379860  7.67489535
   8.79136671  3.38379860  7.67489535
   4.39568328  5.92164760  7.67489535
   7.32613890  5.92164760  7.67489535
  10.25659451  5.92164760  7.67489535
   8.79136665  1.69211196 10.06132904
   2.92755521  1.69022486 10.03254343
   5.86381097  1.69022486 10.03254343
  10.25458610  4.23090798 10.07003980
   4.39568342  4.23309729 10.03254343
   7.32814758  4.23090798 10.07003980
  11.72163802  6.76749087 10.06132904
   5.86109501  6.76749087 10.06132904
   8.79136631  6.76527808 10.07003980
   0.00000000  0.00000000 12.45236662
   2.94700006  0.02679208 12.48745475
   5.84436599  0.02679208 12.48745475
   1.49670278  2.53878110 12.48745475
   7.29466406  2.53878110 12.48745475
   2.94538588  5.04797383 12.48745475
   5.84598070  5.04797383 12.48745475
   8.79136632  5.07569801 12.46721382
   4.39568315  2.53784900 12.28926033
   3.45757745  2.15466967 14.20603088
   2.69890853  1.83878308 15.10724173
   4.67799618  2.72230775 14.28240713
 


--------------------------------------------------------------------------------------------------------


 k-point   1 :   0.0000 0.0000 0.0000  plane waves:   41243
 k-point   2 :   0.1250 0.0000 0.0000  plane waves:   41326
 k-point   3 :   0.1250 0.1250 0.0000  plane waves:   41326
 k-point   4 :   0.0000 0.1250 0.0000  plane waves:   41326
 k-point   5 :   0.2500 0.0000 0.0000  plane waves:   41336
 k-point   6 :   0.2500 0.2500 0.0000  plane waves:   41336
 k-point   7 :   0.0000 0.2500 0.0000  plane waves:   41336
 k-point   8 :   0.3750 0.0000 0.0000  plane waves:   41410
 k-point   9 :   0.3750 0.3750 0.0000  plane waves:   41410
 k-point  10 :   0.0000 0.3750 0.0000  plane waves:   41410
 k-point  11 :   0.5000 0.0000 0.0000  plane waves:   41412
 k-point  12 :   0.5000 0.5000 0.0000  plane waves:   41412
 k-point  13 :   0.0000 0.5000 0.0000  plane waves:   41412
 k-point  14 :   0.2500 0.1250 0.0000  plane waves:   41324
 k-point  15 :   0.1250 0.2500 0.0000  plane waves:   41324
 k-point  16 :  -0.1250 0.1250 0.0000  plane waves:   41324
 k-point  17 :   0.3750 0.1250 0.0000  plane waves:   41412
 k-point  18 :   0.2500 0.3750 0.0000  plane waves:   41412
 k-point  19 :  -0.1250 0.2500 0.0000  plane waves:   41412
 k-point  20 :   0.2500-0.1250 0.0000  plane waves:   41412
 k-point  21 :  -0.1250-0.3750 0.0000  plane waves:   41412
 k-point  22 :  -0.3750-0.2500 0.0000  plane waves:   41412
 k-point  23 :   0.5000 0.1250 0.0000  plane waves:   41392
 k-point  24 :   0.3750 0.5000 0.0000  plane waves:   41392
 k-point  25 :  -0.1250 0.3750 0.0000  plane waves:   41392
 k-point  26 :   0.3750-0.1250 0.0000  plane waves:   41392
 k-point  27 :  -0.1250 0.5000 0.0000  plane waves:   41392
 k-point  28 :   0.5000-0.3750 0.0000  plane waves:   41392
 k-point  29 :   0.5000 0.2500 0.0000  plane waves:   41436
 k-point  30 :   0.2500 0.5000 0.0000  plane waves:   41436
 k-point  31 :  -0.2500 0.2500 0.0000  plane waves:   41436
 k-point  32 :  -0.3750 0.2500 0.0000  plane waves:   41434
 k-point  33 :   0.3750-0.3750 0.0000  plane waves:   41434
 k-point  34 :  -0.2500 0.3750 0.0000  plane waves:   41434

 maximum and minimum number of plane-waves per node :     41436    41243

 maximum number of plane-waves:     41436
 maximum index in each direction: 
   IXMAX=   16   IYMAX=   16   IZMAX=   44
   IXMIN=  -16   IYMIN=  -16   IZMIN=  -44


 serial   3D FFT for wavefunctions
 parallel 3D FFT for charge:
    minimum data exchange during FFTs selected (reduces bandwidth)


 total amount of memory used by VASP MPI-rank0   278192. kBytes
=======================================================================

   base      :      30000. kBytes
   nonlr-proj:      15875. kBytes
   fftplans  :       4808. kBytes
   grid      :      20723. kBytes
   one-center:        606. kBytes
   wavefun   :     206180. kBytes
 
     INWAV:  cpu time    0.0000: real time    0.0001
 initial charge density was supplied:
 number of electron     414.0000098 magnetization 
 keeping initial charge density in first step


--------------------------------------------------------------------------------------------------------


 Maximum index for non-local projection operator         3078
 Maximum index for augmentation-charges          717 (set IRDMAX)


--------------------------------------------------------------------------------------------------------


 First call to EWALD:  gamma=   0.151
 Maximum number of real-space cells 4x 4x 2
 Maximum number of reciprocal cells 2x 2x 5

    FEWALD:  cpu time    0.0013: real time    0.0013


--------------------------------------- Iteration      1(   1)  ---------------------------------------


    POTLOK:  cpu time    0.0471: real time    0.0474
    SETDIJ:  cpu time    0.0046: real time    0.0047
     EDDAV:  cpu time   26.5310: real time   26.5331
 BZINTS: Fermi energy:    9.825260;  414.000000 electrons
         Band energy: 0.853739E+03;  BLOECHL correction:   -0.049311
       DOS:  cpu time    0.0594: real time    0.0594
    --------------------------------------------
      LOOP:  cpu time   26.6420: real time   26.6446

 eigenvalue-minimisations  : 17220
 total energy-change (2. order) : 0.2664305E+04  (-0.1926949E+05)
 number of electron     414.0000098 magnetization 
 augmentation part      414.0000098 magnetization 

 Free energy of the ion-electron system (eV)
  ---------------------------------------------------
  alpha Z        PSCENC =       733.40508934
  Ewald energy   TEWEN  =    132055.42457301
  -Hartree energ DENC   =   -171137.71709362
  -exchange      EXHF   =         0.00000000
  -V(xc)+E(xc)   XCENC  =      -263.16211973
  PAW double counting   =     41066.18320550   -39514.79411543
  entropy T*S    EENTRO =         0.00000000
  eigenvalues    EBANDS =       853.73927852
  atomic energy  EATOM  =     38871.22656374
  Solvation  Ediel_sol  =         0.00000000
  ---------------------------------------------------
  free energy    TOTEN  =      2664.30538132 eV

  energy without entropy =     2664.30538132  energy(sigma->0) =     2664.30538132


--------------------------------------------------------------------------------------------------------




--------------------------------------- Iteration      1(   2)  ---------------------------------------


     EDDAV:  cpu time   27.8875: real time   27.8880
 BZINTS: Fermi energy:    1.254313;  414.000000 electrons
         Band energy:-0.179842E+04;  BLOECHL correction:   -0.018032
       DOS:  cpu time    0.0512: real time    0.0512
    --------------------------------------------
      LOOP:  cpu time   27.9386: real time   27.9392

 eigenvalue-minimisations  : 18088
 total energy-change (2. order) :-0.2652163E+04  (-0.2555080E+04)
 number of electron     414.0000098 magnetization 
 augmentation part      414.0000098 magnetization 

 Free energy of the ion-electron system (eV)
  ---------------------------------------------------
  alpha Z        PSCENC =       733.40508934
  Ewald energy   TEWEN  =    132055.42457301
  -Hartree energ DENC   =   -171137.71709362
  -exchange      EXHF   =         0.00000000
  -V(xc)+E(xc)   XCENC  =      -263.16211973
  PAW double counting   =     41066.18320550   -39514.79411543
  entropy T*S    EENTRO =         0.00000000
  eigenvalues    EBANDS =     -1798.42331930
  atomic energy  EATOM  =     38871.22656374
  Solvation  Ediel_sol  =         0.00000000
  ---------------------------------------------------
  free energy    TOTEN  =        12.14278351 eV

  energy without entropy =       12.14278351  energy(sigma->0) =       12.14278351


--------------------------------------------------------------------------------------------------------




--------------------------------------- Iteration      1(   3)  ---------------------------------------


     EDDAV:  cpu time   34.7335: real time   34.7340
 BZINTS: Fermi energy:    0.360554;  414.000000 electrons
         Band energy:-0.192666E+04;  BLOECHL correction:   -0.026059
       DOS:  cpu time    0.0612: real time    0.0612
    --------------------------------------------
      LOOP:  cpu time   34.7947: real time   34.7952

 eigenvalue-minimisations  : 23632
 total energy-change (2. order) :-0.1282347E+03  (-0.1251848E+03)
 number of electron     414.0000098 magnetization 
 augmentation part      414.0000098 magnetization 

 Free energy of the ion-electron system (eV)
  ---------------------------------------------------
  alpha Z        PSCENC =       733.40508934
  Ewald energy   TEWEN  =    132055.42457301
  -Hartree energ DENC   =   -171137.71709362
  -exchange      EXHF   =         0.00000000
  -V(xc)+E(xc)   XCENC  =      -263.16211973
  PAW double counting   =     41066.18320550   -39514.79411543
  entropy T*S    EENTRO =         0.00000000
  eigenvalues    EBANDS =     -1926.65806228
  atomic energy  EATOM  =     38871.22656374
  Solvation  Ediel_sol  =         0.00000000
  ---------------------------------------------------
  free energy    TOTEN  =      -116.09195948 eV

  energy without entropy =     -116.09195948  energy(sigma->0) =     -116.09195948


--------------------------------------------------------------------------------------------------------




--------------------------------------- Iteration      1(   4)  ---------------------------------------


     EDDAV:  cpu time   34.3282: real time   34.3286
 BZINTS: Fermi energy:    0.298355;  414.000000 electrons
         Band energy:-0.193064E+04;  BLOECHL correction:   -0.025457
       DOS:  cpu time    0.0587: real time    0.0587
    --------------------------------------------
      LOOP:  cpu time   34.3869: real time   34.3873

 eigenvalue-minimisations  : 23352
 total energy-change (2. order) :-0.3984029E+01  (-0.3949070E+01)
 number of electron     414.0000098 magnetization 
 augmentation part      414.0000098 magnetization 

 Free energy of the ion-electron system (eV)
  ---------------------------------------------------
  alpha Z        PSCENC =       733.40508934
  Ewald energy   TEWEN  =    132055.42457301
  -Hartree energ DENC   =   -171137.71709362
  -exchange      EXHF   =         0.00000000
  -V(xc)+E(xc)   XCENC  =      -263.16211973
  PAW double counting   =     41066.18320550   -39514.79411543
  entropy T*S    EENTRO =         0.00000000
  eigenvalues    EBANDS =     -1930.64209173
  atomic energy  EATOM  =     38871.22656374
  Solvation  Ediel_sol  =         0.00000000
  ---------------------------------------------------
  free energy    TOTEN  =      -120.07598893 eV

  energy without entropy =     -120.07598893  energy(sigma->0) =     -120.07598893


--------------------------------------------------------------------------------------------------------




--------------------------------------- Iteration      1(   5)  ---------------------------------------


     EDDAV:  cpu time   33.9919: real time   33.9953
 BZINTS: Fermi energy:    0.295488;  414.000000 electrons
         Band energy:-0.193081E+04;  BLOECHL correction:   -0.025455
       DOS:  cpu time    0.0612: real time    0.0612
    --------------------------------------------
      LOOP:  cpu time   34.0532: real time   34.0565

 eigenvalue-minimisations  : 23128
 total energy-change (2. order) :-0.1646149E+00  (-0.1644153E+00)
 number of electron     414.0000098 magnetization 
 augmentation part      414.0000098 magnetization 

 Free energy of the ion-electron system (eV)
  ---------------------------------------------------
  alpha Z        PSCENC =       733.40508934
  Ewald energy   TEWEN  =    132055.42457301
  -Hartree energ DENC   =   -171137.71709362
  -exchange      EXHF   =         0.00000000
  -V(xc)+E(xc)   XCENC  =      -263.16211973
  PAW double counting   =     41066.18320550   -39514.79411543
  entropy T*S    EENTRO =         0.00000000
  eigenvalues    EBANDS =     -1930.80670658
  atomic energy  EATOM  =     38871.22656374
  Solvation  Ediel_sol  =         0.00000000
  ---------------------------------------------------
  free energy    TOTEN  =      -120.24060378 eV

  energy without entropy =     -120.24060378  energy(sigma->0) =     -120.24060378


--------------------------------------------------------------------------------------------------------




--------------------------------------- Iteration      1(   6)  ---------------------------------------


    EDDIAG:  cpu time    5.3770: real time    5.3775
  RMM-DIIS:  cpu time   23.4634: real time   23.4636
    ORTHCH:  cpu time    0.9555: real time    0.9556
 BZINTS: Fermi energy:    0.295445;  414.000000 electrons
         Band energy:-0.193081E+04;  BLOECHL correction:   -0.025455
       DOS:  cpu time    0.0600: real time    0.0600
    --------------------------------------------
      LOOP:  cpu time   29.8559: real time   29.8567

 eigenvalue-minimisations  : 25685
 total energy-change (2. order) :-0.2792989E-02  (-0.2790311E-02)
 number of electron     414.0000098 magnetization 
 augmentation part      414.0000098 magnetization 

 Free energy of the ion-electron system (eV)
  ---------------------------------------------------
  alpha Z        PSCENC =       733.40508934
  Ewald energy   TEWEN  =    132055.42457301
  -Hartree energ DENC   =   -171137.71709362
  -exchange      EXHF   =         0.00000000
  -V(xc)+E(xc)   XCENC  =      -263.16211973
  PAW double counting   =     41066.18320550   -39514.79411543
  entropy T*S    EENTRO =         0.00000000
  eigenvalues    EBANDS =     -1930.80949957
  atomic energy  EATOM  =     38871.22656374
  Solvation  Ediel_sol  =         0.00000000
  ---------------------------------------------------
  free energy    TOTEN  =      -120.24339677 eV

  energy without entropy =     -120.24339677  energy(sigma->0) =     -120.24339677


--------------------------------------------------------------------------------------------------------




--------------------------------------- Iteration      1(   7)  ---------------------------------------


    EDDIAG:  cpu time    5.3838: real time    5.3840
WARNING in EDDRMM: call to ZHEGV failed, returncode =   8  4      2
WARNING in EDDRMM: call to ZHEGV failed, returncode =   6  3      4
  RMM-DIIS:  cpu time   29.6709: real time   29.6712
    ORTHCH:  cpu time    0.9538: real time    0.9538
 BZINTS: Fermi energy:    0.295426;  414.000000 electrons
         Band energy:-0.193081E+04;  BLOECHL correction:   -0.025455
       DOS:  cpu time    0.0599: real time    0.0599
    --------------------------------------------
      LOOP:  cpu time   36.0684: real time   36.0690

 eigenvalue-minimisations  : 33278
 total energy-change (2. order) :-0.1177665E-02  (-0.1175291E-02)
 number of electron     414.0000098 magnetization 
 augmentation part      414.0000098 magnetization 

 Free energy of the ion-electron system (eV)
  ---------------------------------------------------
  alpha Z        PSCENC =       733.40508934
  Ewald energy   TEWEN  =    132055.42457301
  -Hartree energ DENC   =   -171137.71709362
  -exchange      EXHF   =         0.00000000
  -V(xc)+E(xc)   XCENC  =      -263.16211973
  PAW double counting   =     41066.18320550   -39514.79411543
  entropy T*S    EENTRO =         0.00000000
  eigenvalues    EBANDS =     -1930.81067724
  atomic energy  EATOM  =     38871.22656374
  Solvation  Ediel_sol  =         0.00000000
  ---------------------------------------------------
  free energy    TOTEN  =      -120.24457444 eV

  energy without entropy =     -120.24457444  energy(sigma->0) =     -120.24457444


--------------------------------------------------------------------------------------------------------




--------------------------------------- Iteration      1(   8)  ---------------------------------------


    EDDIAG:  cpu time    5.3884: real time    5.3886
  RMM-DIIS:  cpu time   27.4716: real time   27.4719
    ORTHCH:  cpu time    0.9555: real time    0.9555
 BZINTS: Fermi energy:    0.295422;  414.000000 electrons
         Band energy:-0.193081E+04;  BLOECHL correction:   -0.025455
       DOS:  cpu time    0.0611: real time    0.0611
    --------------------------------------------
      LOOP:  cpu time   33.8766: real time   33.8771

 eigenvalue-minimisations  : 30339
 total energy-change (2. order) :-0.2502165E-03  (-0.2486713E-03)
 number of electron     414.0000098 magnetization 
 augmentation part      414.0000098 magnetization 

 Free energy of the ion-electron system (eV)
  ---------------------------------------------------
  alpha Z        PSCENC =       733.40508934
  Ewald energy   TEWEN  =    132055.42457301
  -Hartree energ DENC   =   -171137.71709362
  -exchange      EXHF   =         0.00000000
  -V(xc)+E(xc)   XCENC  =      -263.16211973
  PAW double counting   =     41066.18320550   -39514.79411543
  entropy T*S    EENTRO =         0.00000000
  eigenvalues    EBANDS =     -1930.81092745
  atomic energy  EATOM  =     38871.22656374
  Solvation  Ediel_sol  =         0.00000000
  ---------------------------------------------------
  free energy    TOTEN  =      -120.24482465 eV

  energy without entropy =     -120.24482465  energy(sigma->0) =     -120.24482465


--------------------------------------------------------------------------------------------------------




--------------------------------------- Iteration      1(   9)  ---------------------------------------


    EDDIAG:  cpu time    5.3840: real time    5.3843
  RMM-DIIS:  cpu time   24.5085: real time   24.5088
    ORTHCH:  cpu time    0.9548: real time    0.9548
 BZINTS: Fermi energy:    0.295420;  414.000000 electrons
         Band energy:-0.193081E+04;  BLOECHL correction:   -0.025455
       DOS:  cpu time    0.0599: real time    0.0599
    --------------------------------------------
      LOOP:  cpu time   30.9072: real time   30.9078

 eigenvalue-minimisations  : 26373
 total energy-change (2. order) :-0.1139470E-03  (-0.1139820E-03)
 number of electron     414.0000098 magnetization 
 augmentation part      414.0000098 magnetization 

 Free energy of the ion-electron system (eV)
  ---------------------------------------------------
  alpha Z        PSCENC =       733.40508934
  Ewald energy   TEWEN  =    132055.42457301
  -Hartree energ DENC   =   -171137.71709362
  -exchange      EXHF   =         0.00000000
  -V(xc)+E(xc)   XCENC  =      -263.16211973
  PAW double counting   =     41066.18320550   -39514.79411543
  entropy T*S    EENTRO =         0.00000000
  eigenvalues    EBANDS =     -1930.81104140
  atomic energy  EATOM  =     38871.22656374
  Solvation  Ediel_sol  =         0.00000000
  ---------------------------------------------------
  free energy    TOTEN  =      -120.24493860 eV

  energy without entropy =     -120.24493860  energy(sigma->0) =     -120.24493860


--------------------------------------------------------------------------------------------------------




--------------------------------------- Iteration      1(  10)  ---------------------------------------


    EDDIAG:  cpu time    5.3804: real time    5.3806
  RMM-DIIS:  cpu time   22.7970: real time   22.7973
    ORTHCH:  cpu time    0.9547: real time    0.9547
 BZINTS: Fermi energy:    0.295419;  414.000000 electrons
         Band energy:-0.193081E+04;  BLOECHL correction:   -0.025455
       DOS:  cpu time    0.0574: real time    0.0574
    --------------------------------------------
      LOOP:  cpu time   29.1894: real time   29.1899

 eigenvalue-minimisations  : 24266
 total energy-change (2. order) :-0.5776499E-04  (-0.5769442E-04)
 number of electron     414.0000098 magnetization 
 augmentation part      414.0000098 magnetization 

 Free energy of the ion-electron system (eV)
  ---------------------------------------------------
  alpha Z        PSCENC =       733.40508934
  Ewald energy   TEWEN  =    132055.42457301
  -Hartree energ DENC   =   -171137.71709362
  -exchange      EXHF   =         0.00000000
  -V(xc)+E(xc)   XCENC  =      -263.16211973
  PAW double counting   =     41066.18320550   -39514.79411543
  entropy T*S    EENTRO =         0.00000000
  eigenvalues    EBANDS =     -1930.81109917
  atomic energy  EATOM  =     38871.22656374
  Solvation  Ediel_sol  =         0.00000000
  ---------------------------------------------------
  free energy    TOTEN  =      -120.24499636 eV

  energy without entropy =     -120.24499636  energy(sigma->0) =     -120.24499636


--------------------------------------------------------------------------------------------------------




--------------------------------------- Iteration      1(  11)  ---------------------------------------


    EDDIAG:  cpu time    5.3750: real time    5.3752
  RMM-DIIS:  cpu time   20.9227: real time   20.9229
    ORTHCH:  cpu time    0.9548: real time    0.9548
 BZINTS: Fermi energy:    0.295418;  414.000000 electrons
         Band energy:-0.193081E+04;  BLOECHL correction:   -0.025455
       DOS:  cpu time    0.0598: real time    0.0598
    --------------------------------------------
      LOOP:  cpu time   27.3123: real time   27.3127

 eigenvalue-minimisations  : 22049
 total energy-change (2. order) :-0.2766366E-04  (-0.2860674E-04)
 number of electron     414.0000098 magnetization 
 augmentation part      414.0000098 magnetization 

 Free energy of the ion-electron system (eV)
  ---------------------------------------------------
  alpha Z        PSCENC =       733.40508934
  Ewald energy   TEWEN  =    132055.42457301
  -Hartree energ DENC   =   -171137.71709362
  -exchange      EXHF   =         0.00000000
  -V(xc)+E(xc)   XCENC  =      -263.16211973
  PAW double counting   =     41066.18320550   -39514.79411543
  entropy T*S    EENTRO =         0.00000000
  eigenvalues    EBANDS =     -1930.81112683
  atomic energy  EATOM  =     38871.22656374
  Solvation  Ediel_sol  =         0.00000000
  ---------------------------------------------------
  free energy    TOTEN  =      -120.24502403 eV

  energy without entropy =     -120.24502403  energy(sigma->0) =     -120.24502403


--------------------------------------------------------------------------------------------------------




--------------------------------------- Iteration      1(  12)  ---------------------------------------


    EDDIAG:  cpu time    5.3818: real time    5.3819
  RMM-DIIS:  cpu time   18.8385: real time   18.8387
    ORTHCH:  cpu time    0.9574: real time    0.9574
 BZINTS: Fermi energy:    0.295418;  414.000000 electrons
         Band energy:-0.193081E+04;  BLOECHL correction:   -0.025455
       DOS:  cpu time    0.0586: real time    0.0586
    --------------------------------------------
      LOOP:  cpu time   25.2363: real time   25.2366

 eigenvalue-minimisations  : 19713
 total energy-change (2. order) :-0.1453186E-04  (-0.1506905E-04)
 number of electron     414.0000098 magnetization 
 augmentation part      414.0000098 magnetization 

 Free energy of the ion-electron system (eV)
[...]
  0.000   0.000   0.000   0.000   0.000   0.000   0.000   0.000   0.000   0.000   1.000   0.000   0.000   0.000   0.000   0.000
  0.000   0.000   0.000   0.000   0.000   0.000   0.000   0.000   0.000   0.000   0.000   0.000   0.000   0.000   0.000   0.000
  0.000   0.000   0.000   0.000   0.000   0.000   0.000   0.000   0.000   0.000   0.000   0.000   0.000   0.000   0.000   0.000
  0.000   0.000   0.000   0.000   0.000   0.000   0.000   0.000   0.000   0.000   0.000   0.000   0.000   0.000   0.000   0.000
  0.000   0.000   0.000   0.000   0.000   0.000   0.000   0.000   0.000   0.000   0.000   0.000   0.000   0.000   0.000   0.000
  0.000   0.000   0.000   0.000   0.000   0.000   0.000   0.000   0.000   0.000   0.000   0.000   0.000   0.000   0.000   0.000
  0.000   0.000   0.000   0.000   0.000   0.000   0.000   0.000   0.000   0.000   0.000   0.000   0.000   0.000   0.000   0.000
  0.000   0.000   0.000   0.000   0.000   0.000   0.000   0.000   0.000   0.000   0.000   0.000   0.000   0.000   0.000   0.000


------------------------ aborting loop because EDIFF is reached ----------------------------------------





 total charge

# of ion       s       p       d       tot
------------------------------------------
    1        0.420   0.200   9.179   9.799
    2        0.417   0.203   9.178   9.797
    3        0.416   0.204   9.176   9.796
    4        0.417   0.203   9.178   9.797
    5        0.418   0.202   9.177   9.797
    6        0.415   0.204   9.177   9.796
    7        0.416   0.204   9.177   9.796
    8        0.415   0.204   9.177   9.796
    9        0.413   0.204   9.178   9.794
   10        0.410   0.268   9.165   9.842
   11        0.406   0.269   9.167   9.842
   12        0.410   0.268   9.164   9.842
   13        0.406   0.269   9.167   9.842
   14        0.405   0.269   9.168   9.842
   15        0.400   0.270   9.164   9.834
   16        0.410   0.268   9.163   9.842
   17        0.401   0.270   9.164   9.834
   18        0.401   0.269   9.165   9.835
   19        0.400   0.265   9.166   9.831
   20        0.437   0.303   9.132   9.873
   21        0.446   0.297   9.135   9.878
   22        0.391   0.274   9.164   9.828
   23        0.446   0.297   9.135   9.878
   24        0.393   0.272   9.165   9.830
   25        0.406   0.261   9.169   9.836
   26        0.401   0.264   9.167   9.832
   27        0.392   0.273   9.164   9.829
   28        0.416   0.196   9.178   9.790
   29        0.421   0.224   9.167   9.812
   30        0.437   0.218   9.159   9.815
   31        0.410   0.230   9.171   9.811
   32        0.441   0.209   9.162   9.812
   33        0.437   0.216   9.162   9.816
   34        0.439   0.212   9.162   9.812
   35        0.406   0.204   9.176   9.786
   36        2.184   6.005   2.379  10.568
   37        0.874   1.638   0.000   2.513
   38        1.598   3.515   0.000   5.113
   39        1.594   3.451   0.000   5.046
--------------------------------------------------
tot         20.763  23.072 323.195 367.031
 
    CHARGE:  cpu time    1.2645: real time    1.2646
    FORLOC:  cpu time    0.0124: real time    0.0124
    FORNL :  cpu time    5.4640: real time    5.4643
    STRESS:  cpu time   16.4024: real time   16.4027
    FORCOR:  cpu time    0.0506: real time    0.0506
    FORHAR:  cpu time    0.0197: real time    0.0198
    OFIELD:  cpu time    0.0003: real time    0.0003

  FORCE on cell =-STRESS in cart. coord.  units (eV):
  Direction    XX          YY          ZZ          XY          YZ          ZX
  --------------------------------------------------------------------------------------
  Alpha Z   733.40509   733.40509   733.40509
  Ewald  155359.32839154944.58016************   223.07526   -77.15448  -190.01190
  Hartree165709.93677165480.52585************   123.35960   -40.91851   -98.67954
  E(xc)   -2162.65822 -2163.64073 -2168.11845     0.54423    -0.14577    -0.37585
  Local  ************************331488.86684  -338.37873   113.38690   277.41456
  n-local  -371.96287  -369.36727  -375.96431    -1.60289     0.06522     0.36075
  augment  3250.53561  3250.45899  3263.19844     0.12002     0.00127     0.00285
  Kinetic  5328.91056  5343.40953  5360.93018    -7.27732     4.58279    11.15199
  Fock        0.00000     0.00000     0.00000     0.00000     0.00000     0.00000
  -------------------------------------------------------------------------------------
  Total      -5.76497    -5.68131    -0.45187    -0.15983    -0.18258    -0.13714
  in kB      -5.66591    -5.58369    -0.44411    -0.15708    -0.17944    -0.13478
  external pressure =       -3.90 kB  Pullay stress =        0.00 kB


 VOLUME and BASIS-vectors are now :
 -----------------------------------------------------------------------------
  energy-cutoff  :      500.00
  volume of cell :     1630.19
      direct lattice vectors                 reciprocal lattice vectors
     8.791366577  0.000000000  0.000000000     0.113747958 -0.065672414  0.000000000
     4.395683289  7.613546790  0.000000000     0.000000000  0.131344829  0.000000000
     0.000000000  0.000000000 24.355372092     0.000000000  0.000000000  0.041058703

  length of vectors
     8.791366577  8.791366577 24.355372092     0.131344829  0.131344829  0.041058703


 FORCES acting on ions
    electron-ion (+dipol)            ewald-force                    non-local-force                 convergence-correction
 -----------------------------------------------------------------------------------------------
   0.194E+00 0.127E+00 0.274E+04   -.995E-01 -.584E-01 -.274E+04   -.243E-01 -.253E-01 -.198E+01   -.712E-01 -.452E-01 0.293E-01
   0.183E+00 0.119E+01 0.274E+04   -.388E+00 -.125E+01 -.274E+04   0.739E-01 0.113E+00 -.171E+01   0.132E+00 -.545E-01 -.119E-01
   -.390E+00 0.120E+01 0.274E+04   0.488E+00 -.116E+01 -.274E+04   -.411E-01 0.721E-01 -.154E+01   -.563E-01 -.979E-01 0.409E-01
   0.116E+01 -.355E+00 0.274E+04   -.128E+01 0.258E+00 -.274E+04   0.115E+00 -.147E-01 -.171E+01   0.562E-02 0.113E+00 -.964E-02
   -.177E+00 -.981E-01 0.274E+04   0.129E+00 0.442E-01 -.274E+04   0.251E-01 0.270E-01 -.147E+01   0.331E-01 0.269E-01 0.106E+00
   -.984E+00 -.299E+00 0.274E+04   0.115E+01 0.216E+00 -.274E+04   -.145E+00 -.429E-01 -.161E+01   -.298E-01 0.117E+00 0.317E-01
   0.767E+00 -.979E+00 0.274E+04   -.758E+00 0.103E+01 -.274E+04   0.730E-01 -.666E-01 -.160E+01   -.771E-01 0.891E-02 0.358E-01
   -.748E+00 -.709E+00 0.274E+04   0.787E+00 0.901E+00 -.274E+04   -.119E+00 -.104E+00 -.162E+01   0.740E-01 -.898E-01 0.219E-01
   0.136E-01 -.630E-01 0.274E+04   -.285E-01 0.144E-01 -.274E+04   0.202E-01 0.253E-01 -.188E+01   -.522E-02 0.235E-01 -.676E-01
   0.726E+01 0.437E+01 0.102E+04   -.695E+01 -.418E+01 -.102E+04   -.368E+00 -.225E+00 -.842E+00   0.393E-01 0.252E-01 0.339E+00
   -.851E+00 0.109E+02 0.103E+04   0.900E+00 -.111E+02 -.103E+04   -.571E-01 0.154E+00 -.410E+00   0.159E-01 0.266E-01 0.259E+00
   -.643E+01 0.402E+01 0.101E+04   0.605E+01 -.379E+01 -.101E+04   0.452E+00 -.257E+00 -.651E+00   -.476E-01 0.243E-01 0.244E+00
   0.883E+01 -.608E+01 0.103E+04   -.906E+01 0.619E+01 -.103E+04   0.140E+00 -.882E-01 -.465E+00   0.322E-01 0.157E-01 0.266E+00
   -.954E+01 -.545E+01 0.102E+04   0.980E+01 0.558E+01 -.102E+04   -.201E+00 -.109E+00 -.215E+00   -.119E-01 0.573E-02 0.235E+00
   0.731E+00 -.298E+01 0.101E+04   -.749E+00 0.291E+01 -.101E+04   0.121E-01 0.510E-01 -.693E+00   -.124E-02 0.101E-01 0.264E+00
   0.105E+00 -.774E+01 0.101E+04   -.120E+00 0.730E+01 -.101E+04   0.810E-02 0.521E+00 -.655E+00   0.102E-01 -.619E-01 0.249E+00
   -.232E+01 0.191E+01 0.101E+04   0.222E+01 -.190E+01 -.101E+04   0.775E-01 0.306E-02 -.672E+00   0.111E-01 -.166E-01 0.248E+00
   0.216E+01 0.102E+01 0.101E+04   -.210E+01 -.968E+00 -.101E+04   -.372E-01 -.373E-01 -.590E+00   -.164E-01 -.125E-01 0.228E+00
   0.679E+01 0.149E+01 -.753E+03   -.673E+01 -.156E+01 0.752E+03   -.291E-03 0.632E-01 0.981E+00   -.142E-01 0.179E-01 0.193E+00
   0.465E+02 0.288E+02 -.661E+03   -.457E+02 -.284E+02 0.662E+03   -.989E+00 -.542E+00 -.952E+00   0.991E-01 0.630E-01 0.301E+00
   -.533E+02 0.285E+02 -.676E+03   0.522E+02 -.280E+02 0.677E+03   0.127E+01 -.685E+00 -.940E+00   -.412E-01 0.217E-01 0.220E+00
   0.245E+02 -.184E+02 -.745E+03   -.248E+02 0.186E+02 0.745E+03   0.295E+00 -.221E+00 0.633E+00   0.374E-01 -.593E-01 0.114E+00
   -.346E+01 -.605E+02 -.674E+03   0.345E+01 0.592E+02 0.675E+03   0.198E-01 0.148E+01 -.947E+00   0.354E-02 -.500E-01 0.216E+00
   -.210E+02 -.127E+02 -.752E+03   0.212E+02 0.128E+02 0.751E+03   -.125E+00 -.851E-01 0.641E+00   -.618E-01 -.399E-01 0.145E+00
   -.221E+00 -.109E+01 -.759E+03   0.190E+00 0.107E+01 0.758E+03   -.142E-01 -.126E-01 0.955E+00   0.330E-01 0.205E-01 0.202E+00
   0.325E+01 0.481E+01 -.754E+03   -.326E+01 -.474E+01 0.753E+03   0.264E-01 -.231E-01 0.970E+00   -.465E-02 -.120E-01 0.185E+00
   -.303E+01 0.288E+02 -.748E+03   0.309E+01 -.291E+02 0.748E+03   -.396E-01 0.325E+00 0.640E+00   -.171E-01 0.569E-01 0.117E+00
   0.254E+02 0.157E+02 -.254E+04   -.253E+02 -.157E+02 0.254E+04   -.677E-01 0.282E-01 0.181E+01   -.511E-01 -.149E-01 0.186E-01
   0.542E+02 0.165E+03 -.248E+04   -.530E+02 -.165E+03 0.247E+04   -.127E+01 -.568E+00 0.234E+01   0.395E-01 0.124E+00 -.750E-02
   -.798E+02 0.109E+03 -.254E+04   0.790E+02 -.108E+03 0.254E+04   0.896E+00 -.113E+01 0.169E+01   -.240E-01 0.845E-01 0.505E-01
   0.180E+03 -.268E+02 -.245E+04   -.180E+03 0.276E+02 0.245E+04   -.922E+00 -.708E+00 0.279E+01   0.108E+00 -.176E-01 -.782E-02
   -.114E+03 0.189E+01 -.254E+04   0.113E+03 -.168E+01 0.254E+04   0.116E+01 -.254E+00 0.187E+01   -.131E+00 0.142E-01 -.718E-02
   0.546E+02 -.137E+03 -.253E+04   -.543E+02 0.136E+03 0.253E+04   -.483E+00 0.121E+01 0.177E+01   0.715E-01 -.580E-01 0.354E-01
   -.618E+02 -.105E+03 -.254E+04   0.616E+02 0.104E+03 0.254E+04   0.314E+00 0.112E+01 0.193E+01   -.609E-01 -.144E+00 -.154E-01
   0.581E+01 -.389E+01 -.256E+04   -.580E+01 0.391E+01 0.255E+04   -.287E-01 0.630E-03 0.189E+01   -.872E-02 -.158E-01 0.487E-01
   -.666E+02 -.185E+02 -.251E+04   0.659E+02 0.183E+02 0.252E+04   0.569E+00 0.175E+00 -.238E+01   0.132E-01 0.109E-01 0.456E-01
   0.371E+02 0.236E+02 -.103E+04   -.408E+02 -.257E+02 0.103E+04   0.367E+01 0.210E+01 0.752E+01   0.479E-01 0.211E-01 -.421E-01
   0.183E+03 0.796E+02 -.175E+04   -.217E+03 -.940E+02 0.179E+04   0.340E+02 0.143E+02 -.403E+02   0.385E-01 0.143E-01 -.590E-01
   -.221E+03 -.103E+03 -.179E+04   0.256E+03 0.120E+03 0.181E+04   -.357E+02 -.170E+02 -.198E+02   -.878E-02 -.709E-02 -.132E+00
 -----------------------------------------------------------------------------------------------
   -.270E+01 0.418E+00 0.529E+02   0.568E-13 0.000E+00 -.637E-11   0.259E+01 -.412E+00 -.572E+02   0.105E+00 0.488E-01 0.413E+01
 
 
 POSITION                                       TOTAL-FORCE (eV/Angst)
 -----------------------------------------------------------------------------------
      0.00000      0.00000      5.28219        -0.000834     -0.002792     -0.040197
      2.93046      0.00000      5.28219         0.000445     -0.000198      0.023638
      5.86091      0.00000      5.28219         0.000012      0.011893      0.035476
      1.46523      2.53785      5.28219         0.002465     -0.000377      0.023449
      4.39568      2.53785      5.28219         0.010381     -0.001283     -0.000857
      7.32614      2.53785      5.28219        -0.012787     -0.009980      0.030830
      2.93046      5.07570      5.28219         0.005054     -0.006234      0.033515
      5.86091      5.07570      5.28219        -0.006192     -0.003856      0.037831
      8.79137      5.07570      5.28219         0.000111     -0.001146      0.021948
      1.46523      0.84595      7.67490        -0.015626     -0.008551     -0.066934
      4.39568      0.84595      7.67490         0.008145     -0.064687     -0.061718
      7.32614      0.84595      7.67490         0.017714     -0.008531     -0.034522
      2.93046      3.38380      7.67490        -0.052922      0.040299     -0.065630
      5.86091      3.38380      7.67490         0.053427      0.027665     -0.039315
      8.79137      3.38380      7.67490        -0.006767     -0.012073      0.037084
      4.39568      5.92165      7.67490         0.003058      0.019657     -0.035852
      7.32614      5.92165      7.67490        -0.012423     -0.003739      0.042045
     10.25659      5.92165      7.67490         0.009356      0.000272      0.056077
      8.79137      1.69211     10.06133         0.051726      0.004898      0.086077
      2.92756      1.69022     10.03254        -0.148910     -0.077638     -0.150622
      5.86381      1.69022     10.03254         0.137775     -0.077755     -0.178321
     10.25459      4.23091     10.07004         0.049993     -0.032326      0.047914
      4.39568      4.23310     10.03254         0.018654      0.153842     -0.152756
      7.32815      4.23091     10.07004        -0.037283     -0.018504      0.032293
     11.72164      6.76749     10.06133        -0.012592     -0.005083      0.005152
      5.86110      6.76749     10.06133         0.019688      0.033988      0.068809
      8.79137      6.76528     10.07004         0.005002      0.055464      0.033651
      0.00000      0.00000     12.45237        -0.056733     -0.038270     -0.045111
      2.94700      0.02679     12.48745        -0.028178     -0.257445     -0.156695
      5.84437      0.02679     12.48745         0.122081     -0.193364     -0.208239
      1.49670      2.53878     12.48745        -0.292234      0.101085     -0.171066
      7.29466      2.53878     12.48745         0.289374     -0.031494     -0.196490
      2.94539      5.04797     12.48745        -0.121139      0.250098     -0.238439
      5.84598      5.04797     12.48745         0.122592      0.252887     -0.197322
      8.79137      5.07570     12.46721        -0.029298      0.001165     -0.015959
      4.39568      2.53785     12.28926        -0.093356     -0.099422      1.439861
      3.45758      2.15467     14.20603        -0.008849     -0.001972      0.021473
      2.69891      1.83878     15.10724        -0.002021     -0.004696     -0.027797
      4.67800      2.72231     14.28241         0.011090      0.008203      0.006717
 -----------------------------------------------------------------------------------
    total drift:                               -0.000908      0.054697     -0.116234


--------------------------------------------------------------------------------------------------------



  FREE ENERGIE OF THE ION-ELECTRON SYSTEM (eV)
  ---------------------------------------------------
  free  energy   TOTEN  =      -120.24504606 eV

  energy  without entropy=     -120.24504606  energy(sigma->0) =     -120.24504606
 


--------------------------------------------------------------------------------------------------------


    POTLOK:  cpu time    0.0482: real time    0.0482


--------------------------------------------------------------------------------------------------------


 stress matrix after NEB project (eV)
     -5.76497     -0.15983     -0.13714
     -0.15983     -5.68131     -0.18258
     -0.13714     -0.18258     -0.45187
  FORCES: max atom, RMS     0.028264    0.006360
  FORCE total and by dimension    0.039718    0.027797
  Stress total and by dimension    8.116139    5.764969
     LOOP+:  cpu time  418.3486: real time  418.3659
 -----------------------------------------------------------------------------
|                                                                             |
|           W    W    AA    RRRRR   N    N  II  N    N   GGGG   !!!           |
|           W    W   A  A   R    R  NN   N  II  NN   N  G    G  !!!           |
|           W    W  A    A  R    R  N N  N  II  N N  N  G       !!!           |
|           W WW W  AAAAAA  RRRRR   N  N N  II  N  N N  G  GGG   !            |
|           WW  WW  A    A  R   R   N   NN  II  N   NN  G    G                |
|           W    W  A    A  R    R  N    N  II  N    N   GGGG   !!!           |
|                                                                             |
|     Tetrahedron method does not include variations of the Fermi             |
|     occupations, so forces and stress will be inaccurate. We suggest        |
|     using a different smearing scheme ISMEAR = 1 or 2 for metals in         |
|     relaxations.                                                            |
|                                                                             |
 -----------------------------------------------------------------------------

    4ORBIT:  cpu time    0.0000: real time    0.0000



 total charge

# of ion       s       p       d       tot
------------------------------------------
    1        0.420   0.200   9.179   9.799
    2        0.417   0.203   9.178   9.797
    3        0.416   0.204   9.176   9.796
    4        0.417   0.203   9.178   9.797
    5        0.418   0.202   9.177   9.797
    6        0.415   0.204   9.177   9.796
    7        0.416   0.204   9.177   9.796
    8        0.415   0.204   9.177   9.796
    9        0.413   0.204   9.178   9.794
   10        0.410   0.268   9.165   9.842
   11        0.406   0.269   9.167   9.842
   12        0.410   0.268   9.164   9.842
   13        0.406   0.269   9.167   9.842
   14        0.405   0.269   9.168   9.842
   15        0.400   0.270   9.164   9.834
   16        0.410   0.268   9.163   9.842
   17        0.401   0.270   9.164   9.834
   18        0.401   0.269   9.165   9.835
   19        0.400   0.265   9.166   9.831
   20        0.437   0.303   9.132   9.873
   21        0.446   0.297   9.135   9.878
   22        0.391   0.274   9.164   9.828
   23        0.446   0.297   9.135   9.878
   24        0.393   0.272   9.165   9.830
   25        0.406   0.261   9.169   9.836
   26        0.401   0.264   9.167   9.832
   27        0.392   0.273   9.164   9.829
   28        0.416   0.196   9.178   9.790
   29        0.421   0.224   9.167   9.812
   30        0.437   0.218   9.159   9.815
   31        0.410   0.230   9.171   9.811
   32        0.441   0.209   9.162   9.812
   33        0.437   0.216   9.162   9.816
   34        0.439   0.212   9.162   9.812
   35        0.406   0.204   9.176   9.786
   36        2.184   6.005   2.379  10.568
   37        0.874   1.638   0.000   2.513
   38        1.598   3.515   0.000   5.113
   39        1.594   3.451   0.000   5.046
--------------------------------------------------
tot         20.763  23.072 323.195 367.031
 
 BZINTS: Fermi energy:    0.295418;  414.000000 electrons
         Band energy:-0.193081E+04;  BLOECHL correction:   -0.025455

 total amount of memory used by VASP MPI-rank0   278192. kBytes
=======================================================================

   base      :      30000. kBytes
   nonlr-proj:      15875. kBytes
   fftplans  :       4808. kBytes
   grid      :      20723. kBytes
   one-center:        606. kBytes
   wavefun   :     206180. kBytes
 
  
  
 General timing and accounting informations for this job:
 ========================================================
  
                  Total CPU time used (sec):      441.478
                            User time (sec):      430.082
                          System time (sec):       11.397
                         Elapsed time (sec):      441.924
  
                   Maximum memory used (kb):      574952.
                   Average memory used (kb):          N/A
  
                          Minor page faults:       135456
                          Major page faults:            0
                 Voluntary context switches:         8140
