PROCAR new format
# of k-points:   10         # of bands:  252         # of ions:   37

 k-point     1 :    0.00000000 0.00000000 0.00000000     weight = 0.01562500

band     1 # energy  -48.29319416 # occ.  2.00000000
 
ion      s      p      d    tot
    1  0.000  0.000  0.000  0.000
    2  0.000  0.000  0.000  0.000
    3  0.000  0.000  0.000  0.000
    4  0.000  0.000  0.000  0.000
    5  0.000  0.000  0.000  0.000
    6  0.000  0.000  0.000  0.000
    7  0.000  0.000  0.000  0.000
    8  0.000  0.000  0.000  0.000
    9  0.000  0.000  0.000  0.000
   10  0.000  0.000  0.000  0.000
   11  0.000  0.000  0.000  0.000
   12  0.000  0.000  0.000  0.000
   13  0.000  0.000  0.000  0.000
   14  0.000  0.000  0.000  0.000
   15  0.000  0.000  0.000  0.000
   16  0.000  0.000  0.000  0.000
   17  0.000  0.000  0.000  0.000
   18  0.000  0.000  0.000  0.000
   19  0.000  0.000  0.000  0.000
   20  0.000  0.000  0.000  0.000
   21  0.000  0.000  0.000  0.000
   22  0.000  0.000  0.000  0.000
   23  0.000  0.000  0.000  0.000
   24  0.000  0.000  0.000  0.000
   25  0.000  0.000  0.000  0.000
   26  0.000  0.000  0.000  0.000
   27  0.000  0.000  0.000  0.000
   28  0.000  0.000  0.000  0.000
   29  0.000  0.000  0.000  0.000
   30  0.000  0.000  0.000  0.000
   31  0.000  0.000  0.000  0.000
   32  0.000  0.000  0.000  0.000
   33  0.000  0.000  0.000  0.000
   34  0.000  0.000  0.000  0.000
   35  0.000  0.000  0.000  0.000
   36  0.991  0.000  0.000  0.991
   37  0.002  0.001  0.000  0.003
tot    0.993  0.002  0.000  0.995
 
band     2 # energy  -26.92912322 # occ.  2.00000000
 
ion      s      p      d    tot
    1  0.000  0.000  0.000  0.000
    2  0.000  0.000  0.000  0.000
    3  0.000  0.000  0.000  0.000
    4  0.000  0.000  0.000  0.000
    5  0.000  0.000  0.000  0.000
    6  0.000  0.000  0.000  0.000
    7  0.000  0.000  0.000  0.000
    8  0.000  0.000  0.000  0.000
    9  0.000  0.000  0.000  0.000
   10  0.000  0.000  0.000  0.000
   11  0.000  0.000  0.000  0.000
   12  0.000  0.000  0.000  0.000
   13  0.000  0.000  0.000  0.000
   14  0.000  0.000  0.000  0.000
   15  0.000  0.000  0.000  0.000
   16  0.000  0.000  0.000  0.000
   17  0.000  0.000  0.000  0.000
   18  0.000  0.000  0.000  0.000
   19  0.000  0.000  0.000  0.000
   20  0.000  0.000  0.000  0.000
   21  0.000  0.000  0.000  0.000
   22  0.000  0.000  0.000  0.000
   23  0.000  0.000  0.000  0.000
   24  0.000  0.000  0.000  0.000
   25  0.000  0.000  0.000  0.000
   26  0.000  0.000  0.000  0.000
   27  0.000  0.000  0.000  0.000
   28  0.000  0.000  0.000  0.000
   29  0.000  0.000  0.000  0.000
   30  0.000  0.000  0.000  0.000
   31  0.000  0.000  0.000  0.000
   32  0.000  0.000  0.000  0.000
   33  0.000  0.000  0.000  0.000
   34  0.000  0.000  0.000  0.000
   35  0.000  0.000  0.000  0.000
   36  0.000  0.903  0.003  0.906
   37  0.053  0.018  0.000  0.071
tot    0.054  0.922  0.003  0.979
 
band     3 # energy  -26.51612774 # occ.  2.00000000
 
ion      s      p      d    tot
    1  0.000  0.000  0.000  0.000
    2  0.000  0.000  0.000  0.000
    3  0.000  0.000  0.000  0.000
    4  0.000  0.000  0.000  0.000
    5  0.000  0.000  0.000  0.000
    6  0.000  0.000  0.000  0.000
    7  0.000  0.000  0.000  0.000
    8  0.000  0.000  0.000  0.000
    9  0.000  0.000  0.000  0.000
   10  0.000  0.000  0.000  0.000
   11  0.000  0.000  0.000  0.000
   12  0.000  0.000  0.000  0.000
   13  0.000  0.000  0.000  0.000
   14  0.000  0.000  0.000  0.000
   15  0.000  0.000  0.000  0.000
   16  0.000  0.000  0.000  0.000
   17  0.000  0.000  0.000  0.000
   18  0.000  0.000  0.000  0.000
   19  0.000  0.000  0.000  0.000
   20  0.000  0.000  0.000  0.000
   21  0.000  0.000  0.000  0.000
   22  0.000  0.000  0.000  0.000
   23  0.000  0.000  0.000  0.000
   24  0.000  0.000  0.000  0.000
   25  0.000  0.000  0.000  0.000
   26  0.000  0.000  0.000  0.000
   27  0.000  0.000  0.000  0.000
   28  0.000  0.000  0.000  0.000
   29  0.000  0.000  0.000  0.000
   30  0.000  0.001  0.000  0.001
   31  0.000  0.000  0.000  0.000
   32  0.000  0.000  0.000  0.000
   33  0.000  0.001  0.000  0.001
   34  0.000  0.000  0.000  0.000
   35  0.000  0.000  0.000  0.000
   36  0.000  0.967  0.000  0.967
   37  0.000  0.001  0.000  0.001
tot    0.001  0.969  0.001  0.972
 
band     4 # energy  -26.51611862 # occ.  2.00000000
 
ion      s      p      d    tot
    1  0.000  0.000  0.000  0.000
    2  0.000  0.000  0.000  0.000
    3  0.000  0.000  0.000  0.000
    4  0.000  0.000  0.000  0.000
    5  0.000  0.000  0.000  0.000
    6  0.000  0.000  0.000  0.000
    7  0.000  0.000  0.000  0.000
    8  0.000  0.000  0.000  0.000
    9  0.000  0.000  0.000  0.000
   10  0.000  0.000  0.000  0.000
   11  0.000  0.000  0.000  0.000
   12  0.000  0.000  0.000  0.000
   13  0.000  0.000  0.000  0.000
   14  0.000  0.000  0.000  0.000
   15  0.000  0.000  0.000  0.000
   16  0.000  0.000  0.000  0.000
   17  0.000  0.000  0.000  0.000
   18  0.000  0.000  0.000  0.000
   19  0.000  0.000  0.000  0.000
   20  0.000  0.000  0.000  0.000
   21  0.000  0.000  0.000  0.000
   22  0.000  0.000  0.000  0.000
   23  0.000  0.000  0.000  0.000
   24  0.000  0.000  0.000  0.000
   25  0.000  0.000  0.000  0.000
   26  0.000  0.000  0.000  0.000
   27  0.000  0.000  0.000  0.000
   28  0.000  0.000  0.000  0.000
   29  0.000  0.000  0.000  0.001
   30  0.000  0.000  0.000  0.000
   31  0.000  0.000  0.000  0.001
   32  0.000  0.000  0.000  0.001
   33  0.000  0.000  0.000  0.000
   34  0.000  0.000  0.000  0.001
   35  0.000  0.000  0.000  0.000
   36  0.000  0.967  0.000  0.967
   37  0.000  0.001  0.000  0.001
tot    0.001  0.969  0.001  0.972
 
band     5 # energy  -15.83089203 # occ.  2.00000000
 
ion      s      p      d    tot
    1  0.000  0.000  0.000  0.000
    2  0.000  0.000  0.000  0.000
    3  0.000  0.000  0.000  0.000
    4  0.000  0.000  0.000  0.000
    5  0.000  0.000  0.000  0.000
    6  0.000  0.000  0.000  0.000
    7  0.000  0.000  0.000  0.000
    8  0.000  0.000  0.000  0.000
    9  0.000  0.000  0.000  0.000
   10  0.000  0.000  0.000  0.000
   11  0.000  0.000  0.000  0.000
   12  0.000  0.000  0.000  0.000
   13  0.000  0.000  0.000  0.000
   14  0.000  0.000  0.000  0.000
   15  0.000  0.000  0.000  0.000
   16  0.000  0.000  0.000  0.000
   17  0.000  0.000  0.000  0.000
   18  0.000  0.000  0.000  0.000
   19  0.000  0.000  0.000  0.000
   20  0.000  0.000  0.000  0.000
   21  0.000  0.000  0.000  0.000
   22  0.000  0.000  0.000  0.000
   23  0.000  0.000  0.000  0.000
   24  0.000  0.000  0.000  0.000
   25  0.000  0.000  0.000  0.000
   26  0.000  0.000  0.000  0.000
   27  0.000  0.000  0.000  0.000
   28  0.000  0.000  0.000  0.000
   29  0.000  0.000  0.000  0.000
   30  0.000  0.000  0.000  0.000
   31  0.000  0.000  0.000  0.000
   32  0.000  0.000  0.000  0.000
   33  0.000  0.000  0.000  0.000
   34  0.000  0.000  0.000  0.000
   35  0.000  0.000  0.000  0.000
   36  0.016  0.072  0.053  0.141
   37  0.734  0.002  0.000  0.736
tot    0.750  0.074  0.053  0.878
 
band     6 # energy   -8.86739351 # occ.  2.00000000
 
ion      s      p      d    tot
    1  0.007  0.001  0.000  0.007
    2  0.007  0.001  0.000  0.007
    3  0.007  0.001  0.000  0.007
    4  0.007  0.001  0.000  0.007
    5  0.007  0.001  0.000  0.007
    6  0.007  0.001  0.000  0.007
    7  0.007  0.001  0.000  0.007
    8  0.007  0.001  0.000  0.007
    9  0.007  0.001  0.000  0.007
   10  0.025  0.000  0.000  0.025
   11  0.024  0.000  0.000  0.024
   12  0.025  0.000  0.000  0.025
   13  0.024  0.000  0.000  0.024
   14  0.024  0.000  0.000  0.024
   15  0.025  0.000  0.000  0.025
   16  0.025  0.000  0.000  0.025
   17  0.025  0.000  0.000  0.025
   18  0.025  0.000  0.000  0.025
   19  0.026  0.000  0.000  0.026
   20  0.023  0.000  0.000  0.023
   21  0.023  0.000  0.000  0.023
   22  0.025  0.000  0.000  0.025
   23  0.023  0.000  0.000  0.023
   24  0.025  0.000  0.000  0.025
   25  0.026  0.000  0.000  0.026
   26  0.026  0.000  0.000  0.026
   27  0.025  0.000  0.000  0.025
   28  0.007  0.001  0.000  0.008
   29  0.007  0.001  0.000  0.008
   30  0.007  0.001  0.000  0.008
   31  0.007  0.001  0.000  0.008
   32  0.007  0.001  0.000  0.008
   33  0.007  0.001  0.000  0.008
   34  0.007  0.001  0.000  0.008
   35  0.007  0.001  0.000  0.008
   36  0.002  0.001  0.000  0.003
   37  0.000  0.000  0.000  0.000
tot    0.561  0.017  0.001  0.579
 
band     7 # energy   -7.57572356 # occ.  2.00000000
 
ion      s      p      d    tot
    1  0.018  0.001  0.000  0.019
    2  0.018  0.001  0.000  0.019
    3  0.018  0.001  0.000  0.019
    4  0.018  0.001  0.000  0.019
    5  0.018  0.001  0.000  0.019
    6  0.018  0.001  0.000  0.019
    7  0.018  0.001  0.000  0.019
    8  0.018  0.001  0.000  0.019
    9  0.018  0.001  0.000  0.019
   10  0.010  0.002  0.001  0.013
   11  0.011  0.002  0.000  0.013
   12  0.010  0.002  0.001  0.013
   13  0.011  0.002  0.000  0.013
   14  0.011  0.002  0.000  0.013
   15  0.010  0.002  0.001  0.012
   16  0.010  0.002  0.001  0.013
   17  0.010  0.002  0.001  0.012
   18  0.010  0.002  0.001  0.012
   19  0.011  0.003  0.000  0.014
   20  0.008  0.002  0.001  0.011
   21  0.008  0.002  0.001  0.011
   22  0.011  0.002  0.000  0.013
   23  0.008  0.002  0.001  0.011
   24  0.011  0.002  0.000  0.013
   25  0.011  0.003  0.000  0.014
   26  0.011  0.003  0.000  0.014
   27  0.011  0.002  0.000  0.013
   28  0.021  0.001  0.001  0.023
   29  0.019  0.001  0.001  0.021
   30  0.019  0.001  0.001  0.021
   31  0.019  0.001  0.001  0.021
   32  0.019  0.001  0.001  0.021
   33  0.019  0.001  0.001  0.021
   34  0.019  0.001  0.001  0.021
   35  0.021  0.001  0.001  0.023
   36  0.006  0.001  0.001  0.007
   37  0.000  0.000  0.000  0.000
tot    0.503  0.054  0.020  0.578
 
band     8 # energy   -5.99419268 # occ.  2.00000000
 
ion      s      p      d    tot
    1  0.016  0.000  0.005  0.022
    2  0.015  0.000  0.005  0.020
    3  0.015  0.000  0.005  0.020
    4  0.015  0.000  0.005  0.020
    5  0.007  0.000  0.006  0.014
    6  0.015  0.000  0.005  0.020
    7  0.015  0.000  0.005  0.020
    8  0.015  0.000  0.005  0.020
    9  0.022  0.000  0.004  0.026
   10  0.002  0.003  0.002  0.008
   11  0.010  0.005  0.001  0.016
   12  0.002  0.003  0.002  0.008
   13  0.010  0.005  0.001  0.016
   14  0.010  0.005  0.001  0.016
   15  0.000  0.003  0.003  0.006
   16  0.002  0.003  0.002  0.008
   17  0.000  0.003  0.003  0.006
   18  0.000  0.003  0.003  0.006
   19  0.001  0.003  0.006  0.010
   20  0.018  0.004  0.002  0.024
   21  0.018  0.004  0.002  0.024
   22  0.001  0.004  0.004  0.009
   23  0.018  0.004  0.002  0.024
   24  0.001  0.004  0.004  0.009
   25  0.001  0.003  0.006  0.010
   26  0.001  0.003  0.006  0.010
   27  0.001  0.004  0.004  0.009
   28  0.023  0.000  0.006  0.029
   29  0.017  0.001  0.009  0.026
   30  0.017  0.001  0.009  0.026
   31  0.017  0.001  0.009  0.026
   32  0.017  0.001  0.009  0.026
   33  0.017  0.001  0.009  0.026
   34  0.017  0.001  0.009  0.026
   35  0.027  0.000  0.007  0.034
   36  0.002  0.000  0.008  0.011
   37  0.000  0.001  0.000  0.001
tot    0.384  0.068  0.174  0.627
 
band     9 # energy   -5.91825964 # occ.  2.00000000
 
ion      s      p      d    tot
    1  0.000  0.002  0.003  0.005
    2  0.004  0.001  0.002  0.007
    3  0.008  0.002  0.002  0.012
    4  0.003  0.001  0.002  0.007
    5  0.000  0.000  0.002  0.002
    6  0.001  0.001  0.002  0.003
    7  0.008  0.002  0.002  0.012
    8  0.001  0.001  0.002  0.003
    9  0.000  0.002  0.004  0.006
   10  0.030  0.001  0.006  0.037
   11  0.001  0.005  0.006  0.011
   12  0.008  0.009  0.005  0.021
   13  0.001  0.005  0.006  0.011
   14  0.003  0.002  0.003  0.008
   15  0.012  0.002  0.012  0.025
   16  0.007  0.009  0.005  0.020
   17  0.013  0.002  0.011  0.026
   18  0.050  0.004  0.003  0.057
   19  0.016  0.003  0.013  0.032
   20  0.011  0.003  0.003  0.017
   21  0.003  0.004  0.009  0.016
   22  0.006  0.010  0.003  0.019
   23  0.002  0.004  0.009  0.016
   24  0.023  0.000  0.007  0.030
   25  0.067  0.004  0.004  0.075
   26  0.018  0.003  0.013  0.034
   27  0.005  0.011  0.002  0.019
   28  0.000  0.004  0.007  0.011
   29  0.004  0.002  0.003  0.010
   30  0.016  0.003  0.005  0.024
   31  0.004  0.002  0.003  0.009
   32  0.004  0.002  0.004  0.009
   33  0.016  0.003  0.005  0.024
   34  0.004  0.002  0.004  0.010
   35  0.000  0.003  0.004  0.007
   36  0.000  0.000  0.003  0.004
   37  0.000  0.000  0.000  0.000
tot    0.348  0.114  0.177  0.640
 
band    10 # energy   -5.91819265 # occ.  2.00000000
 
ion      s      p      d    tot
    1  0.000  0.002  0.003  0.005
    2  0.005  0.001  0.002  0.008
    3  0.000  0.001  0.002  0.003
    4  0.005  0.001  0.002  0.008
    5  0.000  0.000  0.002  0.002
    6  0.007  0.002  0.002  0.012
    7  0.000  0.001  0.002  0.003
    8  0.007  0.002  0.002  0.011
    9  0.000  0.002  0.004  0.006
   10  0.000  0.011  0.004  0.015
   11  0.002  0.003  0.004  0.009
   12  0.022  0.004  0.006  0.031
   13  0.002  0.003  0.004  0.009
   14  0.000  0.006  0.006  0.012
   15  0.039  0.004  0.005  0.048
   16  0.023  0.003  0.006  0.032
   17  0.037  0.003  0.006  0.046
   18  0.000  0.001  0.014  0.015
   19  0.051  0.004  0.007  0.062
   20  0.000  0.004  0.011  0.016
   21  0.008  0.004  0.005  0.016
   22  0.017  0.004  0.005  0.026
   23  0.008  0.004  0.005  0.016
   24  0.000  0.014  0.001  0.015
   25  0.000  0.003  0.016  0.018
   26  0.049  0.004  0.007  0.060
   27  0.018  0.003  0.006  0.027
   28  0.000  0.004  0.007  0.011
   29  0.012  0.003  0.004  0.019
   30  0.000  0.001  0.003  0.004
   31  0.013  0.003  0.004  0.020
   32  0.013  0.003  0.004  0.019
   33  0.000  0.001  0.003  0.004
   34  0.012  0.003  0.004  0.019
   35  0.000  0.003  0.004  0.007
   36  0.000  0.000  0.003  0.003
   37  0.000  0.000  0.000  0.000
tot    0.348  0.114  0.177  0.640
 
band    11 # energy   -5.89905011 # occ.  2.00000000
 
ion      s      p      d    tot
    1  0.018  0.003  0.001  0.022
    2  0.000  0.002  0.004  0.005
    3  0.000  0.002  0.004  0.005
    4  0.000  0.002  0.004  0.005
    5  0.002  0.000  0.000  0.002
    6  0.000  0.002  0.004  0.005
    7  0.000  0.002  0.004  0.005
    8  0.000  0.002  0.004  0.005
    9  0.008  0.001  0.000  0.010
   10  0.029  0.006  0.005  0.040
   11  0.005  0.000  0.011  0.016
   12  0.030  0.006  0.005  0.041
   13  0.005  0.000  0.011  0.016
   14  0.005  0.000  0.011  0.016
   15  0.010  0.007  0.004  0.021
   16  0.030  0.006  0.005  0.041
   17  0.010  0.007  0.004  0.021
   18  0.010  0.008  0.004  0.021
   19  0.024  0.010  0.002  0.036
   20  0.000  0.002  0.010  0.013
   21  0.000  0.003  0.010  0.013
   22  0.025  0.002  0.009  0.036
   23  0.000  0.003  0.010  0.013
   24  0.025  0.002  0.009  0.036
   25  0.025  0.010  0.002  0.037
   26  0.024  0.010  0.002  0.036
   27  0.025  0.002  0.009  0.036
   28  0.019  0.003  0.001  0.023
   29  0.000  0.002  0.005  0.008
   30  0.000  0.002  0.005  0.008
   31  0.000  0.002  0.005  0.008
   32  0.000  0.002  0.005  0.008
   33  0.000  0.002  0.005  0.008
   34  0.000  0.002  0.005  0.008
   35  0.016  0.002  0.001  0.019
   36  0.000  0.000  0.000  0.000
   37  0.000  0.000  0.000  0.000
tot    0.345  0.115  0.181  0.641
 
band    12 # energy   -5.86694609 # occ.  2.00000000
 
ion      s      p      d    tot
    1  0.000  0.001  0.004  0.005
    2  0.004  0.002  0.002  0.008
    3  0.010  0.002  0.002  0.014
    4  0.004  0.001  0.002  0.007
    5  0.000  0.003  0.005  0.009
    6  0.001  0.001  0.002  0.004
    7  0.009  0.002  0.002  0.014
    8  0.001  0.001  0.002  0.004
    9  0.000  0.001  0.002  0.003
   10  0.000  0.001  0.015  0.016
   11  0.045  0.004  0.006  0.054
   12  0.020  0.003  0.006  0.029
   13  0.041  0.004  0.007  0.051
   14  0.000  0.007  0.010  0.017
   15  0.004  0.003  0.005  0.012
   16  0.022  0.004  0.005  0.031
   17  0.004  0.004  0.005  0.012
   18  0.000  0.012  0.002  0.014
   19  0.001  0.003  0.005  0.009
   20  0.000  0.010  0.008  0.018
   21  0.038  0.004  0.007  0.049
   22  0.031  0.004  0.006  0.041
   23  0.041  0.004  0.007  0.052
   24  0.000  0.000  0.017  0.018
   25  0.000  0.011  0.003  0.015
   26  0.001  0.004  0.005  0.009
   27  0.033  0.004  0.005  0.043
   28  0.000  0.001  0.003  0.003
   29  0.003  0.001  0.003  0.007
   30  0.011  0.003  0.004  0.017
   31  0.003  0.001  0.003  0.007
   32  0.002  0.001  0.003  0.006
   33  0.011  0.003  0.004  0.017
   34  0.003  0.001  0.003  0.007
   35  0.000  0.001  0.005  0.007
   36  0.000  0.001  0.004  0.006
   37  0.000  0.000  0.000  0.000
tot    0.342  0.114  0.180  0.636
 
band    13 # energy   -5.86688704 # occ.  2.00000000
 
ion      s      p      d    tot
    1  0.000  0.001  0.004  0.005
    2  0.005  0.002  0.002  0.009
    3  0.000  0.001  0.002  0.003
    4  0.006  0.002  0.002  0.010
    5  0.000  0.003  0.005  0.009
    6  0.009  0.002  0.002  0.014
    7  0.000  0.001  0.002  0.003
    8  0.008  0.002  0.002  0.013
    9  0.000  0.001  0.002  0.003
   10  0.028  0.004  0.002  0.035
   11  0.013  0.006  0.009  0.027
   12  0.008  0.002  0.011  0.021
   13  0.016  0.005  0.009  0.030
   14  0.057  0.003  0.005  0.065
   15  0.001  0.010  0.003  0.014
   16  0.006  0.002  0.012  0.020
   17  0.001  0.009  0.003  0.014
   18  0.005  0.000  0.006  0.011
   19  0.000  0.009  0.004  0.013
   20  0.053  0.002  0.006  0.061
   21  0.015  0.008  0.007  0.030
   22  0.012  0.001  0.013  0.027
   23  0.012  0.008  0.008  0.027
   24  0.043  0.005  0.002  0.050
   25  0.001  0.001  0.005  0.007
   26  0.000  0.009  0.004  0.013
   27  0.009  0.001  0.014  0.025
   28  0.000  0.001  0.003  0.003
   29  0.007  0.002  0.004  0.013
   30  0.000  0.001  0.003  0.004
   31  0.008  0.002  0.004  0.014
   32  0.009  0.002  0.003  0.014
   33  0.000  0.001  0.003  0.004
   34  0.008  0.002  0.003  0.013
   35  0.000  0.001  0.005  0.007
   36  0.000  0.001  0.004  0.006
   37  0.000  0.000  0.000  0.000
tot    0.342  0.114  0.180  0.636
 
band    14 # energy   -5.77844109 # occ.  2.00000000
 
ion      s      p      d    tot
    1  0.000  0.000  0.001  0.001
    2  0.002  0.002  0.006  0.010
    3  0.002  0.002  0.006  0.010
    4  0.002  0.002  0.006  0.010
    5  0.037  0.003  0.000  0.041
    6  0.002  0.002  0.006  0.010
    7  0.002  0.002  0.006  0.010
    8  0.002  0.002  0.006  0.010
    9  0.005  0.002  0.004  0.011
   10  0.002  0.004  0.009  0.015
   11  0.020  0.009  0.004  0.033
   12  0.002  0.004  0.009  0.015
   13  0.020  0.009  0.004  0.033
   14  0.020  0.009  0.004  0.033
   15  0.029  0.002  0.011  0.042
   16  0.002  0.004  0.009  0.015
   17  0.029  0.002  0.011  0.042
   18  0.029  0.002  0.011  0.042
   19  0.007  0.001  0.010  0.018
   20  0.020  0.004  0.006  0.031
   21  0.020  0.004  0.006  0.031
   22  0.009  0.007  0.005  0.020
   23  0.020  0.004  0.006  0.031
   24  0.009  0.007  0.005  0.020
   25  0.007  0.001  0.010  0.018
   26  0.007  0.001  0.010  0.018
   27  0.009  0.007  0.005  0.020
   28  0.001  0.000  0.003  0.004
   29  0.002  0.001  0.003  0.006
   30  0.002  0.001  0.003  0.006
   31  0.002  0.001  0.003  0.006
   32  0.002  0.001  0.003  0.006
   33  0.002  0.001  0.003  0.006
   34  0.002  0.001  0.003  0.006
   35  0.000  0.001  0.002  0.003
   36  0.006  0.001  0.000  0.007
   37  0.000  0.001  0.000  0.002
tot    0.335  0.108  0.198  0.641
 
band    15 # energy   -5.18565040 # occ.  2.00000000
 
ion      s      p      d    tot
    1  0.000  0.004  0.010  0.014
    2  0.005  0.002  0.005  0.012
    3  0.021  0.004  0.005  0.030
    4  0.004  0.002  0.005  0.012
    5  0.000  0.000  0.010  0.010
    6  0.006  0.002  0.005  0.013
    7  0.021  0.004  0.005  0.030
    8  0.006  0.002  0.005  0.013
    9  0.000  0.005  0.009  0.013
   10  0.013  0.001  0.006  0.021
   11  0.001  0.003  0.012  0.016
   12  0.003  0.004  0.014  0.022
   13  0.001  0.003  0.012  0.016
   14  0.003  0.001  0.007  0.011
   15  0.007  0.001  0.018  0.026
   16  0.003  0.004  0.014  0.022
   17  0.007  0.001  0.017  0.026
   18  0.029  0.005  0.005  0.038
   19  0.003  0.002  0.013  0.017
   20  0.001  0.001  0.010  0.011
   21  0.000  0.001  0.012  0.014
   22  0.002  0.002  0.024  0.028
   23  0.000  0.001  0.012  0.014
   24  0.006  0.003  0.003  0.012
   25  0.011  0.007  0.010  0.028
   26  0.003  0.002  0.013  0.017
   27  0.002  0.002  0.025  0.028
   28  0.000  0.005  0.008  0.013
   29  0.007  0.002  0.008  0.017
   30  0.027  0.003  0.010  0.041
   31  0.007  0.002  0.008  0.017
   32  0.007  0.002  0.008  0.017
   33  0.027  0.003  0.010  0.041
   34  0.007  0.002  0.008  0.017
   35  0.000  0.005  0.011  0.016
   36  0.000  0.000  0.010  0.010
   37  0.000  0.000  0.000  0.000
tot    0.238  0.094  0.368  0.700
 
band    16 # energy   -5.18560007 # occ.  2.00000000
 
ion      s      p      d    tot
    1  0.000  0.004  0.010  0.014
    2  0.016  0.003  0.005  0.024
    3  0.000  0.002  0.005  0.006
    4  0.016  0.003  0.005  0.024
    5  0.000  0.000  0.010  0.010
    6  0.015  0.003  0.005  0.023
    7  0.000  0.002  0.005  0.006
    8  0.015  0.003  0.005  0.023
    9  0.000  0.005  0.009  0.013
   10  0.000  0.005  0.017  0.022
   11  0.002  0.002  0.009  0.013
   12  0.010  0.002  0.009  0.021
   13  0.002  0.002  0.009  0.013
   14  0.000  0.003  0.014  0.017
   15  0.022  0.004  0.009  0.034
   16  0.010  0.002  0.009  0.021
   17  0.022  0.004  0.009  0.034
   18  0.000  0.000  0.022  0.022
   19  0.008  0.005  0.011  0.024
   20  0.000  0.002  0.013  0.015
   21  0.001  0.001  0.010  0.012
   22  0.005  0.002  0.010  0.017
   23  0.001  0.001  0.010  0.012
   24  0.000  0.002  0.032  0.033
   25  0.000  0.000  0.014  0.014
   26  0.008  0.005  0.011  0.024
   27  0.005  0.002  0.010  0.017
   28  0.000  0.005  0.008  0.013
   29  0.020  0.003  0.010  0.033
   30  0.000  0.002  0.007  0.009
   31  0.020  0.003  0.010  0.033
   32  0.020  0.003  0.010  0.033
   33  0.000  0.002  0.007  0.009
   34  0.020  0.003  0.010  0.033
   35  0.000  0.005  0.011  0.016
   36  0.000  0.000  0.010  0.010
   37  0.000  0.000  0.000  0.000
tot    0.238  0.094  0.368  0.700
 
band    17 # energy   -5.15492955 # occ.  2.00000000
 
ion      s      p      d    tot
    1  0.004  0.001  0.010  0.014
    2  0.005  0.001  0.010  0.016
    3  0.005  0.001  0.010  0.016
    4  0.005  0.001  0.010  0.016
    5  0.000  0.002  0.010  0.011
    6  0.005  0.001  0.010  0.016
    7  0.005  0.001  0.010  0.016
    8  0.005  0.001  0.010  0.016
    9  0.019  0.000  0.007  0.026
   10  0.009  0.000  0.024  0.033
   11  0.011  0.000  0.020  0.032
   12  0.009  0.000  0.024  0.033
   13  0.011  0.000  0.020  0.032
   14  0.011  0.000  0.020  0.032
   15  0.002  0.001  0.023  0.025
   16  0.009  0.000  0.024  0.033
   17  0.002  0.001  0.023  0.025
   18  0.002  0.001  0.023  0.025
   19  0.005  0.000  0.019  0.024
   20  0.010  0.001  0.021  0.032
   21  0.010  0.001  0.021  0.032
   22  0.002  0.000  0.021  0.023
   23  0.010  0.001  0.021  0.032
   24  0.002  0.000  0.021  0.023
   25  0.005  0.000  0.019  0.024
   26  0.005  0.000  0.019  0.024
   27  0.002  0.000  0.021  0.023
   28  0.001  0.001  0.006  0.008
   29  0.003  0.001  0.009  0.013
   30  0.003  0.001  0.009  0.013
   31  0.003  0.001  0.009  0.013
   32  0.003  0.001  0.009  0.013
   33  0.003  0.001  0.009  0.013
   34  0.003  0.001  0.009  0.013
   35  0.014  0.000  0.006  0.020
   36  0.000  0.000  0.006  0.007
   37  0.000  0.002  0.000  0.002
tot    0.205  0.021  0.544  0.770
 
band    18 # energy   -5.14038643 # occ.  2.00000000
 
ion      s      p      d    tot
    1  0.035  0.003  0.000  0.038
    2  0.000  0.003  0.010  0.013
    3  0.000  0.003  0.010  0.013
    4  0.000  0.003  0.010  0.013
    5  0.000  0.000  0.001  0.001
    6  0.000  0.003  0.010  0.013
    7  0.000  0.003  0.010  0.013
    8  0.000  0.003  0.010  0.013
    9  0.023  0.004  0.002  0.029
   10  0.007  0.003  0.010  0.021
   11  0.002  0.000  0.015  0.017
   12  0.008  0.003  0.010  0.021
   13  0.002  0.000  0.015  0.017
   14  0.002  0.000  0.015  0.017
   15  0.010  0.003  0.014  0.027
   16  0.008  0.003  0.010  0.021
   17  0.010  0.003  0.014  0.027
   18  0.009  0.003  0.014  0.027
   19  0.002  0.003  0.022  0.028
   20  0.000  0.000  0.013  0.013
   21  0.000  0.000  0.013  0.013
   22  0.011  0.004  0.009  0.023
   23  0.000  0.000  0.013  0.013
   24  0.011  0.004  0.009  0.023
   25  0.002  0.003  0.022  0.028
   26  0.002  0.003  0.022  0.028
   27  0.011  0.004  0.009  0.023
   28  0.040  0.003  0.000  0.043
   29  0.000  0.003  0.014  0.017
   30  0.000  0.003  0.014  0.017
   31  0.000  0.003  0.014  0.017
   32  0.000  0.003  0.014  0.017
   33  0.000  0.003  0.014  0.017
   34  0.000  0.003  0.014  0.017
   35  0.025  0.004  0.001  0.030
   36  0.000  0.000  0.000  0.000
   37  0.000  0.000  0.000  0.000
tot    0.223  0.089  0.396  0.708
 
band    19 # energy   -5.11588527 # occ.  2.00000000
 
ion      s      p      d    tot
    1  0.000  0.002  0.009  0.011
    2  0.005  0.002  0.005  0.012
    3  0.021  0.004  0.005  0.030
    4  0.004  0.002  0.005  0.011
    5  0.000  0.006  0.009  0.015
    6  0.006  0.002  0.005  0.013
    7  0.021  0.004  0.005  0.030
    8  0.007  0.002  0.005  0.014
    9  0.000  0.001  0.012  0.013
   10  0.000  0.001  0.017  0.017
   11  0.017  0.004  0.009  0.029
   12  0.010  0.003  0.011  0.023
   13  0.015  0.003  0.010  0.029
   14  0.000  0.002  0.025  0.027
   15  0.001  0.001  0.010  0.012
   16  0.011  0.003  0.010  0.024
   17  0.001  0.001  0.011  0.012
   18  0.000  0.004  0.018  0.022
   19  0.001  0.001  0.011  0.013
   20  0.000  0.001  0.029  0.030
   21  0.013  0.004  0.012  0.030
   22  0.007  0.003  0.011  0.021
   23  0.015  0.004  0.011  0.030
   24  0.000  0.001  0.013  0.014
   25  0.000  0.003  0.024  0.027
   26  0.001  0.001  0.012  0.014
   27  0.007  0.003  0.011  0.021
   28  0.000  0.002  0.015  0.017
   29  0.006  0.002  0.007  0.015
   30  0.020  0.004  0.008  0.032
   31  0.004  0.002  0.007  0.013
   32  0.004  0.002  0.007  0.013
   33  0.020  0.004  0.008  0.032
   34  0.006  0.002  0.007  0.015
   35  0.000  0.001  0.012  0.013
   36  0.000  0.002  0.007  0.009
   37  0.000  0.001  0.000  0.001
tot    0.222  0.090  0.392  0.704
 
band    20 # energy   -5.11586240 # occ.  2.00000000
 
ion      s      p      d    tot
    1  0.000  0.002  0.009  0.011
    2  0.016  0.003  0.005  0.025
    3  0.000  0.002  0.005  0.007
    4  0.017  0.003  0.005  0.026
    5  0.000  0.006  0.009  0.015
    6  0.015  0.003  0.005  0.024
    7  0.000  0.002  0.005  0.007
    8  0.014  0.003  0.005  0.022
    9  0.000  0.001  0.012  0.013
   10  0.014  0.004  0.008  0.026
   11  0.005  0.002  0.021  0.028
   12  0.004  0.001  0.014  0.020
   13  0.006  0.002  0.019  0.028
   14  0.021  0.004  0.005  0.030
   15  0.000  0.003  0.016  0.019
   16  0.003  0.001  0.015  0.019
   17  0.000  0.003  0.015  0.018
   18  0.001  0.000  0.008  0.009
   19  0.000  0.003  0.020  0.023
   20  0.019  0.005  0.006  0.030
   21  0.005  0.002  0.022  0.030
   22  0.003  0.002  0.012  0.017
   23  0.004  0.002  0.024  0.030
   24  0.009  0.004  0.010  0.024
   25  0.002  0.000  0.007  0.009
   26  0.000  0.002  0.019  0.022
   27  0.002  0.001  0.013  0.016
   28  0.000  0.002  0.015  0.017
   29  0.015  0.003  0.008  0.026
   30  0.000  0.001  0.007  0.008
   31  0.016  0.003  0.008  0.027
   32  0.016  0.003  0.008  0.027
   33  0.000  0.001  0.007  0.008
   34  0.015  0.003  0.007  0.025
   35  0.000  0.001  0.012  0.013
   36  0.000  0.002  0.007  0.009
   37  0.000  0.001  0.000  0.001
tot    0.222  0.090  0.392  0.704
 
band    21 # energy   -4.93493145 # occ.  2.00000000
 
ion      s      p      d    tot
    1  0.017  0.002  0.000  0.019
    2  0.000  0.003  0.012  0.015
    3  0.000  0.003  0.012  0.015
    4  0.000  0.003  0.012  0.015
    5  0.044  0.003  0.000  0.048
    6  0.000  0.003  0.012  0.015
    7  0.000  0.003  0.012  0.015
    8  0.000  0.003  0.012  0.015
    9  0.003  0.001  0.001  0.004
   10  0.002  0.002  0.028  0.032
   11  0.003  0.004  0.020  0.028
   12  0.002  0.002  0.028  0.032
   13  0.003  0.004  0.020  0.028
   14  0.003  0.004  0.020  0.028
   15  0.003  0.001  0.010  0.015
   16  0.002  0.002  0.028  0.032
   17  0.003  0.001  0.010  0.015
   18  0.003  0.001  0.010  0.015
   19  0.012  0.001  0.025  0.037
   20  0.010  0.003  0.006  0.020
   21  0.010  0.003  0.006  0.020
   22  0.002  0.001  0.019  0.022
   23  0.010  0.003  0.006  0.020
   24  0.002  0.001  0.019  0.022
   25  0.012  0.001  0.025  0.037
   26  0.012  0.001  0.025  0.037
   27  0.002  0.001  0.019  0.022
   28  0.001  0.002  0.008  0.011
   29  0.001  0.001  0.011  0.013
   30  0.001  0.001  0.011  0.013
   31  0.001  0.001  0.011  0.013
   32  0.001  0.001  0.011  0.013
   33  0.001  0.001  0.011  0.013
   34  0.001  0.001  0.011  0.013
   35  0.001  0.001  0.003  0.005
   36  0.011  0.002  0.001  0.014