 vasp.6.2.0 18Jan21 (build Jun 12 2021 23:27:24) complex                        
  
 executed on             LinuxIFC date 2022.05.26  20:12:55
 running on   28 total cores
 distrk:  each k-point on   28 cores,    1 groups
 distr:  one band on NCORE=   1 cores,   28 groups


--------------------------------------------------------------------------------------------------------


 INCAR:
   ISMEAR = -5
   SIGMA = 0.1
   ISPIN = 1
   EDIFF = 1.d-5
   EDIFFG = -0.01
   NSW = 0
   NELM = 150
   ENCUT = 500
   ISIF = 2
   IBRION = 2
   LREAL = Auto
   ALGO = Fast
   ICHARG = 11
   LORBIT = 10
   LCHARG = .F.
   LWAVE = .F.

 POTCAR:    PAW_PBE Au 04Oct2007                  
 POTCAR:    PAW_PBE Ni 02Aug2007                  
 -----------------------------------------------------------------------------
|                                                                             |
|           W    W    AA    RRRRR   N    N  II  N    N   GGGG   !!!           |
|           W    W   A  A   R    R  NN   N  II  NN   N  G    G  !!!           |
|           W    W  A    A  R    R  N N  N  II  N N  N  G       !!!           |
|           W WW W  AAAAAA  RRRRR   N  N N  II  N  N N  G  GGG   !            |
|           WW  WW  A    A  R   R   N   NN  II  N   NN  G    G                |
|           W    W  A    A  R    R  N    N  II  N    N   GGGG   !!!           |
|                                                                             |
|     For optimal performance we recommend to set                             |
|       NCORE = 2 up to number-of-cores-per-socket                            |
|     NCORE specifies how many cores store one orbital (NPAR=cpu/NCORE).      |
|     This setting can greatly improve the performance of VASP for DFT.       |
|     The default, NCORE=1 might be grossly inefficient on modern             |
|     multi-core architectures or massively parallel machines. Do your        |
|     own testing! More info at https://www.vasp.at/wiki/index.php/NCORE      |
|     Unfortunately you need to use the default for GW and RPA                |
|     calculations (for HF NCORE is supported but not extensively tested      |
|     yet).                                                                   |
|                                                                             |
 -----------------------------------------------------------------------------

 POTCAR:    PAW_PBE Au 04Oct2007                  
   VRHFIN =Au: s1d10                                                                                
   LEXCH  = PE                                                                                      
   EATOM  =   926.0867 eV,   68.0654 Ry                                                             
                                                                                                    
   TITEL  = PAW_PBE Au 04Oct2007                                                                    
   LULTRA =        F    use ultrasoft PP ?                                                          
   IUNSCR =        1    unscreen: 0-lin 1-nonlin 2-no                                               
   RPACOR =    2.330    partial core radius                                                         
   POMASS =  196.966; ZVAL   =   11.000    mass and valenz                                          
   RCORE  =    2.500    outmost cutoff radius                                                       
   RWIGS  =    2.840; RWIGS  =    1.503    wigner-seitz radius (au A)                               
   ENMAX  =  229.943; ENMIN  =  172.457 eV                                                          
   ICORE  =        3    local potential                                                             
   LCOR   =        T    correct aug charges                                                         
   LPAW   =        T    paw PP                                                                      
   EAUG   =  356.670                                                                                
   DEXC   =    0.000                                                                                
   RMAX   =    2.562    core radius for proj-oper                                                   
   RAUG   =    1.300    factor for augmentation sphere                                              
   RDEP   =    2.598    radius for radial grids                                                     
   RDEPT  =    2.193    core radius for aug-charge                                                  
                                                                                                    
   Atomic configuration                                                                             
   16 entries                                                                                       
     n  l   j            E        occ.                                                              
     1  0  0.50    -80748.5001   2.0000                                                             
     2  0  0.50    -14244.7466   2.0000                                                             
     2  1  1.50    -12310.9591   6.0000                                                             
     3  0  0.50     -3362.1768   2.0000                                                             
     3  1  1.50     -2801.5463   6.0000                                                             
     3  2  2.50     -2203.8206  10.0000                                                             
     4  0  0.50      -729.8168   2.0000                                                             
     4  1  1.50      -546.0527   6.0000                                                             
     4  2  2.50      -325.7302  10.0000                                                             
     4  3  3.50       -81.1472  14.0000                                                             
     5  0  0.50      -108.3201   2.0000                                                             
     5  1  1.50       -59.7479   6.0000                                                             
     5  2  2.50        -6.8783  10.0000                                                             
     6  0  0.50        -5.7602   1.0000                                                             
     6  1  1.50        -6.8029   0.0000                                                             
     5  3  2.50        -1.3606   0.0000                                                             
   Description                                                                                      
     l       E           TYP  RCUT    TYP  RCUT                                                     
     2     -6.8782861     23  2.500                                                                 
     2     -8.2388687     23  2.500                                                                 
     0     -5.7601759     23  2.500                                                                 
     0     -0.8493231     23  2.500                                                                 
     1     -2.7211652     23  2.500                                                                 
     1     27.2116520     23  2.500                                                                 
     3     -1.3605826     23  2.500                                                                 
  local pseudopotential read in
  partial core-charges read in
  partial kinetic energy density read in
  atomic valenz-charges read in
  non local Contribution for L=           2  read in
    real space projection operators read in
  non local Contribution for L=           2  read in
    real space projection operators read in
  non local Contribution for L=           0  read in
    real space projection operators read in
  non local Contribution for L=           0  read in
    real space projection operators read in
  non local Contribution for L=           1  read in
    real space projection operators read in
  non local Contribution for L=           1  read in
    real space projection operators read in
    PAW grid and wavefunctions read in
 
   number of l-projection  operators is LMAX  =           6
   number of lm-projection operators is LMMAX =          18
 
 POTCAR:    PAW_PBE Ni 02Aug2007                  
   VRHFIN =Ni:                                                                                      
   LEXCH  = PE                                                                                      
   EATOM  =  1077.6739 eV,   79.2068 Ry                                                             
                                                                                                    
   TITEL  = PAW_PBE Ni 02Aug2007                                                                    
   LULTRA =        F    use ultrasoft PP ?                                                          
   IUNSCR =        1    unscreen: 0-lin 1-nonlin 2-no                                               
   RPACOR =    2.000    partial core radius                                                         
   POMASS =   58.690; ZVAL   =   10.000    mass and valenz                                          
   RCORE  =    2.300    outmost cutoff radius                                                       
   RWIGS  =    2.430; RWIGS  =    1.286    wigner-seitz radius (au A)                               
   ENMAX  =  269.532; ENMIN  =  202.149 eV                                                          
   RCLOC  =    1.201    cutoff for local pot                                                        
   LCOR   =        T    correct aug charges                                                         
   LPAW   =        T    paw PP                                                                      
   EAUG   =  544.565                                                                                
   DEXC   =    0.000                                                                                
   RMAX   =    2.357    core radius for proj-oper                                                   
   RAUG   =    1.300    factor for augmentation sphere                                              
   RDEP   =    2.390    radius for radial grids                                                     
   RDEPT  =    1.838    core radius for aug-charge                                                  
                                                                                                    
   Atomic configuration                                                                             
    9 entries                                                                                       
     n  l   j            E        occ.                                                              
     1  0  0.50     -8206.4253   2.0000                                                             
     2  0  0.50      -976.1748   2.0000                                                             
     2  1  1.50      -839.0571   6.0000                                                             
     3  0  0.50      -105.9991   2.0000                                                             
     3  1  1.50       -66.4603   6.0000                                                             
     3  2  2.50        -4.6458   9.0000                                                             
     4  0  0.50        -4.4926   1.0000                                                             
     4  1  1.50        -4.0817   0.0000                                                             
     4  3  2.50        -1.3606   0.0000                                                             
   Description                                                                                      
     l       E           TYP  RCUT    TYP  RCUT                                                     
     2     -4.6457903     23  2.300                                                                 
     2     -6.0063729     23  2.300                                                                 
     0     -4.4925590     23  2.300                                                                 
     0      5.0102601     23  2.300                                                                 
     1     -2.7211652     23  2.300                                                                 
     1     16.5183231     23  2.300                                                                 
  local pseudopotential read in
  partial core-charges read in
  partial kinetic energy density read in
  atomic valenz-charges read in
  non local Contribution for L=           2  read in
    real space projection operators read in
  non local Contribution for L=           2  read in
    real space projection operators read in
  non local Contribution for L=           0  read in
    real space projection operators read in
  non local Contribution for L=           0  read in
    real space projection operators read in
  non local Contribution for L=           1  read in
    real space projection operators read in
  non local Contribution for L=           1  read in
    real space projection operators read in
    PAW grid and wavefunctions read in
 
   number of l-projection  operators is LMAX  =           6
   number of lm-projection operators is LMMAX =          18
 
 Optimization of the real space projectors (new method)

 maximal supplied QI-value         = 15.12
 optimisation between [QCUT,QGAM] = [ 11.34, 22.83] = [ 36.00,145.93] Ry 
 Optimized for a Real-space Cutoff    1.39 Angstroem

   l    n(q)    QCUT    max X(q) W(low)/X(q) W(high)/X(q)  e(spline) 
   2      9    11.338    60.898    0.39E-03    0.42E-03    0.21E-06
   2      9    11.338    58.894    0.40E-03    0.42E-03    0.22E-06
   0      9    11.338   109.617    0.13E-03    0.20E-04    0.13E-06
   0      9    11.338    75.026    0.13E-03    0.20E-04    0.13E-06
   1      9    11.338    16.344    0.33E-04    0.24E-03    0.18E-06
   1      9    11.338    10.160    0.26E-04    0.19E-03    0.15E-06
 Optimization of the real space projectors (new method)

 maximal supplied QI-value         = 16.25
 optimisation between [QCUT,QGAM] = [ 11.38, 22.75] = [ 36.24,144.96] Ry 
 Optimized for a Real-space Cutoff    1.39 Angstroem

   l    n(q)    QCUT    max X(q) W(low)/X(q) W(high)/X(q)  e(spline) 
   2      8    11.376    60.317    0.19E-03    0.33E-04    0.13E-06
   2      8    11.376    55.921    0.20E-03    0.34E-04    0.14E-06
   0      9    11.376    51.690    0.82E-04    0.12E-03    0.20E-06
   0      9    11.376    30.015    0.74E-04    0.11E-03    0.18E-06
   1      9    11.376    18.849    0.39E-03    0.12E-03    0.13E-06
   1      9    11.376    14.624    0.33E-03    0.10E-03    0.11E-06
  PAW_PBE Au 04Oct2007                  :
 energy of atom  1       EATOM= -926.0867
 kinetic energy error for atom=    0.0042 (will be added to EATOM!!)
  PAW_PBE Ni 02Aug2007                  :
 energy of atom  2       EATOM=-1077.6739
 kinetic energy error for atom=    0.0030 (will be added to EATOM!!)
 
 
 POSCAR: Au-Ni
  positions in direct lattice
  velocities in cartesian coordinates
 exchange correlation table for  LEXCH =        8
   RHO(1)=    0.500       N(1)  =     2000
   RHO(2)=  100.500       N(2)  =     4000

 VTST: version 3.2, (02/03/18)

 CHAIN: initializing optimizer
 
 OPT: Using VASP Conjugate-Gradient optimizer
 CHAIN: Read ICHAIN            0
 
 POSCAR: Au-Ni
  positions in direct lattice
  velocities in cartesian coordinates
 


--------------------------------------------------------------------------------------------------------


 ion  position               nearest neighbor table
   1  0.000  0.000  0.238-  16 2.94  12 2.94   6 2.94   8 2.94   7 2.94   3 2.94  10 2.94   4 2.94
                             2 2.94
   2  0.333  0.000  0.238-   9 2.94  11 2.94  17 2.94  10 2.94   8 2.94   4 2.94   5 2.94   1 2.94
                             3 2.94
   3  0.667  0.000  0.238-   7 2.94  18 2.94  12 2.94   1 2.94  11 2.94   5 2.94   6 2.94   9 2.94
                             2 2.94
   4  0.000  0.333  0.238-  10 2.94   6 2.94   5 2.94  13 2.94   2 2.94  15 2.94   9 2.94   1 2.94
                             7 2.94
   5  0.333  0.333  0.238-  13 2.94   7 2.94  11 2.94   4 2.94   2 2.94  14 2.94   3 2.94   8 2.94
                             6 2.94
   6  0.667  0.333  0.238-  15 2.94  14 2.94   1 2.94  12 2.94   4 2.94   9 2.94   8 2.94   3 2.94
                             5 2.94
   7  0.000  0.667  0.238-  18 2.94   3 2.94  16 2.94   5 2.94   1 2.94  13 2.94   8 2.94   4 2.94
                             9 2.94
   8  0.333  0.667  0.238-   9 2.94  17 2.94   1 2.94   2 2.94  14 2.94  16 2.94   6 2.94   7 2.94
                             5 2.94
   9  0.667  0.667  0.238-   2 2.94   8 2.94  17 2.94   6 2.94  15 2.94   4 2.94   3 2.94  18 2.94
                             7 2.94
  10  0.111  0.111  0.346-  20 2.93  26 2.93  19 2.93  11 2.94  17 2.94   2 2.94   4 2.94   1 2.94
                            12 2.94  16 2.94  13 2.94  15 2.94
  11  0.444  0.111  0.346-  20 2.92  21 2.92  27 2.93  13 2.94   2 2.94  10 2.94  17 2.94   5 2.94
                             3 2.94  18 2.94  14 2.94  12 2.94
  12  0.778  0.111  0.346-  21 2.93  25 2.93  19 2.93  16 2.94  18 2.94   1 2.94  14 2.94  15 2.94
                             3 2.94   6 2.94  10 2.94  11 2.94
  13  0.111  0.444  0.346-  23 2.92  20 2.92  22 2.93   5 2.94  18 2.94  11 2.94   7 2.94   4 2.94
                            16 2.94  10 2.94  14 2.94  15 2.94
  14  0.444  0.444  0.346-  21 2.92  23 2.92  24 2.93  15 2.94   6 2.94  12 2.94   8 2.94  17 2.94
                             5 2.94  16 2.94  13 2.94  11 2.94
  15  0.778  0.444  0.346-  24 2.92  22 2.92  19 2.93  14 2.94   6 2.94  17 2.94  12 2.94   9 2.94
                             4 2.94  10 2.94  13 2.94  18 2.94
  16  0.111  0.778  0.346-  23 2.93  25 2.93  26 2.93  18 2.94  12 2.94   7 2.94   1 2.94   8 2.94
                            13 2.94  10 2.94  14 2.94  17 2.94
  17  0.444  0.778  0.346-  27 2.92  24 2.92  26 2.93   9 2.94  15 2.94   2 2.94  10 2.94  11 2.94
                             8 2.94  14 2.94  16 2.94  18 2.94
  18  0.778  0.778  0.346-  22 2.92  27 2.92  25 2.93  16 2.94   7 2.94  13 2.94  12 2.94   3 2.94
                            11 2.94   9 2.94  15 2.94  17 2.94
  19  0.889  0.222  0.454-  10 2.93  12 2.93  15 2.93  26 2.93  25 2.93  24 2.94  22 2.94  21 2.95
                            20 2.95  28 2.95  32 2.96  31 2.96
  20  0.223  0.223  0.453-  36 2.70  29 2.91  31 2.91  11 2.92  13 2.92  23 2.92  21 2.92  10 2.93
                            27 2.95  22 2.95  26 2.95  19 2.95
  21  0.554  0.223  0.453-  36 2.70  30 2.91  32 2.91  14 2.92  11 2.92  20 2.92  23 2.92  12 2.93
                            27 2.95  24 2.95  25 2.95  19 2.95
  22  0.888  0.556  0.453-  18 2.92  15 2.92  24 2.92  27 2.92  13 2.93  25 2.94  19 2.94  33 2.94
                            31 2.94  23 2.95  20 2.95  35 2.96
  23  0.223  0.554  0.453-  36 2.70  33 2.91  34 2.91  13 2.92  14 2.92  20 2.92  21 2.92  16 2.93
                            22 2.95  24 2.95  25 2.95  26 2.95
  24  0.556  0.556  0.453-  15 2.92  17 2.92  27 2.92  22 2.92  14 2.93  26 2.94  19 2.94  32 2.94
                            34 2.94  21 2.95  23 2.95  35 2.96
  25  0.889  0.889  0.454-  16 2.93  12 2.93  18 2.93  19 2.93  26 2.93  22 2.94  27 2.94  23 2.95
                            21 2.95  28 2.95  33 2.96  30 2.96
  26  0.222  0.889  0.454-  10 2.93  16 2.93  17 2.93  19 2.93  25 2.93  27 2.94  24 2.94  20 2.95
                            23 2.95  28 2.95  29 2.96  34 2.96
  27  0.556  0.888  0.453-  17 2.92  18 2.92  24 2.92  22 2.92  11 2.93  26 2.94  25 2.94  29 2.94
                            30 2.94  20 2.95  21 2.95  35 2.96
  28  0.000  0.000  0.563-  25 2.95  19 2.95  26 2.95  34 2.97  32 2.97  33 2.97  30 2.97  31 2.97
                            29 2.97
  29  0.334  0.007  0.561-  30 2.87  31 2.88  36 2.89  20 2.91  27 2.94  26 2.96  35 2.97  28 2.97
                            34 3.06
  30  0.660  0.007  0.561-  29 2.87  32 2.88  36 2.89  21 2.91  27 2.94  25 2.96  35 2.97  28 2.97
                            33 3.06
  31  0.007  0.334  0.561-  33 2.87  29 2.88  36 2.89  20 2.91  22 2.94  19 2.96  35 2.97  28 2.97
                            32 3.06
  32  0.660  0.334  0.561-  34 2.87  30 2.88  36 2.89  21 2.91  24 2.94  19 2.96  35 2.97  28 2.97
                            31 3.06
  33  0.007  0.660  0.561-  31 2.87  34 2.88  36 2.89  23 2.91  22 2.94  25 2.96  35 2.97  28 2.97
                            30 3.06
  34  0.334  0.660  0.561-  32 2.87  33 2.88  36 2.89  23 2.91  24 2.94  26 2.96  35 2.97  28 2.97
                            29 3.06
  35  0.667  0.667  0.563-  24 2.96  27 2.96  22 2.96  29 2.97  34 2.97  32 2.97  31 2.97  30 2.97
                            33 2.97
  36  0.333  0.333  0.548-  20 2.70  23 2.70  21 2.70  33 2.89  31 2.89  29 2.89  30 2.89  34 2.89
                            32 2.89
 
  LATTYP: Found a hexagonal cell.
 ALAT       =     8.8135128021
 C/A-ratio  =     2.5184286595
  
  Lattice vectors:
  
 A1 = (  -4.4067569092,  -7.6327256898,   0.0000000000)
 A2 = (   8.8135128021,   0.0000000000,   0.0000000000)
 A3 = (   0.0000000000,   0.0000000000,  22.1962032318)


Analysis of symmetry for initial positions (statically):
=====================================================================
 Subroutine PRICEL returns:
 Original cell was already a primitive cell.
 

 Routine SETGRP: Setting up the symmetry group for a 
 hexagonal supercell.


 Subroutine GETGRP returns: Found  6 space group operations
 (whereof  6 operations were pure point group operations)
 out of a pool of 24 trial point group operations.


The static configuration has the point symmetry C_3v.


Analysis of symmetry for dynamics (positions and initial velocities):
=====================================================================
 Subroutine PRICEL returns:
 Original cell was already a primitive cell.
 

 Routine SETGRP: Setting up the symmetry group for a 
 hexagonal supercell.


 Subroutine GETGRP returns: Found  6 space group operations
 (whereof  6 operations were pure point group operations)
 out of a pool of 24 trial point group operations.


The dynamic configuration has the point symmetry C_3v.


Analysis of constrained symmetry for selective dynamics:
=====================================================================
 Subroutine PRICEL returns:
 Original cell was already a primitive cell.
 

 Routine SETGRP: Setting up the symmetry group for a 
 hexagonal supercell.


 Subroutine GETGRP returns: Found  6 space group operations
 (whereof  6 operations were pure point group operations)
 out of a pool of 24 trial point group operations.


The constrained configuration has the point symmetry C_3v.


 Subroutine INISYM returns: Found  6 space group operations
 (whereof  6 operations are pure point group operations),
 and found     1 'primitive' translations


----------------------------------------------------------------------------------------

                                     Primitive cell                                     

  volume of cell :    1493.1636

  direct lattice vectors                    reciprocal lattice vectors
     8.813512802  0.000000000  0.000000000     0.113462137 -0.065507406  0.000000000
     4.406756909  7.632725690  0.000000000     0.000000000  0.131014796  0.000000000
     0.000000000  0.000000000 22.196203232     0.000000000  0.000000000  0.045052750

  length of vectors
     8.813512802  8.813512802 22.196203232     0.131014796  0.131014796  0.045052750

  position of ions in fractional coordinates (direct lattice)
     0.000000000  0.000000000  0.237895638
     0.333333343  0.000000000  0.237895638
     0.666666687  0.000000000  0.237895638
     1.000000000  0.333333343  0.237895638
     0.333333313  0.333333343  0.237895638
     0.666666687  0.333333343  0.237895638
     1.000000000  0.666666687  0.237895638
     0.333333343  0.666666687  0.237895638
     0.666666627  0.666666687  0.237895638
     0.111111119  0.111111112  0.345965207
     0.444444418  0.111111112  0.345965207
     0.777777791  0.111111112  0.345965207
     0.111111127  0.444444448  0.345965207
     0.444444478  0.444444448  0.345965207
     0.777777731  0.444444448  0.345965207
     0.111111090  0.777777791  0.345965207
     0.444444448  0.777777791  0.345965207
     0.777777851  0.777777791  0.345965207
     0.889034572  0.221930873  0.453705800
     0.222892879  0.222892864  0.453161960
     0.554214302  0.222892864  0.453161960
     0.887576566  0.556211747  0.453206016
     0.222892834  0.554214302  0.453161960
     0.556211747  0.556211747  0.453206016
     0.889034572  0.889034572  0.453705800
     0.221930903  0.889034572  0.453705800
     0.556211687  0.887576566  0.453206016
     0.000000000  0.000000000  0.562643426
     0.333602496  0.006773743  0.561295001
     0.659623791  0.006773743  0.561295001
     0.006773743  0.333602496  0.561295001
     0.659623791  0.333602496  0.561295001
     0.006773743  0.659623791  0.561295001
     0.333602496  0.659623791  0.561295001
     0.666666627  0.666666687  0.562800356
     0.333333313  0.333333343  0.547908350

  ion indices of the primitive-cell ions
   primitive index   ion index
                 1           1
                 2           2
                 3           3
                 4           4
                 5           5
                 6           6
                 7           7
                 8           8
                 9           9
                10          10
                11          11
                12          12
                13          13
                14          14
                15          15
                16          16
                17          17
                18          18
                19          19
                20          20
                21          21
                22          22
                23          23
                24          24
                25          25
                26          26
                27          27
                28          28
                29          29
                30          30
                31          31
                32          32
                33          33
                34          34
                35          35
                36          36

----------------------------------------------------------------------------------------

 
 
 KPOINTS: Automatic mesh                          

Automatic generation of k-mesh.
 Grid dimensions read from file:
 generate k-points for:    8    8    1

 Generating k-lattice:

  Cartesian coordinates                     Fractional coordinates (reciprocal lattice)
     0.014182767 -0.008188426  0.000000000     0.125000000 -0.000000000  0.000000000
     0.000000000  0.016376850  0.000000000     0.000000000  0.125000000  0.000000000
     0.000000000  0.000000000  0.045052750     0.000000000  0.000000000  1.000000000

  Length of vectors
     0.016376850  0.016376850  0.045052750

  Shift w.r.t. Gamma in fractional coordinates (k-lattice)
     0.000000000  0.000000000  0.000000000

 TETIRR: Found     36 inequivalent tetrahedra from      384
 
 Subroutine IBZKPT returns following result:
 ===========================================
 
 Found     10 irreducible k-points:
 
 Following reciprocal coordinates:
            Coordinates               Weight
  0.000000  0.000000  0.000000      1.000000
  0.125000 -0.000000  0.000000      6.000000
  0.250000 -0.000000  0.000000      6.000000
  0.375000  0.000000  0.000000      6.000000
  0.500000 -0.000000  0.000000      3.000000
  0.250000  0.125000  0.000000      6.000000
  0.375000  0.125000  0.000000     12.000000
  0.500000  0.125000  0.000000     12.000000
  0.500000  0.250000  0.000000      6.000000
 -0.375000  0.250000  0.000000      6.000000
 
 Following cartesian coordinates:
            Coordinates               Weight
  0.000000  0.000000  0.000000      1.000000
  0.014183 -0.008188  0.000000      6.000000
  0.028366 -0.016377  0.000000      6.000000
  0.042548 -0.024565  0.000000      6.000000
  0.056731 -0.032754  0.000000      3.000000
  0.028366 -0.000000  0.000000      6.000000
  0.042548 -0.008188  0.000000     12.000000
  0.056731 -0.016377  0.000000     12.000000
  0.056731 -0.000000  0.000000      6.000000
 -0.042548  0.057319  0.000000      6.000000
 


--------------------------------------------------------------------------------------------------------




 Dimension of arrays:
   k-points           NKPTS =     10   k-points in BZ     NKDIM =     10   number of bands    NBANDS=    252
   number of dos      NEDOS =    301   number of ions     NIONS =     36
   non local maximal  LDIM  =      6   non local SUM 2l+1 LMDIM =     18
   total plane-waves  NPLWV = 290304
   max r-space proj   IRMAX =   2236   max aug-charges    IRDMAX=  12088
   dimension x,y,z NGX =    48 NGY =   48 NGZ =  126
   dimension x,y,z NGXF=    96 NGYF=   96 NGZF=  252
   support grid    NGXF=    96 NGYF=   96 NGZF=  252
   ions per type =              35   1
   NGX,Y,Z   is equivalent  to a cutoff of   9.05,  9.05,  9.44 a.u.
   NGXF,Y,Z  is equivalent  to a cutoff of  18.11, 18.11, 18.87 a.u.

 SYSTEM =  unknown system                          
 POSCAR =  Au-Ni                                   

 Startparameter for this run:
   NWRITE =      2    write-flag & timer
   PREC   = normal    normal or accurate (medium, high low for compatibility)
   ISTART =      0    job   : 0-new  1-cont  2-samecut
   ICHARG =     11    charge: 1-file 2-atom 10-const
   ISPIN  =      1    spin polarized calculation?
   LNONCOLLINEAR =      F non collinear calculations
   LSORBIT =      F    spin-orbit coupling
   INIWAV =      1    electr: 0-lowe 1-rand  2-diag
   LASPH  =      F    aspherical Exc in radial PAW
   METAGGA=      F    non-selfconsistent MetaGGA calc.

 Electronic Relaxation 1
   ENCUT  =  500.0 eV  36.75 Ry    6.06 a.u.  16.07 16.07 40.47*2*pi/ulx,y,z
   ENINI  =  500.0     initial cutoff
   ENAUG  =  544.6 eV  augmentation charge cutoff
   NELM   =    150;   NELMIN=  2; NELMDL= -5     # of ELM steps 
   EDIFF  = 0.1E-04   stopping-criterion for ELM
   LREAL  =      T    real-space projection
   NLSPLINE    = F    spline interpolate recip. space projectors
   LCOMPAT=      F    compatible to vasp.4.4
   GGA_COMPAT  = T    GGA compatible to vasp.4.4-vasp.4.6
   LMAXPAW     = -100 max onsite density
   LMAXMIX     =    2 max onsite mixed and CHGCAR
   VOSKOWN=      0    Vosko Wilk Nusair interpolation
   ROPT   =   -0.00050  -0.00050
 Ionic relaxation
   EDIFFG = -.1E-01   stopping-criterion for IOM
   NSW    =      0    number of steps for IOM
   NBLOCK =      1;   KBLOCK =      1    inner block; outer block 
   IBRION =     -1    ionic relax: 0-MD 1-quasi-New 2-CG
   NFREE  =      1    steps in history (QN), initial steepest desc. (CG)
   ISIF   =      2    stress and relaxation
   IWAVPR =     10    prediction:  0-non 1-charg 2-wave 3-comb
   ISYM   =      2    0-nonsym 1-usesym 2-fastsym
   LCORR  =      T    Harris-Foulkes like correction to forces

   POTIM  = 0.5000    time-step for ionic-motion
   TEIN   =    0.0    initial temperature
   TEBEG  =    0.0;   TEEND  =   0.0 temperature during run
   SMASS  =  -3.00    Nose mass-parameter (am)
   estimated Nose-frequenzy (Omega)   =  0.10E-29 period in steps = 0.13E+47 mass=  -0.178E-26a.u.
   SCALEE = 1.0000    scale energy and forces
   NPACO  =    256;   APACO  = 16.0  distance and # of slots for P.C.
   PSTRESS=    0.0 pullay stress

  Mass of Ions in am
   POMASS = 196.97 58.69
  Ionic Valenz
   ZVAL   =  11.00 10.00
  Atomic Wigner-Seitz radii
   RWIGS  =  -1.00 -1.00
  virtual crystal weights 
   VCA    =   1.00  1.00
   NELECT =     395.0000    total number of electrons
   NUPDOWN=      -1.0000    fix difference up-down

 DOS related values:
   EMIN   =  10.00;   EMAX   =-10.00  energy-range for DOS
   EFERMI =   0.00
   ISMEAR =    -5;   SIGMA  =   0.10  broadening in eV -4-tet -1-fermi 0-gaus

 Electronic relaxation 2 (details)
   IALGO  =     68    algorithm
   LDIAG  =      T    sub-space diagonalisation (order eigenvalues)
   LSUBROT=      F    optimize rotation matrix (better conditioning)
   TURBO    =      0    0=normal 1=particle mesh
   IRESTART =      0    0=no restart 2=restart with 2 vectors
   NREBOOT  =      0    no. of reboots
   NMIN     =      0    reboot dimension
   EREF     =   0.00    reference energy to select bands
   IMIX   =      4    mixing-type and parameters
     AMIX     =   0.40;   BMIX     =  1.00
     AMIX_MAG =   1.60;   BMIX_MAG =  1.00
     AMIN     =   0.10
     WC   =   100.;   INIMIX=   1;  MIXPRE=   1;  MAXMIX= -45

 Intra band minimization:
   WEIMIN = 0.0000     energy-eigenvalue tresh-hold
   EBREAK =  0.99E-08  absolut break condition
   DEPER  =   0.30     relativ break condition  

   TIME   =   0.40     timestep for ELM

  volume/ion in A,a.u.               =      41.48       279.90
  Fermi-wavevector in a.u.,A,eV,Ry     =   1.050924  1.985959 15.026842  1.104442
  Thomas-Fermi vector in A             =   2.185947
 
 Write flags
   LWAVE        =      F    write WAVECAR
   LDOWNSAMPLE  =      F    k-point downsampling of WAVECAR
   LCHARG       =      F    write CHGCAR
   LVTOT        =      F    write LOCPOT, total local potential
   LVHAR        =      F    write LOCPOT, Hartree potential only
   LELF         =      F    write electronic localiz. function (ELF)
   LORBIT       =     10    0 simple, 1 ext, 2 COOP (PROOUT), +10 PAW based schemes


 Dipole corrections
   LMONO  =      F    monopole corrections only (constant potential shift)
   LDIPOL =      F    correct potential (dipole corrections)
   IDIPOL =      0    1-x, 2-y, 3-z, 4-all directions 
   EPSILON=  1.0000000 bulk dielectric constant

 Exchange correlation treatment:
   GGA     =    --    GGA type
   LEXCH   =     8    internal setting for exchange type
   VOSKOWN=      0    Vosko Wilk Nusair interpolation
   LHFCALC =     F    Hartree Fock is set to
   LHFONE  =     F    Hartree Fock one center treatment
   AEXX    =    0.0000 exact exchange contribution

 Linear response parameters
   LEPSILON=     F    determine dielectric tensor
   LRPA    =     F    only Hartree local field effects (RPA)
   LNABLA  =     F    use nabla operator in PAW spheres
   LVEL    =     F    velocity operator in full k-point grid
   LINTERFAST=   F  fast interpolation
   KINTER  =     0    interpolate to denser k-point grid
   CSHIFT  =0.1000    complex shift for real part using Kramers Kronig
   OMEGAMAX=  -1.0    maximum frequency
   DEG_THRESHOLD= 0.2000000E-02 threshold for treating states as degnerate
   RTIME   =   -0.100 relaxation time in fs
  (WPLASMAI=    0.000 imaginary part of plasma frequency in eV, 0.658/RTIME)
   DFIELD  = 0.0000000 0.0000000 0.0000000 field for delta impulse in time
 
 Orbital magnetization related:
   ORBITALMAG=     F  switch on orbital magnetization
   LCHIMAG   =     F  perturbation theory with respect to B field
   DQ        =  0.001000  dq finite difference perturbation B field
   LLRAUG    =     F  two centre corrections for induced B field



--------------------------------------------------------------------------------------------------------


 Static calculation
 charge density and potential remain constant during run
 non-spin polarized calculation
 RMM-DIIS sequential band-by-band and
  variant of blocked Davidson during initial phase
 perform sub-space diagonalisation
    before iterative eigenvector-optimisation
 no mixing
 using additional bands           54
 real space projection scheme for non local part
 use partial core corrections
 calculate Harris-corrections to forces 
   (improved forces if not selfconsistent)
 use gradient corrections 
 WARNING: stress and forces are not correct
  (second derivative of E(xc) not defined)
 use of overlap-Matrix (Vanderbilt PP)
 Fermi weights with tetrahedron method with Bloechl corrections


--------------------------------------------------------------------------------------------------------


  energy-cutoff  :      500.00
  volume of cell :     1493.16
      direct lattice vectors                 reciprocal lattice vectors
     8.813512802  0.000000000  0.000000000     0.113462137 -0.065507406  0.000000000
     4.406756909  7.632725690  0.000000000     0.000000000  0.131014796  0.000000000
     0.000000000  0.000000000 22.196203232     0.000000000  0.000000000  0.045052750

  length of vectors
     8.813512802  8.813512802 22.196203232     0.131014796  0.131014796  0.045052750


 
 k-points in units of 2pi/SCALE and weight: Automatic mesh                          
   0.00000000  0.00000000  0.00000000       0.016
   0.01418277 -0.00818843  0.00000000       0.094
   0.02836553 -0.01637685  0.00000000       0.094
   0.04254830 -0.02456528  0.00000000       0.094
   0.05673107 -0.03275370  0.00000000       0.047
   0.02836553 -0.00000000  0.00000000       0.094
   0.04254830 -0.00818843  0.00000000       0.188
   0.05673107 -0.01637685  0.00000000       0.188
   0.05673107 -0.00000000  0.00000000       0.094
  -0.04254830  0.05731898  0.00000000       0.094
 
 k-points in reciprocal lattice and weights: Automatic mesh                          
   0.00000000  0.00000000  0.00000000       0.016
   0.12500000 -0.00000000  0.00000000       0.094
   0.25000000 -0.00000000  0.00000000       0.094
   0.37500000  0.00000000  0.00000000       0.094
   0.50000000 -0.00000000  0.00000000       0.047
   0.25000000  0.12500000  0.00000000       0.094
   0.37500000  0.12500000  0.00000000       0.188
   0.50000000  0.12500000  0.00000000       0.188
   0.50000000  0.25000000  0.00000000       0.094
  -0.37500000  0.25000000  0.00000000       0.094
 
 position of ions in fractional coordinates (direct lattice) 
   0.00000000  0.00000000  0.23789564
   0.33333334  0.00000000  0.23789564
   0.66666669  0.00000000  0.23789564
   0.00000000  0.33333334  0.23789564
   0.33333331  0.33333334  0.23789564
   0.66666669  0.33333334  0.23789564
   0.00000000  0.66666669  0.23789564
   0.33333334  0.66666669  0.23789564
   0.66666663  0.66666669  0.23789564
   0.11111112  0.11111111  0.34596521
   0.44444442  0.11111111  0.34596521
   0.77777779  0.11111111  0.34596521
   0.11111113  0.44444445  0.34596521
   0.44444448  0.44444445  0.34596521
   0.77777773  0.44444445  0.34596521
   0.11111109  0.77777779  0.34596521
   0.44444445  0.77777779  0.34596521
   0.77777785  0.77777779  0.34596521
   0.88903457  0.22193087  0.45370580
   0.22289288  0.22289286  0.45316196
   0.55421430  0.22289286  0.45316196
   0.88757657  0.55621175  0.45320602
   0.22289283  0.55421430  0.45316196
   0.55621175  0.55621175  0.45320602
   0.88903457  0.88903457  0.45370580
   0.22193090  0.88903457  0.45370580
   0.55621169  0.88757657  0.45320602
   0.00000000  0.00000000  0.56264343
   0.33360250  0.00677374  0.56129500
   0.65962379  0.00677374  0.56129500
   0.00677374  0.33360250  0.56129500
   0.65962379  0.33360250  0.56129500
   0.00677374  0.65962379  0.56129500
   0.33360250  0.65962379  0.56129500
   0.66666663  0.66666669  0.56280036
   0.33333331  0.33333334  0.54790835
 
 position of ions in cartesian coordinates  (Angst):
   0.00000000  0.00000000  5.28037993
   2.93783769  0.00000000  5.28037993
   5.87567538  0.00000000  5.28037993
   1.46891901  2.54424197  5.28037993
   4.40675643  2.54424197  5.28037993
   7.34459439  2.54424197  5.28037993
   2.93783803  5.08848395  5.28037993
   5.87567571  5.08848395  5.28037993
   8.81351288  5.08848395  5.28037993
   1.46891893  0.84808064  7.67911405
   4.40675623  0.84808064  7.67911405
   7.34459418  0.84808064  7.67911405
   2.93783798  3.39232256  7.67911405
   5.87567574  3.39232256  7.67911405
   8.81351263  3.39232256  7.67911405
   4.40675667  5.93656453  7.67911405
   7.34459449  5.93656453  7.67911405
  10.28243270  5.93656453  7.67911405
   8.81351299  1.69393747 10.07054615
   2.94670391  1.70128009 10.05847497
   5.86680951  1.70128009 10.05847497
  10.27375739  4.24541169 10.05945283
   4.40675655  4.23016574 10.05847497
   7.35326931  4.24541169 10.05945283
  11.75327682  6.78575701 10.07054615
   5.87375009  6.78575701 10.07054615
   8.81351299  6.77462846 10.05945283
   0.00000000  0.00000000 12.48854784
   2.97006011  0.05170212 12.45861791
   5.84345296  0.05170212 12.45861791
   1.52980557  2.54629634 12.45861791
   7.28370783  2.54629634 12.45861791
   2.96650217  5.03472745 12.45861791
   5.84701157  5.03472745 12.45861791
   8.81351288  5.08848395 12.49203108
   4.40675643  2.54424197 12.16148509
 


--------------------------------------------------------------------------------------------------------


 k-point   1 :   0.0000 0.0000 0.0000  plane waves:   37827
 k-point   2 :   0.1250-0.0000 0.0000  plane waves:   37876
 k-point   3 :   0.2500-0.0000 0.0000  plane waves:   37924
 k-point   4 :   0.3750 0.0000 0.0000  plane waves:   37904
 k-point   5 :   0.5000-0.0000 0.0000  plane waves:   37912
 k-point   6 :   0.2500 0.1250 0.0000  plane waves:   37858
 k-point   7 :   0.3750 0.1250 0.0000  plane waves:   37928
 k-point   8 :   0.5000 0.1250 0.0000  plane waves:   37924
 k-point   9 :   0.5000 0.2500 0.0000  plane waves:   37926
 k-point  10 :  -0.3750 0.2500 0.0000  plane waves:   37916

 maximum and minimum number of plane-waves per node :     37928    37827

 maximum number of plane-waves:     37928
 maximum index in each direction: 
   IXMAX=   16   IYMAX=   16   IZMAX=   40
   IXMIN=  -16   IYMIN=  -16   IZMIN=  -40


 serial   3D FFT for wavefunctions
 parallel 3D FFT for charge:
    minimum data exchange during FFTs selected (reduces bandwidth)


 total amount of memory used by VASP MPI-rank0   120973. kBytes
=======================================================================

   base      :      30000. kBytes
   nonlr-proj:      13385. kBytes
   fftplans  :       4330. kBytes
   grid      :      17098. kBytes
   one-center:        559. kBytes
   wavefun   :      55601. kBytes
 
     INWAV:  cpu time    0.0001: real time    0.0001
 initial charge density was supplied:
 number of electron     395.0000049 magnetization 
 keeping initial charge density in first step


--------------------------------------------------------------------------------------------------------


 Maximum index for non-local projection operator         2122
 Maximum index for augmentation-charges          854 (set IRDMAX)


--------------------------------------------------------------------------------------------------------


 First call to EWALD:  gamma=   0.155
 Maximum number of real-space cells 4x 4x 2
 Maximum number of reciprocal cells 2x 2x 5

    FEWALD:  cpu time    0.0015: real time    0.0015


--------------------------------------- Iteration      1(   1)  ---------------------------------------


    POTLOK:  cpu time    0.0763: real time    0.0768
    SETDIJ:  cpu time    0.0059: real time    0.0060
     EDDAV:  cpu time   12.6424: real time   12.8254
 BZINTS: Fermi energy:   11.248811;  395.000000 electrons
         Band energy: 0.156340E+04;  BLOECHL correction:   -0.015799
       DOS:  cpu time    0.0110: real time    0.0110
    --------------------------------------------
      LOOP:  cpu time   12.7355: real time   12.9193

 eigenvalue-minimisations  :  5040
 total energy-change (2. order) : 0.2628672E+04  (-0.1783436E+05)
 number of electron     395.0000049 magnetization 
 augmentation part      395.0000049 magnetization 

 Free energy of the ion-electron system (eV)
  ---------------------------------------------------
  alpha Z        PSCENC =       993.91764033
  Ewald energy   TEWEN  =     97861.25782146
  -Hartree energ DENC   =   -132490.95754585
  -exchange      EXHF   =         0.00000000
  -V(xc)+E(xc)   XCENC  =       547.77150602
  PAW double counting   =     36184.81856551   -35522.09671102
  entropy T*S    EENTRO =         0.00000000
  eigenvalues    EBANDS =      1563.40314237
  atomic energy  EATOM  =     33490.55711431
  Solvation  Ediel_sol  =         0.00000000
  ---------------------------------------------------
  free energy    TOTEN  =      2628.67153312 eV

  energy without entropy =     2628.67153312  energy(sigma->0) =     2628.67153312


--------------------------------------------------------------------------------------------------------




--------------------------------------- Iteration      1(   2)  ---------------------------------------


     EDDAV:  cpu time   13.5980: real time   13.7280
 BZINTS: Fermi energy:    1.404544;  395.000000 electrons
         Band energy:-0.104553E+04;  BLOECHL correction:   -0.036552
       DOS:  cpu time    0.0109: real time    0.0109
    --------------------------------------------
      LOOP:  cpu time   13.6089: real time   13.7389

 eigenvalue-minimisations  :  5600
 total energy-change (2. order) :-0.2608937E+04  (-0.2396316E+04)
 number of electron     395.0000049 magnetization 
 augmentation part      395.0000049 magnetization 

 Free energy of the ion-electron system (eV)
  ---------------------------------------------------
  alpha Z        PSCENC =       993.91764033
  Ewald energy   TEWEN  =     97861.25782146
  -Hartree energ DENC   =   -132490.95754585
  -exchange      EXHF   =         0.00000000
  -V(xc)+E(xc)   XCENC  =       547.77150602
  PAW double counting   =     36184.81856551   -35522.09671102
  entropy T*S    EENTRO =         0.00000000
  eigenvalues    EBANDS =     -1045.53404188
  atomic energy  EATOM  =     33490.55711431
  Solvation  Ediel_sol  =         0.00000000
  ---------------------------------------------------
  free energy    TOTEN  =        19.73434887 eV

  energy without entropy =       19.73434887  energy(sigma->0) =       19.73434887


--------------------------------------------------------------------------------------------------------




--------------------------------------- Iteration      1(   3)  ---------------------------------------


     EDDAV:  cpu time   13.4329: real time   13.5451
 BZINTS: Fermi energy:    0.656501;  395.000000 electrons
         Band energy:-0.117410E+04;  BLOECHL correction:   -0.101081
       DOS:  cpu time    0.0110: real time    0.0110
    --------------------------------------------
      LOOP:  cpu time   13.4439: real time   13.5561

 eigenvalue-minimisations  :  5740
 total energy-change (2. order) :-0.1285702E+03  (-0.1240676E+03)
 number of electron     395.0000049 magnetization 
 augmentation part      395.0000049 magnetization 

 Free energy of the ion-electron system (eV)
  ---------------------------------------------------
  alpha Z        PSCENC =       993.91764033
  Ewald energy   TEWEN  =     97861.25782146
  -Hartree energ DENC   =   -132490.95754585
  -exchange      EXHF   =         0.00000000
  -V(xc)+E(xc)   XCENC  =       547.77150602
  PAW double counting   =     36184.81856551   -35522.09671102
  entropy T*S    EENTRO =         0.00000000
  eigenvalues    EBANDS =     -1174.10420672
  atomic energy  EATOM  =     33490.55711431
  Solvation  Ediel_sol  =         0.00000000
  ---------------------------------------------------
  free energy    TOTEN  =      -108.83581596 eV

  energy without entropy =     -108.83581596  energy(sigma->0) =     -108.83581596


--------------------------------------------------------------------------------------------------------




--------------------------------------- Iteration      1(   4)  ---------------------------------------


     EDDAV:  cpu time   10.8766: real time   10.8886
 BZINTS: Fermi energy:    0.639185;  395.000000 electrons
         Band energy:-0.117665E+04;  BLOECHL correction:   -0.102309
       DOS:  cpu time    0.0109: real time    0.0109
    --------------------------------------------
      LOOP:  cpu time   10.8875: real time   10.8995

 eigenvalue-minimisations  :  6048
 total energy-change (2. order) :-0.2541007E+01  (-0.2536161E+01)
 number of electron     395.0000049 magnetization 
 augmentation part      395.0000049 magnetization 

 Free energy of the ion-electron system (eV)
  ---------------------------------------------------
  alpha Z        PSCENC =       993.91764033
  Ewald energy   TEWEN  =     97861.25782146
  -Hartree energ DENC   =   -132490.95754585
  -exchange      EXHF   =         0.00000000
  -V(xc)+E(xc)   XCENC  =       547.77150602
  PAW double counting   =     36184.81856551   -35522.09671102
  entropy T*S    EENTRO =         0.00000000
  eigenvalues    EBANDS =     -1176.64521409
  atomic energy  EATOM  =     33490.55711431
  Solvation  Ediel_sol  =         0.00000000
  ---------------------------------------------------
  free energy    TOTEN  =      -111.37682333 eV

  energy without entropy =     -111.37682333  energy(sigma->0) =     -111.37682333


--------------------------------------------------------------------------------------------------------




--------------------------------------- Iteration      1(   5)  ---------------------------------------


     EDDAV:  cpu time   10.5355: real time   10.6457
 BZINTS: Fermi energy:    0.638776;  395.000000 electrons
         Band energy:-0.117670E+04;  BLOECHL correction:   -0.102354
       DOS:  cpu time    0.0117: real time    0.0117
    --------------------------------------------
      LOOP:  cpu time   10.5472: real time   10.6574

 eigenvalue-minimisations  :  6076
 total energy-change (2. order) :-0.5876639E-01  (-0.5874207E-01)
 number of electron     395.0000049 magnetization 
 augmentation part      395.0000049 magnetization 

 Free energy of the ion-electron system (eV)
  ---------------------------------------------------
  alpha Z        PSCENC =       993.91764033
  Ewald energy   TEWEN  =     97861.25782146
  -Hartree energ DENC   =   -132490.95754585
  -exchange      EXHF   =         0.00000000
  -V(xc)+E(xc)   XCENC  =       547.77150602
  PAW double counting   =     36184.81856551   -35522.09671102
  entropy T*S    EENTRO =         0.00000000
  eigenvalues    EBANDS =     -1176.70398048
  atomic energy  EATOM  =     33490.55711431
  Solvation  Ediel_sol  =         0.00000000
  ---------------------------------------------------
  free energy    TOTEN  =      -111.43558972 eV

  energy without entropy =     -111.43558972  energy(sigma->0) =     -111.43558972


--------------------------------------------------------------------------------------------------------




--------------------------------------- Iteration      1(   6)  ---------------------------------------


    EDDIAG:  cpu time    2.1072: real time    2.1163
  RMM-DIIS:  cpu time    6.3303: real time    6.4754
    ORTHCH:  cpu time    0.3682: real time    0.3716
 BZINTS: Fermi energy:    0.638768;  395.000000 electrons
         Band energy:-0.117671E+04;  BLOECHL correction:   -0.102352
       DOS:  cpu time    0.0117: real time    0.0117
    --------------------------------------------
      LOOP:  cpu time    8.8175: real time    8.9750

 eigenvalue-minimisations  :  5066
 total energy-change (2. order) :-0.1839763E-02  (-0.1842667E-02)
 number of electron     395.0000049 magnetization 
 augmentation part      395.0000049 magnetization 

 Free energy of the ion-electron system (eV)
  ---------------------------------------------------
  alpha Z        PSCENC =       993.91764033
  Ewald energy   TEWEN  =     97861.25782146
  -Hartree energ DENC   =   -132490.95754585
  -exchange      EXHF   =         0.00000000
  -V(xc)+E(xc)   XCENC  =       547.77150602
  PAW double counting   =     36184.81856551   -35522.09671102
  entropy T*S    EENTRO =         0.00000000
  eigenvalues    EBANDS =     -1176.70582024
  atomic energy  EATOM  =     33490.55711431
  Solvation  Ediel_sol  =         0.00000000
  ---------------------------------------------------
  free energy    TOTEN  =      -111.43742948 eV

  energy without entropy =     -111.43742948  energy(sigma->0) =     -111.43742948


--------------------------------------------------------------------------------------------------------




--------------------------------------- Iteration      1(   7)  ---------------------------------------


    EDDIAG:  cpu time    2.0607: real time    2.0683
  RMM-DIIS:  cpu time    9.1548: real time    9.1642
    ORTHCH:  cpu time    0.3806: real time    0.3812
 BZINTS: Fermi energy:    0.638766;  395.000000 electrons
         Band energy:-0.117671E+04;  BLOECHL correction:   -0.102351
       DOS:  cpu time    0.0127: real time    0.0127
    --------------------------------------------
      LOOP:  cpu time   11.6087: real time   11.6264

 eigenvalue-minimisations  :  7182
 total energy-change (2. order) :-0.6136814E-03  (-0.6065629E-03)
 number of electron     395.0000049 magnetization 
 augmentation part      395.0000049 magnetization 

 Free energy of the ion-electron system (eV)
  ---------------------------------------------------
  alpha Z        PSCENC =       993.91764033
  Ewald energy   TEWEN  =     97861.25782146
  -Hartree energ DENC   =   -132490.95754585
  -exchange      EXHF   =         0.00000000
  -V(xc)+E(xc)   XCENC  =       547.77150602
  PAW double counting   =     36184.81856551   -35522.09671102
  entropy T*S    EENTRO =         0.00000000
  eigenvalues    EBANDS =     -1176.70643392
  atomic energy  EATOM  =     33490.55711431
  Solvation  Ediel_sol  =         0.00000000
  ---------------------------------------------------
  free energy    TOTEN  =      -111.43804316 eV

  energy without entropy =     -111.43804316  energy(sigma->0) =     -111.43804316


--------------------------------------------------------------------------------------------------------




--------------------------------------- Iteration      1(   8)  ---------------------------------------


    EDDIAG:  cpu time    2.1368: real time    2.1522
  RMM-DIIS:  cpu time    7.1261: real time    7.1498
    ORTHCH:  cpu time    0.3663: real time    0.3664
 BZINTS: Fermi energy:    0.638766;  395.000000 electrons
         Band energy:-0.117671E+04;  BLOECHL correction:   -0.102351
       DOS:  cpu time    0.0115: real time    0.0115
    --------------------------------------------
      LOOP:  cpu time    9.6407: real time    9.6799

 eigenvalue-minimisations  :  5417
 total energy-change (2. order) :-0.2231222E-04  (-0.2175773E-04)
 number of electron     395.0000049 magnetization 
 augmentation part      395.0000049 magnetization 

 Free energy of the ion-electron system (eV)
  ---------------------------------------------------
  alpha Z        PSCENC =       993.91764033
  Ewald energy   TEWEN  =     97861.25782146
  -Hartree energ DENC   =   -132490.95754585
  -exchange      EXHF   =         0.00000000
  -V(xc)+E(xc)   XCENC  =       547.77150602
  PAW double counting   =     36184.81856551   -35522.09671102
  entropy T*S    EENTRO =         0.00000000
  eigenvalues    EBANDS =     -1176.70645623
  atomic energy  EATOM  =     33490.55711431
  Solvation  Ediel_sol  =         0.00000000
  ---------------------------------------------------
  free energy    TOTEN  =      -111.43806548 eV

  energy without entropy =     -111.43806548  energy(sigma->0) =     -111.43806548


--------------------------------------------------------------------------------------------------------




--------------------------------------- Iteration      1(   9)  ---------------------------------------


    EDDIAG:  cpu time    2.1162: real time    2.1184
  RMM-DIIS:  cpu time    6.1941: real time    6.2236
    ORTHCH:  cpu time    0.3802: real time    0.3805
 BZINTS: Fermi energy:    0.638766;  395.000000 electrons
         Band energy:-0.117671E+04;  BLOECHL correction:   -0.102351
       DOS:  cpu time    0.0119: real time    0.0119
    --------------------------------------------
      LOOP:  cpu time    8.7025: real time    8.7344

 eigenvalue-minimisations  :  4314
 total energy-change (2. order) :-0.7411931E-05  (-0.7266153E-05)
 number of electron     395.0000049 magnetization 
 augmentation part      395.0000049 magnetization 

 Free energy of the ion-electron system (eV)
  ---------------------------------------------------
  alpha Z        PSCENC =       993.91764033
  Ewald energy   TEWEN  =     97861.25782146
  -Hartree energ DENC   =   -132490.95754585
  -exchange      EXHF   =         0.00000000
  -V(xc)+E(xc)   XCENC  =       547.77150602
  PAW double counting   =     36184.81856551   -35522.09671102
  entropy T*S    EENTRO =         0.00000000
  eigenvalues    EBANDS =     -1176.70646364
  atomic energy  EATOM  =     33490.55711431
  Solvation  Ediel_sol  =         0.00000000
  ---------------------------------------------------
  free energy    TOTEN  =      -111.43807289 eV

  energy without entropy =     -111.43807289  energy(sigma->0) =     -111.43807289


--------------------------------------------------------------------------------------------------------




 average (electrostatic) potential at core
  the test charge radii are     1.2098  0.9791
  (the norm of the test charge is              1.0000)
       1 -72.3700       2 -72.3530       3 -72.3529       4 -72.3530       5 -72.3619
       6 -72.3527       7 -72.3529       8 -72.3527       9 -72.3531      10 -72.7200
      11 -72.7035      12 -72.7197      13 -72.7035      14 -72.7031      15 -72.7126
      16 -72.7197      17 -72.7126      18 -72.7127      19 -72.6614      20 -72.7207
      21 -72.7204      22 -72.6874      23 -72.7204      24 -72.6871      25 -72.6614
      26 -72.6614      27 -72.6874      28 -72.2788      29 -72.2825      30 -72.2825
      31 -72.2825      32 -72.2822      33 -72.2825      34 -72.2822      35 -72.2676
      36 -89.7647
 
 
 
 E-fermi :   0.6388     XC(G=0):  -6.0508     alpha+bet : -5.6858

 Fermi energy:         0.6387661006

 k-point     1 :       0.0000    0.0000    0.0000
  band No.  band energies     occupation 
      1      -8.1535      2.00000
      2      -6.9609      2.00000
      3      -6.0203      2.00000
      4      -5.9979      2.00000
      5      -5.9938      2.00000
      6      -5.9937      2.00000
      7      -5.9873      2.00000
      8      -5.9707      2.00000
      9      -5.9707      2.00000
     10      -5.8270      2.00000
     11      -5.5121      2.00000
     12      -5.5013      2.00000
     13      -5.5013      2.00000
     14      -5.4852      2.00000
     15      -5.4822      2.00000
     16      -5.4822      2.00000
     17      -5.1212      2.00000
     18      -5.1212      2.00000
     19      -5.1118      2.00000
     20      -5.0948      2.00000
     21      -5.0830      2.00000
     22      -5.0830      2.00000
     23      -4.9462      2.00000
     24      -4.9461      2.00000
     25      -4.9395      2.00000
     26      -4.9123      2.00000
     27      -4.9117      2.00000
     28      -4.9116      2.00000
     29      -4.7860      2.00000
     30      -4.7860      2.00000
     31      -4.7636      2.00000
     32      -4.7636      2.00000
     33      -4.7580      2.00000
     34      -4.7389      2.00000
     35      -4.7379      2.00000
     36      -4.7379      2.00000
     37      -4.7378      2.00000
     38      -4.6002      2.00000
     39      -4.5512      2.00000
     40      -4.5512      2.00000
     41      -4.2762      2.00000
     42      -4.2761      2.00000
     43      -4.2305      2.00000
     44      -4.2138      2.00000
     45      -4.2137      2.00000
     46      -4.1902      2.00000
     47      -4.1869      2.00000
     48      -4.1868      2.00000
     49      -4.1258      2.00000
     50      -4.1257      2.00000
     51      -4.1241      2.00000
     52      -4.1156      2.00000
     53      -4.0722      2.00000
     54      -4.0380      2.00000
     55      -3.6862      2.00000
     56      -3.6782      2.00000
     57      -3.6564      2.00000
     58      -3.6563      2.00000
     59      -3.6478      2.00000
     60      -3.6383      2.00000
     61      -3.6383      2.00000
     62      -3.6123      2.00000
     63      -3.6123      2.00000
     64      -3.5574      2.00000
     65      -3.5574      2.00000
     66      -3.5028      2.00000
     67      -3.5028      2.00000
     68      -3.4977      2.00000
     69      -3.4425      2.00000
     70      -3.4390      2.00000
     71      -3.4390      2.00000
     72      -3.4215      2.00000
     73      -3.4130      2.00000
     74      -3.4129      2.00000
     75      -3.4019      2.00000
     76      -3.4018      2.00000
     77      -3.4017      2.00000
     78      -3.3816      2.00000
     79      -3.3816      2.00000
     80      -3.3443      2.00000
     81      -3.3442      2.00000
     82      -3.3250      2.00000
     83      -3.2937      2.00000
     84      -3.2936      2.00000
     85      -3.2906      2.00000
     86      -3.2563      2.00000
     87      -3.2562      2.00000
     88      -3.1836      2.00000
     89      -3.1836      2.00000
     90      -3.1804      2.00000
     91      -3.0000      2.00000
     92      -3.0000      2.00000
     93      -2.9963      2.00000
     94      -2.9963      2.00000
     95      -2.9841      2.00000
     96      -2.9840      2.00000
     97      -2.8434      2.00000
     98      -2.8434      2.00000
     99      -2.8109      2.00000
    100      -2.8109      2.00000
    101      -2.8102      2.00000
    102      -2.7582      2.00000
    103      -2.7413      2.00000
    104      -2.7413      2.00000
    105      -2.6179      2.00000
    106      -2.5947      2.00000
    107      -2.5947      2.00000
    108      -2.5824      2.00000
    109      -2.5805      2.00000
    110      -2.5767      2.00000
    111      -2.5767      2.00000
    112      -2.4909      2.00000
    113      -2.4871      2.00000
    114      -2.4679      2.00000
    115      -2.4678      2.00000
    116      -2.3433      2.00000
    117      -2.3054      2.00000
    118      -2.3054      2.00000
    119      -2.2880      2.00000
    120      -2.2880      2.00000
    121      -2.2737      2.00000
    122      -2.2400      2.00000
    123      -2.2400      2.00000
    124      -2.2066      2.00000
    125      -2.2066      2.00000
    126      -2.1450      2.00000
    127      -2.1449      2.00000
    128      -2.0531      2.00000
    129      -2.0531      2.00000
    130      -2.0460      2.00000
    131      -2.0391      2.00000
    132      -2.0323      2.00000
    133      -2.0323      2.00000
    134      -2.0124      2.00000
    135      -2.0117      2.00000
    136      -2.0116      2.00000
    137      -1.9517      2.00000
    138      -1.9516      2.00000
    139      -1.8950      2.00000
    140      -1.8691      2.00000
    141      -1.8691      2.00000
    142      -1.7878      2.00000
    143      -1.7767      2.00000
    144      -1.7767      2.00000
    145      -1.7614      2.00000
    146      -1.7614      2.00000
    147      -1.7541      2.00000
    148      -1.7540      2.00000
    149      -1.7395      2.00000
    150      -1.7291      2.00000
    151      -1.7129      2.00000
    152      -1.7129      2.00000
    153      -1.7065      2.00000
    154      -1.5949      2.00000
    155      -1.5801      2.00000
    156      -1.5780      2.00000
    157      -1.5780      2.00000
    158      -1.5715      2.00000
    159      -1.5579      2.00000
    160      -1.5543      2.00000
    161      -1.5543      2.00000
    162      -1.5120      2.00000
    163      -1.5120      2.00000
    164      -1.5044      2.00000
    165      -1.5044      2.00000
    166      -1.4961      2.00000
    167      -1.4961      2.00000
    168      -1.4699      2.00000
    169      -1.4699      2.00000
    170      -1.4599      2.00000
    171      -1.4550      2.00000
    172      -1.4539      2.00000
    173      -1.4539      2.00000
    174      -1.4514      2.00000
    175      -1.4153      2.00000
    176      -1.3903      2.00000
    177      -1.3903      2.00000
    178      -1.3849      2.00000
    179      -1.3738      2.00000
    180      -1.3595      2.00000
    181      -1.3595      2.00000
    182      -1.3214      2.00000
    183      -1.2778      2.00000
    184      -1.2777      2.00000
    185      -1.1958      2.00000
    186      -1.1958      2.00000
    187      -1.1531      2.00000
    188      -1.1531      2.00000
    189      -1.1271      2.00000
    190      -1.1107      2.00000
    191      -0.3328      2.00000
    192      -0.1072      2.00000
    193      -0.0383      2.00000
    194      -0.0382      2.00000
    195       0.0840      2.00000
    196       0.0841      2.00000
    197       0.1276      2.00000
    198       0.2038      2.00000
    199       0.2038      2.00000
    200       0.3182      2.00000
    201       0.3182      2.00000
    202       0.5201      1.35184
    203       1.0859      0.00000
    204       2.2643      0.00000
    205       2.3038      0.00000
    206       2.3039      0.00000
    207       2.3354      0.00000
    208       2.3354      0.00000
    209       2.3902      0.00000
    210       3.4384      0.00000
    211       3.4385      0.00000
    212       3.4581      0.00000
    213       3.4581      0.00000
    214       3.5353      0.00000
    215       3.5903      0.00000
    216       4.1431      0.00000
    217       4.3236      0.00000
    218       5.2512      0.00000
    219       5.2694      0.00000
    220       5.2694      0.00000
    221       5.3208      0.00000
    222       5.3714      0.00000
    223       5.3714      0.00000
    224       5.3965      0.00000
    225       5.3965      0.00000
    226       5.4449      0.00000
    227       5.4449      0.00000
    228       5.4523      0.00000
    229       5.6253      0.00000
    230       6.1568      0.00000
    231       6.1818      0.00000
    232       6.9088      0.00000
    233       6.9444      0.00000
    234       6.9445      0.00000
    235       6.9729      0.00000
    236       7.0032      0.00000
    237       7.0033      0.00000
    238       7.0470      0.00000
    239       7.0801      0.00000
    240       7.0802      0.00000
    241       7.1007      0.00000
    242       7.1277      0.00000
    243       7.1279      0.00000
    244       7.3754      0.00000
    245       7.3756      0.00000
    246       7.3833      0.00000
    247       7.4070      0.00000
    248       7.4076      0.00000
    249       7.4998      0.00000
    250       7.7939      0.00000
    251       7.8432      0.00000
    252       8.0053      0.00000

 k-point     2 :       0.1250   -0.0000    0.0000
  band No.  band energies     occupation 
      1      -8.1026      2.00000
      2      -6.9112      2.00000
      3      -6.2410      2.00000
      4      -6.0652      2.00000
      5      -6.0589      2.00000
      6      -5.9717      2.00000
      7      -5.8774      2.00000
      8      -5.8676      2.00000
      9      -5.8536      2.00000
     10      -5.7829      2.00000
     11      -5.5377      2.00000
     12      -5.5181      2.00000
     13      -5.4829      2.00000
     14      -5.4771      2.00000
     15      -5.4582      2.00000
     16      -5.4580      2.00000
     17      -5.1727      2.00000
     18      -5.1170      2.00000
     19      -5.1166      2.00000
     20      -5.0745      2.00000
     21      -5.0590      2.00000
     22      -5.0570      2.00000
     23      -5.0033      2.00000
     24      -4.9518      2.00000
     25      -4.9508      2.00000
     26      -4.9019      2.00000
     27      -4.8857      2.00000
     28      -4.8463      2.00000
     29      -4.8411      2.00000
     30      -4.8312      2.00000
     31      -4.8170      2.00000
     32      -4.8122      2.00000
     33      -4.7369      2.00000
     34      -4.7118      2.00000
     35      -4.7069      2.00000
     36      -4.6461      2.00000
     37      -4.6304      2.00000
     38      -4.5637      2.00000
     39      -4.5379      2.00000
     40      -4.5281      2.00000
     41      -4.3453      2.00000
     42      -4.3399      2.00000
     43      -4.2839      2.00000
     44      -4.2530      2.00000
     45      -4.2465      2.00000
     46      -4.2376      2.00000
     47      -4.2158      2.00000
     48      -4.1449      2.00000
     49      -4.1089      2.00000
     50      -4.0845      2.00000
     51      -4.0742      2.00000
     52      -4.0573      2.00000
     53      -4.0516      2.00000
     54      -4.0312      2.00000
     55      -3.7381      2.00000
     56      -3.7052      2.00000
     57      -3.6955      2.00000
     58      -3.6883      2.00000
     59      -3.6857      2.00000
     60      -3.6709      2.00000
     61      -3.6440      2.00000
     62      -3.6434      2.00000
     63      -3.6314      2.00000
     64      -3.5956      2.00000
     65      -3.5887      2.00000
     66      -3.5770      2.00000
     67      -3.5650      2.00000
     68      -3.5339      2.00000
     69      -3.5266      2.00000
     70      -3.5220      2.00000
     71      -3.4823      2.00000
     72      -3.4501      2.00000
     73      -3.4463      2.00000
     74      -3.4411      2.00000
     75      -3.4288      2.00000
     76      -3.4041      2.00000
     77      -3.3680      2.00000
     78      -3.3646      2.00000
     79      -3.3523      2.00000
     80      -3.3273      2.00000
     81      -3.3164      2.00000
     82      -3.2784      2.00000
     83      -3.2700      2.00000
     84      -3.2638      2.00000
     85      -3.2493      2.00000
     86      -3.2120      2.00000
     87      -3.2070      2.00000
     88      -3.1880      2.00000
     89      -3.1554      2.00000
     90      -3.1068      2.00000
     91      -3.1036      2.00000
     92      -3.0995      2.00000
     93      -3.0026      2.00000
     94      -2.9926      2.00000
     95      -2.9244      2.00000
     96      -2.9130      2.00000
     97      -2.8883      2.00000
     98      -2.8577      2.00000
     99      -2.8530      2.00000
    100      -2.8350      2.00000
    101      -2.7989      2.00000
    102      -2.7854      2.00000
    103      -2.7690      2.00000
    104      -2.6956      2.00000
    105      -2.6694      2.00000
    106      -2.6646      2.00000
    107      -2.6238      2.00000
    108      -2.6159      2.00000
    109      -2.6089      2.00000
    110      -2.6037      2.00000
    111      -2.5841      2.00000
    112      -2.5802      2.00000
    113      -2.5473      2.00000
    114      -2.5416      2.00000
    115      -2.5203      2.00000
    116      -2.5017      2.00000
    117      -2.4446      2.00000
    118      -2.4386      2.00000
    119      -2.4053      2.00000
    120      -2.3177      2.00000
    121      -2.2889      2.00000
    122      -2.2824      2.00000
    123      -2.2480      2.00000
    124      -2.2333      2.00000
    125      -2.2129      2.00000
    126      -2.2018      2.00000
    127      -2.1833      2.00000
    128      -2.1715      2.00000
    129      -2.1672      2.00000
    130      -2.1210      2.00000
    131      -2.0913      2.00000
    132      -2.0911      2.00000
    133      -2.0678      2.00000
    134      -2.0305      2.00000
    135      -2.0119      2.00000
    136      -1.9932      2.00000
    137      -1.9613      2.00000
    138      -1.9556      2.00000
    139      -1.9279      2.00000
    140      -1.9275      2.00000
    141      -1.8839      2.00000
    142      -1.8633      2.00000
    143      -1.8387      2.00000
    144      -1.8109      2.00000
    145      -1.7645      2.00000
    146      -1.7616      2.00000
    147      -1.7418      2.00000
    148      -1.7166      2.00000
    149      -1.7150      2.00000
    150      -1.6909      2.00000
    151      -1.6831      2.00000
    152      -1.6677      2.00000
    153      -1.6209      2.00000
    154      -1.6033      2.00000
    155      -1.5863      2.00000
    156      -1.5711      2.00000
    157      -1.5664      2.00000
    158      -1.5594      2.00000
    159      -1.5444      2.00000
    160      -1.5339      2.00000
    161      -1.5179      2.00000
    162      -1.5125      2.00000
    163      -1.4978      2.00000
    164      -1.4886      2.00000
    165      -1.4798      2.00000
    166      -1.4756      2.00000
    167      -1.4554      2.00000
    168      -1.4377      2.00000
    169      -1.4326      2.00000
    170      -1.4034      2.00000
    171      -1.4010      2.00000
    172      -1.3701      2.00000
    173      -1.3561      2.00000
    174      -1.3322      2.00000
    175      -1.3261      2.00000
    176      -1.3005      2.00000
    177      -1.2737      2.00000
    178      -1.2418      2.00000
    179      -1.2333      2.00000
    180      -1.2287      2.00000
    181      -1.2106      2.00000
    182      -1.1952      2.00000
    183      -1.1730      2.00000
    184      -1.1625      2.00000
    185      -1.1493      2.00000
    186      -1.1207      2.00000
    187      -1.0936      2.00000
    188      -1.0155      2.00000
    189      -1.0014      2.00000
    190      -0.9253      2.00000
    191      -0.3051      2.00000
    192      -0.2371      2.00000
    193      -0.1193      2.00000
    194      -0.0923      2.00000
    195       0.0731      2.00000
    196       0.1146      2.00000
    197       0.1644      2.00000
    198       0.1994      2.00000
    199       0.2715      2.00000
    200       0.5234      1.82733
    201       0.5603      1.15212
    202       0.7806     -0.01768
    203       1.2362      0.00000
    204       1.8496      0.00000
    205       2.1127      0.00000
    206       2.1154      0.00000
    207       2.6233      0.00000
    208       2.6287      0.00000
    209       2.7702      0.00000
    210       2.7960      0.00000
    211       2.9034      0.00000
    212       3.5160      0.00000
    213       3.5199      0.00000
    214       3.7681      0.00000
    215       3.8545      0.00000
    216       4.1388      0.00000
    217       4.2425      0.00000
    218       4.7738      0.00000
    219       4.9904      0.00000
    220       5.0120      0.00000
    221       5.1244      0.00000
    222       5.1516      0.00000
    223       5.2816      0.00000
    224       5.3333      0.00000
    225       5.5404      0.00000
    226       5.5415      0.00000
    227       5.6525      0.00000
    228       5.6666      0.00000
    229       5.6844      0.00000
    230       6.1124      0.00000
    231       6.2562      0.00000
    232       6.2746      0.00000
    233       6.5358      0.00000
    234       6.5738      0.00000
    235       6.6671      0.00000
    236       6.6788      0.00000
    237       6.7374      0.00000
    238       6.9391      0.00000
    239       6.9673      0.00000
    240       6.9991      0.00000
    241       7.0154      0.00000
    242       7.0886      0.00000
    243       7.3785      0.00000
    244       7.3910      0.00000
    245       7.4421      0.00000
    246       7.4825      0.00000
    247       7.6106      0.00000
    248       7.7186      0.00000
    249       7.7470      0.00000
    250       7.8651      0.00000
    251       7.9073      0.00000
    252       7.9137      0.00000

 k-point     3 :       0.2500   -0.0000    0.0000
  band No.  band energies     occupation 
      1      -7.9517      2.00000
      2      -6.7653      2.00000
      3      -6.6003      2.00000
      4      -6.1073      2.00000
      5      -6.1014      2.00000
      6      -5.8352      2.00000
      7      -5.8108      2.00000
      8      -5.7230      2.00000
      9      -5.7173      2.00000
     10      -5.6858      2.00000
     11      -5.6390      2.00000
     12      -5.5810      2.00000
     13      -5.4151      2.00000
     14      -5.4116      2.00000
     15      -5.3951      2.00000
     16      -5.3914      2.00000
     17      -5.2593      2.00000
     18      -5.1114      2.00000
     19      -5.1094      2.00000
     20      -5.0769      2.00000
     21      -5.0365      2.00000
     22      -5.0227      2.00000
     23      -5.0088      2.00000
     24      -4.9728      2.00000
     25      -4.9693      2.00000
     26      -4.9591      2.00000
     27      -4.9474      2.00000
     28      -4.8994      2.00000
     29      -4.8909      2.00000
     30      -4.8353      2.00000
     31      -4.7322      2.00000
     32      -4.7240      2.00000
     33      -4.6805      2.00000
     34      -4.6342      2.00000
     35      -4.6291      2.00000
     36      -4.6264      2.00000
     37      -4.6141      2.00000
     38      -4.4795      2.00000
     39      -4.4633      2.00000
     40      -4.4577      2.00000
     41      -4.4404      2.00000
     42      -4.4393      2.00000
     43      -4.3427      2.00000
     44      -4.2929      2.00000
     45      -4.2847      2.00000
     46      -4.2581      2.00000
     47      -4.2387      2.00000
     48      -4.1227      2.00000
     49      -4.0918      2.00000
     50      -4.0790      2.00000
     51      -4.0728      2.00000
     52      -4.0240      2.00000
     53      -4.0159      2.00000
     54      -4.0026      2.00000
     55      -3.9397      2.00000
     56      -3.8879      2.00000
     57      -3.8860      2.00000
     58      -3.7945      2.00000
     59      -3.7640      2.00000
     60      -3.7457      2.00000
     61      -3.7369      2.00000
     62      -3.7157      2.00000
     63      -3.6776      2.00000
     64      -3.6479      2.00000
     65      -3.6254      2.00000
     66      -3.5832      2.00000
     67      -3.5801      2.00000
     68      -3.5505      2.00000
     69      -3.5132      2.00000
     70      -3.5109      2.00000
     71      -3.4899      2.00000
     72      -3.4875      2.00000
     73      -3.4640      2.00000
     74      -3.4474      2.00000
     75      -3.4320      2.00000
     76      -3.4026      2.00000
     77      -3.3722      2.00000
[...]
  0.000   0.000   0.000   2.000   0.000   0.000   0.000   0.000   0.000   0.000   0.000   0.000   0.000   0.000   0.000   0.000
  0.000   0.000   0.000   0.000   2.000   0.000   0.000   0.000   0.000   0.000   0.000   0.000   0.000   0.000   0.000   0.000
  0.000   0.000   0.000   0.000   0.000   0.000   0.000   0.000   0.000   0.000   0.000   0.000   0.000   0.000   0.000   0.000
  0.000   0.000   0.000   0.000   0.000   0.000   0.000   0.000   0.000   0.000   0.000   0.000   0.000   0.000   0.000   0.000
  0.000   0.000   0.000   0.000   0.000   0.000   0.000   0.000   0.000   0.000   0.000   0.000   0.000   0.000   0.000   0.000
  0.000   0.000   0.000   0.000   0.000   0.000   0.000   0.000   0.000   0.000   0.000   0.000   0.000   0.000   0.000   0.000
  0.000   0.000   0.000   0.000   0.000   0.000   0.000   0.000   0.000   0.000   0.000   0.000   0.000   0.000   0.000   0.000
  0.000   0.000   0.000   0.000   0.000   0.000   0.000   0.000   0.000   0.000   1.000   0.000   0.000   0.000   0.000   0.000
  0.000   0.000   0.000   0.000   0.000   0.000   0.000   0.000   0.000   0.000   0.000   0.000   0.000   0.000   0.000   0.000
  0.000   0.000   0.000   0.000   0.000   0.000   0.000   0.000   0.000   0.000   0.000   0.000   0.000   0.000   0.000   0.000
  0.000   0.000   0.000   0.000   0.000   0.000   0.000   0.000   0.000   0.000   0.000   0.000   0.000   0.000   0.000   0.000
  0.000   0.000   0.000   0.000   0.000   0.000   0.000   0.000   0.000   0.000   0.000   0.000   0.000   0.000   0.000   0.000
  0.000   0.000   0.000   0.000   0.000   0.000   0.000   0.000   0.000   0.000   0.000   0.000   0.000   0.000   0.000   0.000
  0.000   0.000   0.000   0.000   0.000   0.000   0.000   0.000   0.000   0.000   0.000   0.000   0.000   0.000   0.000   0.000
  0.000   0.000   0.000   0.000   0.000   0.000   0.000   0.000   0.000   0.000   0.000   0.000   0.000   0.000   0.000   0.000


------------------------ aborting loop because EDIFF is reached ----------------------------------------





 total charge

# of ion       s       p       d       tot
------------------------------------------
    1        0.544   0.240   8.767   9.551
    2        0.545   0.240   8.766   9.550
    3        0.545   0.240   8.766   9.550
    4        0.545   0.240   8.766   9.550
    5        0.541   0.241   8.764   9.546
    6        0.545   0.240   8.766   9.550
    7        0.545   0.240   8.766   9.550
    8        0.545   0.240   8.766   9.550
    9        0.545   0.239   8.767   9.551
   10        0.520   0.308   8.770   9.598
   11        0.520   0.307   8.777   9.604
   12        0.520   0.308   8.770   9.598
   13        0.520   0.307   8.777   9.604
   14        0.520   0.307   8.777   9.604
   15        0.518   0.308   8.775   9.601
   16        0.520   0.308   8.770   9.598
   17        0.518   0.308   8.775   9.601
   18        0.518   0.308   8.775   9.601
   19        0.517   0.302   8.776   9.595
   20        0.534   0.322   8.760   9.617
   21        0.534   0.322   8.760   9.617
   22        0.513   0.309   8.773   9.595
   23        0.534   0.322   8.760   9.617
   24        0.513   0.309   8.773   9.595
   25        0.517   0.302   8.776   9.595
   26        0.517   0.302   8.776   9.595
   27        0.513   0.309   8.773   9.595
   28        0.539   0.225   8.767   9.531
   29        0.551   0.233   8.761   9.546
   30        0.551   0.233   8.761   9.546
   31        0.551   0.233   8.761   9.546
   32        0.551   0.233   8.761   9.546
   33        0.551   0.233   8.761   9.546
   34        0.551   0.233   8.761   9.546
   35        0.538   0.225   8.768   9.532
   36        0.335   0.229   8.373   8.937
--------------------------------------------------
tot         18.984   9.809 315.265 344.057
 
    CHARGE:  cpu time    0.5956: real time    0.6148
    FORLOC:  cpu time    0.0118: real time    0.0118
    FORNL :  cpu time    2.2165: real time    2.2411
    STRESS:  cpu time    7.2199: real time    7.2281
    FORCOR:  cpu time    0.0599: real time    0.0602
    FORHAR:  cpu time    0.0218: real time    0.0219
    OFIELD:  cpu time    0.0005: real time    0.0005

  FORCE on cell =-STRESS in cart. coord.  units (eV):
  Direction    XX          YY          ZZ          XY          YZ          ZX
  --------------------------------------------------------------------------------------
  Alpha Z   993.91764   993.91764   993.91764
  Ewald  120672.42805120672.42847************    -0.00033    -0.00009    -0.00016
  Hartree129429.94383129429.94384************     0.00000    -0.00002    -0.00004
  E(xc)   -1782.59471 -1782.59469 -1789.61139    -0.00002    -0.00000    -0.00000
  Local  ************************262646.70044     0.00195     0.00004     0.00008
  n-local   -96.88593   -43.43156   -46.95523    23.61105    -1.37670     1.76458
  augment  2543.86886  2543.87059  2558.78855    -0.00150     0.00002     0.00003
  Kinetic  5417.33526  5431.02270  5474.65572     5.57948    -0.18750     0.73388
  Fock        0.00000     0.00000     0.00000     0.00000     0.00000     0.00000
  -------------------------------------------------------------------------------------
  Total     -22.00197   -22.00197     1.96327    -0.00000     0.00000    -0.00000
  in kB     -23.60830   -23.60830     2.10660    -0.00000     0.00000    -0.00000
  external pressure =      -15.04 kB  Pullay stress =        0.00 kB


 VOLUME and BASIS-vectors are now :
 -----------------------------------------------------------------------------
  energy-cutoff  :      500.00
  volume of cell :     1493.16
      direct lattice vectors                 reciprocal lattice vectors
     8.813512802  0.000000000  0.000000000     0.113462137 -0.065507406  0.000000000
     4.406756909  7.632725690  0.000000000     0.000000000  0.131014796  0.000000000
     0.000000000  0.000000000 22.196203232     0.000000000  0.000000000  0.045052750

  length of vectors
     8.813512802  8.813512802 22.196203232     0.131014796  0.131014796  0.045052750


 FORCES acting on ions
    electron-ion (+dipol)            ewald-force                    non-local-force                 convergence-correction
 -----------------------------------------------------------------------------------------------
   -.198E-04 -.163E-04 0.249E+04   0.519E-04 0.434E-04 -.248E+04   0.419E-17 -.403E-17 -.629E+00   -.260E-03 -.164E-03 -.328E+00
   0.422E+00 0.430E+00 0.249E+04   -.480E+00 -.394E+00 -.249E+04   0.148E-01 -.968E-02 -.346E+00   0.394E-01 -.269E-01 -.341E+00
   -.423E+00 0.430E+00 0.249E+04   0.480E+00 -.394E+00 -.249E+04   -.148E-01 -.968E-02 -.346E+00   -.391E-01 -.249E-01 -.341E+00
   0.584E+00 0.151E+00 0.249E+04   -.581E+00 -.219E+00 -.249E+04   -.969E-03 0.177E-01 -.346E+00   -.349E-02 0.475E-01 -.341E+00
   0.752E-05 -.238E-04 0.249E+04   0.951E-04 0.172E-05 -.249E+04   0.190E-17 -.162E-17 -.357E+00   0.434E-02 0.264E-02 -.379E+00
   -.584E+00 0.151E+00 0.249E+04   0.581E+00 -.219E+00 -.249E+04   0.969E-03 0.177E-01 -.346E+00   0.189E-02 0.484E-01 -.340E+00
   0.162E+00 -.581E+00 0.249E+04   -.101E+00 0.613E+00 -.249E+04   -.158E-01 -.800E-02 -.346E+00   -.410E-01 -.214E-01 -.341E+00
   -.162E+00 -.581E+00 0.249E+04   0.101E+00 0.613E+00 -.249E+04   0.158E-01 -.800E-02 -.346E+00   0.429E-01 -.226E-01 -.340E+00
   0.198E-04 -.416E-04 0.249E+04   0.166E-03 -.201E-04 -.249E+04   0.384E-17 -.470E-17 -.403E+00   -.462E-02 -.239E-02 -.323E+00
   0.372E+01 0.215E+01 0.828E+03   -.352E+01 -.203E+01 -.827E+03   -.129E+00 -.746E-01 -.539E+00   -.421E-01 -.244E-01 0.324E-01
   0.149E-04 0.504E+01 0.835E+03   0.147E-03 -.502E+01 -.835E+03   0.248E-09 0.373E-02 -.387E+00   0.416E-02 -.388E-01 0.603E-01
   -.372E+01 0.215E+01 0.828E+03   0.352E+01 -.203E+01 -.827E+03   0.129E+00 -.746E-01 -.539E+00   0.405E-01 -.229E-01 0.329E-01
   0.436E+01 -.252E+01 0.835E+03   -.435E+01 0.251E+01 -.835E+03   0.323E-02 -.186E-02 -.387E+00   -.312E-01 0.233E-01 0.603E-01
   -.436E+01 -.252E+01 0.835E+03   0.434E+01 0.251E+01 -.835E+03   -.323E-02 -.186E-02 -.387E+00   0.392E-01 0.225E-01 0.605E-01
   0.312E-04 0.193E+01 0.829E+03   0.236E-03 -.202E+01 -.828E+03   0.173E-08 0.260E-01 -.429E+00   -.261E-02 0.360E-01 0.595E-01
   -.216E-04 -.429E+01 0.828E+03   0.163E-03 0.406E+01 -.827E+03   0.993E-08 0.149E+00 -.539E+00   0.188E-03 0.465E-01 0.329E-01
   0.167E+01 -.967E+00 0.829E+03   -.175E+01 0.101E+01 -.828E+03   0.225E-01 -.130E-01 -.429E+00   0.301E-01 -.198E-01 0.595E-01
   -.168E+01 -.967E+00 0.829E+03   0.175E+01 0.101E+01 -.828E+03   -.225E-01 -.130E-01 -.429E+00   -.299E-01 -.175E-01 0.599E-01
   -.388E-04 0.161E+01 -.862E+03   0.536E-04 -.176E+01 0.862E+03   0.397E-08 0.596E-01 0.518E+00   -.457E-02 0.968E-01 0.276E+00
   0.320E+02 0.185E+02 -.821E+03   -.315E+02 -.182E+02 0.821E+03   -.571E+00 -.330E+00 -.483E+00   0.994E-01 0.573E-01 0.468E+00
   -.320E+02 0.185E+02 -.821E+03   0.315E+02 -.182E+02 0.821E+03   0.571E+00 -.330E+00 -.483E+00   -.970E-01 0.585E-01 0.468E+00
   0.859E+01 -.496E+01 -.851E+03   -.891E+01 0.514E+01 0.850E+03   0.240E+00 -.138E+00 0.511E+00   0.699E-01 -.432E-01 0.300E+00
   -.138E-04 -.369E+02 -.821E+03   0.144E-03 0.364E+02 0.821E+03   0.439E-07 0.659E+00 -.483E+00   0.190E-02 -.113E+00 0.468E+00
   -.859E+01 -.496E+01 -.851E+03   0.891E+01 0.514E+01 0.850E+03   -.240E+00 -.138E+00 0.511E+00   -.767E-01 -.442E-01 0.300E+00
   -.139E+01 -.803E+00 -.862E+03   0.153E+01 0.882E+00 0.862E+03   -.517E-01 -.298E-01 0.518E+00   -.867E-01 -.501E-01 0.275E+00
   0.139E+01 -.803E+00 -.862E+03   -.153E+01 0.881E+00 0.862E+03   0.517E-01 -.298E-01 0.518E+00   0.819E-01 -.523E-01 0.276E+00
   0.905E-05 0.992E+01 -.851E+03   0.198E-03 -.103E+02 0.850E+03   0.184E-07 0.277E+00 0.511E+00   -.298E-02 0.821E-01 0.300E+00
   -.905E-05 -.123E-04 -.251E+04   0.278E-04 0.323E-04 0.251E+04   0.199E-17 -.166E-18 0.628E+00   -.162E-03 -.110E-03 0.474E+00
   0.144E+02 0.222E+02 -.251E+04   -.140E+02 -.215E+02 0.251E+04   -.494E+00 -.769E+00 0.402E+00   0.954E-01 0.886E-01 0.355E+00
   -.144E+02 0.222E+02 -.251E+04   0.140E+02 -.215E+02 0.251E+04   0.494E+00 -.769E+00 0.402E+00   -.948E-01 0.905E-01 0.354E+00
   0.264E+02 0.138E+01 -.251E+04   -.256E+02 -.137E+01 0.251E+04   -.913E+00 -.434E-01 0.402E+00   0.125E+00 0.382E-01 0.355E+00
   -.264E+02 0.138E+01 -.251E+04   0.256E+02 -.137E+01 0.251E+04   0.913E+00 -.434E-01 0.402E+00   -.126E+00 0.390E-01 0.353E+00
   0.120E+02 -.235E+02 -.251E+04   -.116E+02 0.229E+02 0.251E+04   -.419E+00 0.813E+00 0.402E+00   0.310E-01 -.127E+00 0.354E+00
   -.120E+02 -.235E+02 -.251E+04   0.116E+02 0.229E+02 0.251E+04   0.419E+00 0.813E+00 0.402E+00   -.291E-01 -.128E+00 0.353E+00
   0.333E-04 -.310E-04 -.251E+04   0.145E-03 -.476E-04 0.251E+04   -.497E-18 0.172E-17 0.567E+00   -.457E-02 -.234E-02 0.376E+00
   -.409E-04 0.243E-05 -.219E+04   0.105E-03 0.985E-05 0.219E+04   0.302E-17 0.124E-17 0.209E+01   0.990E-02 0.605E-02 0.499E+00
 -----------------------------------------------------------------------------------------------
   -.780E-03 -.767E-03 -.323E+01   0.114E-12 -.100E-12 0.227E-11   -.530E-16 0.297E-17 -.194E+00   -.273E-03 0.693E-03 0.399E+01
 
 
 POSITION                                       TOTAL-FORCE (eV/Angst)
 -----------------------------------------------------------------------------------
      0.00000      0.00000      5.28038         0.000000      0.000000     -0.067373
      2.93784      0.00000      5.28038        -0.003186      0.001397     -0.063299
      5.87568      0.00000      5.28038         0.003186      0.001397     -0.063299
      1.46892      2.54424      5.28038        -0.000383     -0.003458     -0.063299
      4.40676      2.54424      5.28038         0.000000      0.000000     -0.082490
      7.34459      2.54424      5.28038         0.000383     -0.003458     -0.063299
      2.93784      5.08848      5.28038         0.002803      0.002061     -0.063299
      5.87568      5.08848      5.28038        -0.002803      0.002061     -0.063299
      8.81351      5.08848      5.28038        -0.000000      0.000000     -0.070970
      1.46892      0.84808      7.67911         0.029513      0.017039      0.098509
      4.40676      0.84808      7.67911        -0.000000     -0.014485      0.047197
      7.34459      0.84808      7.67911        -0.029513      0.017039      0.098509
      2.93784      3.39232      7.67911        -0.012544      0.007242      0.047197
      5.87568      3.39232      7.67911         0.012544      0.007242      0.047197
      8.81351      3.39232      7.67911        -0.000000     -0.023899      0.085668
      4.40676      5.93656      7.67911        -0.000000     -0.034078      0.098509
      7.34459      5.93656      7.67911        -0.020697      0.011950      0.085668
     10.28243      5.93656      7.67911         0.020697      0.011950      0.085668
      8.81351      1.69394     10.07055         0.000000      0.001505      0.010378
      2.94670      1.70128     10.05847         0.003645      0.002105      0.004313
      5.86681      1.70128     10.05847        -0.003645      0.002105      0.004313
     10.27376      4.24541     10.05945        -0.004827      0.002787     -0.000134
      4.40676      4.23017     10.05847        -0.000000     -0.004209      0.004313
      7.35327      4.24541     10.05945         0.004827      0.002787     -0.000134
     11.75328      6.78576     10.07055        -0.001304     -0.000753      0.010378
      5.87375      6.78576     10.07055         0.001304     -0.000753      0.010378
      8.81351      6.77463     10.05945        -0.000000     -0.005574     -0.000134
      0.00000      0.00000     12.48855         0.000000      0.000000     -0.022375
      2.97006      0.05170     12.45862         0.001372     -0.001949     -0.011062
      5.84345      0.05170     12.45862        -0.001372     -0.001949     -0.011062
      1.52981      2.54630     12.45862        -0.001002      0.002162     -0.011062
      7.28371      2.54630     12.45862         0.001002      0.002162     -0.011062
      2.96650      5.03473     12.45862        -0.002374     -0.000213     -0.011062
      5.84701      5.03473     12.45862         0.002374     -0.000213     -0.011062
      8.81351      5.08848     12.49203         0.000000      0.000000     -0.025123
      4.40676      2.54424     12.16149         0.000000      0.000000     -0.023299
 -----------------------------------------------------------------------------------
    total drift:                               -0.001052     -0.000074      0.571071


--------------------------------------------------------------------------------------------------------



  FREE ENERGIE OF THE ION-ELECTRON SYSTEM (eV)
  ---------------------------------------------------
  free  energy   TOTEN  =      -111.43807289 eV

  energy  without entropy=     -111.43807289  energy(sigma->0) =     -111.43807289
 


--------------------------------------------------------------------------------------------------------


    POTLOK:  cpu time    0.0714: real time    0.0714


--------------------------------------------------------------------------------------------------------


 stress matrix after NEB project (eV)
    -22.00197     -0.00000     -0.00000
     -0.00000    -22.00197     -0.00000
     -0.00000      0.00000      1.96327
  FORCES: max atom, RMS     0.025123    0.009091
  FORCE total and by dimension    0.054544    0.025123
  Stress total and by dimension   31.177355   22.001967
     LOOP+:  cpu time  110.2412: real time  111.0943
 -----------------------------------------------------------------------------
|                                                                             |
|           W    W    AA    RRRRR   N    N  II  N    N   GGGG   !!!           |
|           W    W   A  A   R    R  NN   N  II  NN   N  G    G  !!!           |
|           W    W  A    A  R    R  N N  N  II  N N  N  G       !!!           |
|           W WW W  AAAAAA  RRRRR   N  N N  II  N  N N  G  GGG   !            |
|           WW  WW  A    A  R   R   N   NN  II  N   NN  G    G                |
|           W    W  A    A  R    R  N    N  II  N    N   GGGG   !!!           |
|                                                                             |
|     Tetrahedron method does not include variations of the Fermi             |
|     occupations, so forces and stress will be inaccurate. We suggest        |
|     using a different smearing scheme ISMEAR = 1 or 2 for metals in         |
|     relaxations.                                                            |
|                                                                             |
 -----------------------------------------------------------------------------

    4ORBIT:  cpu time    0.0000: real time    0.0000



 total charge

# of ion       s       p       d       tot
------------------------------------------
    1        0.544   0.240   8.767   9.551
    2        0.545   0.240   8.766   9.550
    3        0.545   0.240   8.766   9.550
    4        0.545   0.240   8.766   9.550
    5        0.541   0.241   8.764   9.546
    6        0.545   0.240   8.766   9.550
    7        0.545   0.240   8.766   9.550
    8        0.545   0.240   8.766   9.550
    9        0.545   0.239   8.767   9.551
   10        0.520   0.308   8.770   9.598
   11        0.520   0.307   8.777   9.604
   12        0.520   0.308   8.770   9.598
   13        0.520   0.307   8.777   9.604
   14        0.520   0.307   8.777   9.604
   15        0.518   0.308   8.775   9.601
   16        0.520   0.308   8.770   9.598
   17        0.518   0.308   8.775   9.601
   18        0.518   0.308   8.775   9.601
   19        0.517   0.302   8.776   9.595
   20        0.534   0.322   8.760   9.617
   21        0.534   0.322   8.760   9.617
   22        0.513   0.309   8.773   9.595
   23        0.534   0.322   8.760   9.617
   24        0.513   0.309   8.773   9.595
   25        0.517   0.302   8.776   9.595
   26        0.517   0.302   8.776   9.595
   27        0.513   0.309   8.773   9.595
   28        0.539   0.225   8.767   9.531
   29        0.551   0.233   8.761   9.546
   30        0.551   0.233   8.761   9.546
   31        0.551   0.233   8.761   9.546
   32        0.551   0.233   8.761   9.546
   33        0.551   0.233   8.761   9.546
   34        0.551   0.233   8.761   9.546
   35        0.538   0.225   8.768   9.532
   36        0.335   0.229   8.373   8.937
--------------------------------------------------
tot         18.984   9.809 315.265 344.057
 
 BZINTS: Fermi energy:    0.638766;  395.000000 electrons
         Band energy:-0.117671E+04;  BLOECHL correction:   -0.102351

 total amount of memory used by VASP MPI-rank0   120973. kBytes
=======================================================================

   base      :      30000. kBytes
   nonlr-proj:      13385. kBytes
   fftplans  :       4330. kBytes
   grid      :      17098. kBytes
   one-center:        559. kBytes
   wavefun   :      55601. kBytes
 
  
  
 General timing and accounting informations for this job:
 ========================================================
  
                  Total CPU time used (sec):      119.017
                            User time (sec):      115.268
                          System time (sec):        3.749
                         Elapsed time (sec):      120.424
  
                   Maximum memory used (kb):      377612.
                   Average memory used (kb):          N/A
  
                          Minor page faults:        68668
                          Major page faults:            0
                 Voluntary context switches:         5978
