PROCAR new format
# of k-points:   10         # of bands:  252         # of ions:   36

 k-point     1 :    0.00000000 0.00000000 0.00000000     weight = 0.01562500

band     1 # energy   -8.15353924 # occ.  2.00000000
 
ion      s      p      d    tot
    1  0.007  0.001  0.000  0.007
    2  0.007  0.001  0.000  0.007
    3  0.007  0.001  0.000  0.007
    4  0.007  0.001  0.000  0.007
    5  0.007  0.001  0.000  0.007
    6  0.007  0.001  0.000  0.007
    7  0.007  0.001  0.000  0.007
    8  0.007  0.001  0.000  0.007
    9  0.007  0.001  0.000  0.007
   10  0.027  0.000  0.000  0.027
   11  0.027  0.000  0.000  0.028
   12  0.027  0.000  0.000  0.027
   13  0.027  0.000  0.000  0.028
   14  0.027  0.000  0.000  0.028
   15  0.027  0.000  0.000  0.027
   16  0.027  0.000  0.000  0.027
   17  0.027  0.000  0.000  0.027
   18  0.027  0.000  0.000  0.027
   19  0.024  0.000  0.000  0.024
   20  0.025  0.000  0.000  0.025
   21  0.025  0.000  0.000  0.025
   22  0.025  0.000  0.000  0.025
   23  0.025  0.000  0.000  0.025
   24  0.025  0.000  0.000  0.025
   25  0.024  0.000  0.000  0.024
   26  0.024  0.000  0.000  0.024
   27  0.025  0.000  0.000  0.025
   28  0.005  0.000  0.000  0.005
   29  0.005  0.000  0.000  0.005
   30  0.005  0.000  0.000  0.005
   31  0.005  0.000  0.000  0.005
   32  0.005  0.000  0.000  0.005
   33  0.005  0.000  0.000  0.005
   34  0.005  0.000  0.000  0.005
   35  0.005  0.000  0.000  0.005
   36  0.004  0.001  0.000  0.004
tot    0.565  0.012  0.003  0.581
 
band     2 # energy   -6.96089855 # occ.  2.00000000
 
ion      s      p      d    tot
    1  0.017  0.000  0.001  0.018
    2  0.017  0.000  0.001  0.018
    3  0.017  0.000  0.001  0.018
    4  0.017  0.000  0.001  0.018
    5  0.017  0.000  0.001  0.018
    6  0.017  0.000  0.001  0.018
    7  0.017  0.000  0.001  0.018
    8  0.017  0.000  0.001  0.018
    9  0.017  0.000  0.001  0.018
   10  0.010  0.002  0.003  0.015
   11  0.010  0.002  0.003  0.014
   12  0.010  0.002  0.003  0.015
   13  0.010  0.002  0.003  0.014
   14  0.010  0.002  0.003  0.014
   15  0.010  0.002  0.003  0.014
   16  0.010  0.002  0.003  0.015
   17  0.010  0.002  0.003  0.014
   18  0.010  0.002  0.003  0.014
   19  0.015  0.001  0.004  0.020
   20  0.015  0.001  0.004  0.020
   21  0.015  0.001  0.004  0.020
   22  0.016  0.001  0.004  0.020
   23  0.015  0.001  0.004  0.020
   24  0.016  0.001  0.004  0.020
   25  0.015  0.001  0.004  0.020
   26  0.015  0.001  0.004  0.020
   27  0.016  0.001  0.004  0.020
   28  0.014  0.001  0.000  0.015
   29  0.013  0.001  0.000  0.014
   30  0.013  0.001  0.000  0.014
   31  0.013  0.001  0.000  0.014
   32  0.013  0.001  0.000  0.014
   33  0.013  0.001  0.000  0.014
   34  0.013  0.001  0.000  0.014
   35  0.014  0.001  0.000  0.015
   36  0.008  0.000  0.000  0.008
tot    0.493  0.032  0.071  0.597
 
band     3 # energy   -6.02026650 # occ.  2.00000000
 
ion      s      p      d    tot
    1  0.018  0.000  0.022  0.040
    2  0.020  0.000  0.020  0.040
    3  0.020  0.000  0.020  0.040
    4  0.020  0.000  0.020  0.040
    5  0.015  0.000  0.020  0.035
    6  0.020  0.000  0.020  0.040
    7  0.020  0.000  0.020  0.040
    8  0.020  0.000  0.020  0.040
    9  0.029  0.000  0.017  0.046
   10  0.009  0.001  0.024  0.034
   11  0.014  0.001  0.021  0.037
   12  0.009  0.001  0.024  0.034
   13  0.014  0.001  0.021  0.037
   14  0.014  0.001  0.021  0.037
   15  0.002  0.000  0.027  0.030
   16  0.009  0.001  0.024  0.034
   17  0.002  0.000  0.027  0.030
   18  0.002  0.000  0.027  0.030
   19  0.001  0.000  0.003  0.004
   20  0.001  0.001  0.004  0.006
   21  0.001  0.001  0.004  0.006
   22  0.001  0.000  0.002  0.004
   23  0.001  0.001  0.004  0.006
   24  0.001  0.000  0.002  0.004
   25  0.001  0.000  0.003  0.004
   26  0.001  0.000  0.003  0.004
   27  0.001  0.000  0.002  0.004
   28  0.003  0.000  0.000  0.003
   29  0.001  0.000  0.001  0.002
   30  0.001  0.000  0.001  0.002
   31  0.001  0.000  0.001  0.002
   32  0.001  0.000  0.001  0.002
   33  0.001  0.000  0.001  0.002
   34  0.001  0.000  0.001  0.002
   35  0.002  0.000  0.000  0.002
   36  0.000  0.000  0.000  0.000
tot    0.281  0.012  0.427  0.721
 
band     4 # energy   -5.99792186 # occ.  2.00000000
 
ion      s      p      d    tot
    1  0.014  0.001  0.000  0.015
    2  0.001  0.001  0.006  0.008
    3  0.001  0.001  0.006  0.008
    4  0.001  0.001  0.006  0.008
    5  0.003  0.000  0.002  0.005
    6  0.001  0.001  0.006  0.008
    7  0.001  0.001  0.006  0.008
    8  0.001  0.001  0.006  0.008
    9  0.007  0.002  0.004  0.013
   10  0.008  0.000  0.031  0.039
   11  0.001  0.002  0.017  0.021
   12  0.008  0.000  0.031  0.039
   13  0.001  0.002  0.017  0.021
   14  0.001  0.002  0.017  0.021
   15  0.036  0.003  0.003  0.042
   16  0.008  0.000  0.031  0.039
   17  0.036  0.003  0.003  0.042
   18  0.036  0.003  0.003  0.042
   19  0.001  0.001  0.020  0.022
   20  0.021  0.000  0.019  0.040
   21  0.020  0.000  0.019  0.039
   22  0.019  0.003  0.006  0.028
   23  0.020  0.000  0.019  0.039
   24  0.019  0.003  0.006  0.028
   25  0.001  0.001  0.020  0.022
   26  0.001  0.001  0.020  0.022
   27  0.019  0.003  0.006  0.028
   28  0.000  0.000  0.000  0.000
   29  0.000  0.000  0.004  0.005
   30  0.000  0.000  0.004  0.005
   31  0.000  0.000  0.004  0.005
   32  0.000  0.000  0.004  0.005
   33  0.000  0.000  0.004  0.005
   34  0.000  0.000  0.004  0.005
   35  0.007  0.001  0.000  0.008
   36  0.006  0.002  0.001  0.008
tot    0.301  0.041  0.357  0.699
 
band     5 # energy   -5.99375696 # occ.  2.00000000
 
ion      s      p      d    tot
    1  0.000  0.000  0.004  0.004
    2  0.008  0.001  0.004  0.013
    3  0.003  0.001  0.003  0.007
    4  0.008  0.001  0.004  0.013
    5  0.000  0.001  0.010  0.011
    6  0.001  0.000  0.003  0.005
    7  0.003  0.001  0.003  0.007
    8  0.001  0.000  0.003  0.005
    9  0.000  0.001  0.003  0.004
   10  0.000  0.002  0.021  0.022
   11  0.044  0.002  0.014  0.060
   12  0.004  0.001  0.012  0.017
   13  0.044  0.002  0.014  0.060
   14  0.000  0.001  0.043  0.044
   15  0.021  0.001  0.014  0.036
   16  0.004  0.001  0.012  0.017
   17  0.021  0.001  0.014  0.036
   18  0.000  0.005  0.007  0.011
   19  0.001  0.001  0.010  0.012
   20  0.000  0.004  0.013  0.017
   21  0.027  0.001  0.013  0.041
   22  0.035  0.002  0.012  0.049
   23  0.026  0.001  0.013  0.041
   24  0.000  0.000  0.039  0.040
   25  0.000  0.002  0.011  0.013
   26  0.001  0.001  0.010  0.012
   27  0.035  0.002  0.012  0.049
   28  0.000  0.000  0.001  0.001
   29  0.001  0.000  0.002  0.004
   30  0.006  0.001  0.003  0.010
   31  0.001  0.000  0.002  0.004
   32  0.002  0.001  0.003  0.005
   33  0.006  0.001  0.003  0.010
   34  0.002  0.001  0.003  0.005
   35  0.000  0.001  0.007  0.008
   36  0.000  0.001  0.001  0.002
tot    0.306  0.042  0.346  0.694
 
band     6 # energy   -5.99369795 # occ.  2.00000000
 
ion      s      p      d    tot
    1  0.000  0.000  0.004  0.004
    2  0.000  0.000  0.003  0.004
    3  0.005  0.001  0.004  0.009
    4  0.000  0.000  0.003  0.004
    5  0.000  0.001  0.010  0.011
    6  0.007  0.001  0.003  0.011
    7  0.005  0.001  0.004  0.009
    8  0.007  0.001  0.003  0.011
    9  0.000  0.001  0.003  0.004
   10  0.005  0.001  0.009  0.015
   11  0.015  0.001  0.033  0.050
   12  0.002  0.001  0.018  0.021
   13  0.015  0.001  0.034  0.050
   14  0.058  0.002  0.004  0.065
   15  0.007  0.003  0.009  0.019
   16  0.002  0.001  0.018  0.021
   17  0.007  0.003  0.009  0.019
   18  0.028  0.000  0.016  0.045
   19  0.000  0.002  0.010  0.012
   20  0.036  0.000  0.013  0.050
   21  0.009  0.003  0.013  0.025
   22  0.012  0.001  0.030  0.043
   23  0.009  0.003  0.013  0.025
   24  0.046  0.002  0.003  0.051
   25  0.001  0.001  0.010  0.011
   26  0.000  0.002  0.010  0.012
   27  0.012  0.001  0.030  0.043
   28  0.000  0.000  0.001  0.001
   29  0.005  0.001  0.003  0.009
   30  0.000  0.000  0.002  0.003
   31  0.005  0.001  0.003  0.009
   32  0.005  0.001  0.002  0.008
   33  0.000  0.000  0.002  0.003
   34  0.005  0.001  0.002  0.008
   35  0.000  0.001  0.007  0.008
   36  0.000  0.001  0.001  0.002
tot    0.306  0.042  0.346  0.694
 
band     7 # energy   -5.98732062 # occ.  2.00000000
 
ion      s      p      d    tot
    1  0.005  0.001  0.001  0.007
    2  0.000  0.001  0.006  0.007
    3  0.000  0.001  0.006  0.007
    4  0.000  0.001  0.006  0.007
    5  0.019  0.002  0.001  0.021
    6  0.000  0.001  0.006  0.007
    7  0.000  0.001  0.006  0.007
    8  0.000  0.001  0.006  0.007
    9  0.000  0.000  0.002  0.003
   10  0.022  0.003  0.003  0.028
   11  0.023  0.001  0.020  0.044
   12  0.022  0.003  0.003  0.028
   13  0.023  0.001  0.020  0.044
   14  0.024  0.001  0.020  0.045
   15  0.002  0.001  0.027  0.030
   16  0.022  0.003  0.003  0.028
   17  0.002  0.001  0.027  0.030
   18  0.002  0.001  0.027  0.029
   19  0.025  0.002  0.009  0.036
   20  0.009  0.003  0.011  0.022
   21  0.010  0.003  0.011  0.023
   22  0.006  0.000  0.026  0.032
   23  0.010  0.003  0.011  0.023
   24  0.006  0.000  0.026  0.032
   25  0.025  0.002  0.009  0.036
   26  0.025  0.002  0.009  0.036
   27  0.006  0.000  0.026  0.032
   28  0.011  0.001  0.001  0.013
   29  0.000  0.000  0.004  0.004
   30  0.000  0.000  0.004  0.004
   31  0.000  0.000  0.004  0.004
   32  0.000  0.000  0.004  0.004
   33  0.000  0.000  0.004  0.004
   34  0.000  0.000  0.004  0.004
   35  0.003  0.001  0.002  0.005
   36  0.001  0.000  0.000  0.001
tot    0.301  0.041  0.354  0.695
 
band     8 # energy   -5.97073248 # occ.  2.00000000
 
ion      s      p      d    tot
    1  0.000  0.001  0.008  0.010
    2  0.008  0.001  0.004  0.013
    3  0.003  0.001  0.003  0.007
    4  0.008  0.001  0.004  0.013
    5  0.000  0.000  0.001  0.002
    6  0.001  0.000  0.004  0.005
    7  0.003  0.001  0.003  0.007
    8  0.001  0.000  0.004  0.005
    9  0.000  0.000  0.009  0.009
   10  0.058  0.001  0.011  0.070
   11  0.001  0.003  0.007  0.011
   12  0.014  0.003  0.022  0.039
   13  0.001  0.003  0.007  0.011
   14  0.003  0.000  0.016  0.019
   15  0.009  0.001  0.033  0.043
   16  0.015  0.003  0.022  0.040
   17  0.009  0.001  0.033  0.043
   18  0.035  0.002  0.003  0.041
   19  0.013  0.002  0.024  0.039
   20  0.020  0.002  0.005  0.026
   21  0.005  0.001  0.023  0.029
   22  0.002  0.003  0.006  0.011
   23  0.005  0.001  0.023  0.029
   24  0.008  0.000  0.014  0.023
   25  0.051  0.001  0.007  0.060
   26  0.013  0.002  0.024  0.039
   27  0.002  0.003  0.007  0.011
   28  0.000  0.001  0.006  0.007
   29  0.001  0.000  0.002  0.003
   30  0.004  0.001  0.002  0.008
   31  0.001  0.000  0.002  0.003
   32  0.001  0.000  0.002  0.004
   33  0.004  0.001  0.002  0.008
   34  0.001  0.000  0.002  0.004
   35  0.000  0.000  0.001  0.001
   36  0.000  0.000  0.001  0.001
tot    0.301  0.042  0.350  0.693
 
band     9 # energy   -5.97066557 # occ.  2.00000000
 
ion      s      p      d    tot
    1  0.000  0.001  0.008  0.010
    2  0.000  0.000  0.003  0.004
    3  0.005  0.001  0.004  0.010
    4  0.000  0.000  0.003  0.004
    5  0.000  0.000  0.001  0.002
    6  0.007  0.001  0.004  0.012
    7  0.005  0.001  0.004  0.010
    8  0.007  0.001  0.004  0.012
    9  0.000  0.000  0.009  0.009
   10  0.000  0.003  0.026  0.029
   11  0.002  0.001  0.013  0.016
   12  0.044  0.001  0.015  0.060
   13  0.002  0.001  0.013  0.016
   14  0.000  0.004  0.004  0.008
   15  0.026  0.001  0.013  0.041
   16  0.044  0.001  0.015  0.060
   17  0.027  0.001  0.013  0.041
   18  0.000  0.000  0.043  0.043
   19  0.038  0.002  0.013  0.053
   20  0.000  0.000  0.030  0.030
   21  0.015  0.001  0.011  0.027
   22  0.006  0.001  0.012  0.019
   23  0.015  0.001  0.011  0.027
   24  0.000  0.004  0.004  0.008
   25  0.000  0.002  0.030  0.032
   26  0.038  0.002  0.013  0.053
   27  0.006  0.001  0.012  0.019
   28  0.000  0.001  0.006  0.007
   29  0.003  0.001  0.003  0.007
   30  0.000  0.000  0.002  0.002
   31  0.003  0.001  0.003  0.007
   32  0.003  0.001  0.002  0.006
   33  0.000  0.000  0.002  0.002
   34  0.003  0.001  0.002  0.006
   35  0.000  0.000  0.001  0.001
   36  0.000  0.000  0.001  0.001
tot    0.301  0.042  0.350  0.693
 
band    10 # energy   -5.82702902 # occ.  2.00000000
 
ion      s      p      d    tot
    1  0.001  0.000  0.000  0.001
    2  0.000  0.000  0.000  0.001
    3  0.000  0.000  0.000  0.001
    4  0.000  0.000  0.000  0.001
    5  0.001  0.000  0.000  0.002
    6  0.000  0.000  0.000  0.001
    7  0.000  0.000  0.000  0.001
    8  0.000  0.000  0.000  0.001
    9  0.000  0.000  0.000  0.000
   10  0.000  0.000  0.002  0.002
   11  0.001  0.000  0.002  0.003
   12  0.000  0.000  0.002  0.002
   13  0.001  0.000  0.002  0.003
   14  0.001  0.000  0.002  0.003
   15  0.000  0.000  0.003  0.004
   16  0.000  0.000  0.002  0.002
   17  0.000  0.000  0.003  0.004
   18  0.000  0.000  0.003  0.004
   19  0.005  0.001  0.021  0.028
   20  0.004  0.001  0.024  0.028
   21  0.004  0.001  0.024  0.028
   22  0.007  0.001  0.028  0.037
   23  0.004  0.001  0.024  0.028
   24  0.007  0.001  0.028  0.037
   25  0.005  0.001  0.021  0.028
   26  0.005  0.001  0.021  0.028
   27  0.007  0.001  0.028  0.037
   28  0.030  0.000  0.023  0.053
   29  0.025  0.000  0.022  0.047
   30  0.025  0.000  0.022  0.047
   31  0.025  0.000  0.022  0.047
   32  0.025  0.000  0.022  0.047
   33  0.025  0.000  0.022  0.047
   34  0.025  0.000  0.022  0.047
   35  0.032  0.000  0.023  0.055
   36  0.008  0.000  0.003  0.011
tot    0.277  0.012  0.428  0.716
 
band    11 # energy   -5.51206122 # occ.  2.00000000
 
ion      s      p      d    tot
    1  0.015  0.002  0.002  0.019
    2  0.000  0.001  0.008  0.009
    3  0.000  0.001  0.008  0.009
    4  0.000  0.001  0.008  0.009
    5  0.000  0.000  0.002  0.002
    6  0.000  0.001  0.008  0.009
    7  0.000  0.001  0.008  0.009
    8  0.000  0.001  0.008  0.009
    9  0.016  0.001  0.000  0.017
   10  0.010  0.002  0.011  0.023
   11  0.003  0.000  0.041  0.045
   12  0.010  0.002  0.011  0.023
   13  0.003  0.000  0.041  0.045
   14  0.003  0.000  0.041  0.044
   15  0.002  0.001  0.029  0.032
   16  0.010  0.002  0.011  0.023
   17  0.002  0.001  0.029  0.032
   18  0.002  0.001  0.029  0.032
   19  0.006  0.001  0.012  0.019
   20  0.001  0.000  0.045  0.046
   21  0.001  0.000  0.045  0.046
   22  0.011  0.001  0.021  0.033
   23  0.001  0.000  0.045  0.046
   24  0.011  0.001  0.021  0.033
   25  0.006  0.001  0.012  0.019
   26  0.006  0.001  0.012  0.019
   27  0.011  0.001  0.021  0.033
   28  0.010  0.001  0.001  0.013
   29  0.000  0.001  0.006  0.006
   30  0.000  0.001  0.006  0.006
   31  0.000  0.001  0.006  0.006
   32  0.000  0.001  0.006  0.006
   33  0.000  0.001  0.006  0.006
   34  0.000  0.001  0.006  0.006
   35  0.010  0.001  0.002  0.013
   36  0.001  0.000  0.000  0.001
tot    0.153  0.029  0.569  0.751
 
band    12 # energy   -5.50129849 # occ.  2.00000000
 
ion      s      p      d    tot
    1  0.000  0.001  0.004  0.005
    2  0.009  0.001  0.004  0.015
    3  0.002  0.000  0.004  0.006
    4  0.009  0.001  0.004  0.015
    5  0.000  0.001  0.012  0.013
    6  0.003  0.001  0.005  0.009
    7  0.002  0.000  0.004  0.006
    8  0.003  0.001  0.005  0.009
    9  0.000  0.000  0.008  0.008
   10  0.010  0.002  0.008  0.020
   11  0.005  0.000  0.040  0.045
   12  0.002  0.001  0.042  0.046
   13  0.004  0.000  0.041  0.045
   14  0.018  0.001  0.013  0.032
   15  0.000  0.001  0.014  0.015
   16  0.003  0.001  0.042  0.045
   17  0.000  0.001  0.013  0.015
   18  0.001  0.000  0.024  0.025
   19  0.003  0.001  0.018  0.022
   20  0.024  0.002  0.006  0.032
   21  0.006  0.000  0.051  0.057
   22  0.001  0.001  0.029  0.031
   23  0.006  0.000  0.050  0.057
   24  0.002  0.001  0.014  0.018
   25  0.012  0.000  0.021  0.034
   26  0.003  0.001  0.017  0.021
   27  0.001  0.001  0.029  0.030
   28  0.000  0.001  0.009  0.009
   29  0.009  0.001  0.004  0.014
   30  0.000  0.001  0.004  0.005
   31  0.009  0.001  0.004  0.014
   32  0.005  0.001  0.003  0.009
   33  0.000  0.001  0.004  0.005
   34  0.005  0.001  0.003  0.009
   35  0.000  0.000  0.004  0.004
   36  0.000  0.002  0.001  0.003
tot    0.158  0.031  0.559  0.748
 
band    13 # energy   -5.50129271 # occ.  2.00000000
 
ion      s      p      d    tot
    1  0.000  0.001  0.004  0.005
    2  0.000  0.000  0.005  0.005
    3  0.008  0.001  0.005  0.014
    4  0.000  0.000  0.005  0.006
    5  0.000  0.001  0.012  0.013
    6  0.006  0.001  0.004  0.011
    7  0.008  0.001  0.005  0.014
    8  0.006  0.001  0.004  0.011
    9  0.000  0.000  0.008  0.008
   10  0.000  0.001  0.053  0.054
   11  0.013  0.001  0.022  0.037
   12  0.008  0.002  0.019  0.028
   13  0.014  0.001  0.022  0.036
   14  0.000  0.000  0.049  0.049
   15  0.001  0.001  0.020  0.022
   16  0.007  0.002  0.019  0.029
   17  0.001  0.001  0.020  0.022
   18  0.000  0.001  0.010  0.012
   19  0.009  0.000  0.020  0.030
   20  0.000  0.000  0.065  0.065
   21  0.018  0.001  0.021  0.040
   22  0.002  0.001  0.019  0.022
   23  0.018  0.001  0.022  0.041
   24  0.000  0.001  0.033  0.035
   25  0.000  0.001  0.016  0.017
   26  0.009  0.000  0.020  0.030
   27  0.002  0.001  0.019  0.022
   28  0.000  0.001  0.009  0.009
   29  0.001  0.000  0.004  0.005
   30  0.009  0.001  0.003  0.014
   31  0.001  0.000  0.004  0.005
   32  0.004  0.001  0.004  0.010
   33  0.009  0.001  0.003  0.014
   34  0.004  0.001  0.004  0.010
   35  0.000  0.000  0.004  0.004
   36  0.000  0.002  0.001  0.003
tot    0.158  0.031  0.559  0.748
 
band    14 # energy   -5.48521868 # occ.  2.00000000
 
ion      s      p      d    tot
    1  0.007  0.000  0.001  0.008
    2  0.000  0.001  0.008  0.009
    3  0.000  0.001  0.008  0.009
    4  0.000  0.001  0.008  0.009
    5  0.019  0.002  0.001  0.021
    6  0.000  0.001  0.008  0.009
    7  0.000  0.001  0.008  0.009
    8  0.000  0.001  0.008  0.009
    9  0.003  0.001  0.002  0.006
   10  0.000  0.000  0.043  0.044
   11  0.006  0.002  0.014  0.021
   12  0.000  0.000  0.044  0.044
   13  0.006  0.002  0.014  0.021
   14  0.006  0.002  0.014  0.021
   15  0.007  0.001  0.024  0.032
   16  0.000  0.000  0.044  0.044
   17  0.007  0.001  0.024  0.032
   18  0.007  0.001  0.024  0.032
   19  0.008  0.000  0.044  0.052
   20  0.012  0.002  0.007  0.020
   21  0.012  0.002  0.007  0.020
   22  0.001  0.000  0.033  0.034
   23  0.012  0.002  0.007  0.020
   24  0.001  0.000  0.033  0.034
   25  0.008  0.000  0.044  0.052
   26  0.008  0.000  0.044  0.052
   27  0.001  0.000  0.033  0.034
   28  0.000  0.000  0.005  0.005
   29  0.000  0.000  0.005  0.006
   30  0.000  0.001  0.005  0.006
   31  0.000  0.000  0.005  0.006
   32  0.000  0.001  0.005  0.006
   33  0.000  0.001  0.005  0.006
   34  0.000  0.001  0.005  0.006
   35  0.004  0.001  0.000  0.005
   36  0.011  0.002  0.000  0.013
tot    0.145  0.028  0.587  0.759
 
band    15 # energy   -5.48222253 # occ.  2.00000000
 
ion      s      p      d    tot
    1  0.000  0.000  0.014  0.014
    2  0.010  0.001  0.005  0.016
    3  0.002  0.000  0.005  0.008
    4  0.010  0.001  0.005  0.016
    5  0.000  0.000  0.004  0.005
    6  0.003  0.001  0.005  0.009
    7  0.002  0.000  0.005  0.008
    8  0.003  0.001  0.005  0.009
    9  0.000  0.001  0.008  0.010
   10  0.000  0.001  0.024  0.025
   11  0.001  0.001  0.020  0.023
   12  0.006  0.000  0.023  0.029
   13  0.002  0.001  0.020  0.022
   14  0.000  0.001  0.026  0.027
   15  0.013  0.002  0.022  0.036
   16  0.006  0.000  0.023  0.029
   17  0.013  0.002  0.022  0.036
   18  0.000  0.000  0.066  0.066
   19  0.011  0.001  0.020  0.032
   20  0.000  0.002  0.014  0.016
   21  0.001  0.000  0.020  0.022
   22  0.019  0.001  0.021  0.041
   23  0.001  0.000  0.020  0.022
   24  0.000  0.000  0.040  0.040
   25  0.000  0.001  0.064  0.064
   26  0.011  0.001  0.020  0.032
   27  0.019  0.001  0.022  0.041
   28  0.000  0.001  0.004  0.004
   29  0.006  0.001  0.004  0.011
   30  0.000  0.000  0.004  0.005
   31  0.006  0.001  0.004  0.011
   32  0.003  0.001  0.002  0.006
   33  0.001  0.000  0.004  0.005
   34  0.003  0.001  0.002  0.006
   35  0.000  0.001  0.008  0.009
   36  0.000  0.000  0.000  0.000
tot    0.150  0.029  0.574  0.752
 
band    16 # energy   -5.48220173 # occ.  2.00000000
 
ion      s      p      d    tot
    1  0.000  0.000  0.014  0.014
    2  0.000  0.000  0.005  0.006
    3  0.008  0.001  0.005  0.014
    4  0.000  0.000  0.005  0.006
    5  0.000  0.000  0.004  0.005
    6  0.008  0.001  0.004  0.013
    7  0.008  0.001  0.005  0.014
    8  0.007  0.001  0.004  0.013
    9  0.000  0.001  0.008  0.010
   10  0.008  0.000  0.023  0.031
   11  0.001  0.001  0.024  0.025
   12  0.002  0.001  0.023  0.026
   13  0.001  0.001  0.024  0.025
   14  0.002  0.001  0.018  0.021
   15  0.004  0.001  0.051  0.056
   16  0.002  0.001  0.023  0.026
   17  0.004  0.001  0.052  0.056
   18  0.017  0.002  0.007  0.026
   19  0.004  0.001  0.049  0.053
   20  0.001  0.000  0.022  0.024
   21  0.000  0.001  0.016  0.018
   22  0.006  0.000  0.034  0.040
   23  0.000  0.001  0.016  0.018
   24  0.025  0.001  0.015  0.041
   25  0.015  0.001  0.005  0.021
   26  0.004  0.001  0.049  0.054
   27  0.006  0.000  0.034  0.040
   28  0.000  0.001  0.004  0.004
   29  0.000  0.000  0.003  0.003
   30  0.006  0.001  0.003  0.009
   31  0.000  0.000  0.003  0.003
   32  0.003  0.001  0.005  0.009
   33  0.006  0.001  0.003  0.009
   34  0.003  0.001  0.005  0.009
   35  0.000  0.001  0.008  0.009
   36  0.000  0.000  0.000  0.000
tot    0.150  0.029  0.574  0.752
 
band    17 # energy   -5.12120628 # occ.  2.00000000
 
ion      s      p      d    tot
    1  0.000  0.001  0.015  0.016
    2  0.011  0.001  0.012  0.024
    3  0.003  0.001  0.010  0.014
    4  0.011  0.001  0.012  0.024
    5  0.000  0.000  0.032  0.032
    6  0.003  0.000  0.016  0.019
    7  0.003  0.001  0.010  0.014
    8  0.003  0.000  0.016  0.019
    9  0.000  0.002  0.010  0.011
   10  0.000  0.000  0.006  0.006
   11  0.000  0.000  0.038  0.039
   12  0.000  0.000  0.015  0.015
   13  0.000  0.000  0.038  0.039
   14  0.000  0.000  0.041  0.042
   15  0.000  0.000  0.049  0.050
   16  0.000  0.000  0.015  0.015
   17  0.000  0.000  0.049  0.050
   18  0.000  0.000  0.040  0.040
   19  0.001  0.000  0.011  0.012
   20  0.000  0.000  0.020  0.020
   21  0.001  0.000  0.030  0.032
   22  0.000  0.000  0.041  0.042
   23  0.001  0.000  0.031  0.032
   24  0.000  0.000  0.034  0.034
   25  0.000  0.000  0.012  0.012
   26  0.001  0.000  0.011  0.012
   27  0.000  0.000  0.041  0.042
   28  0.000  0.000  0.014  0.014
   29  0.004  0.001  0.006  0.011
   30  0.009  0.001  0.010  0.020
   31  0.004  0.001  0.006  0.011
   32  0.001  0.000  0.010  0.011
   33  0.009  0.001  0.010  0.020
   34  0.001  0.000  0.010  0.011
   35  0.000  0.000  0.018  0.019
   36  0.000  0.001  0.001  0.002
tot    0.067  0.016  0.741  0.824
 
band    18 # energy   -5.12120379 # occ.  2.00000000
 
ion      s      p      d    tot
    1  0.000  0.001  0.015  0.016
    2  0.000  0.001  0.013  0.014
    3  0.008  0.000  0.016  0.025
    4  0.000  0.001  0.013  0.014
    5  0.000  0.000  0.032  0.032
    6  0.008  0.001  0.010  0.019
    7  0.008  0.000  0.016  0.025
    8  0.008  0.001  0.010  0.019
    9  0.000  0.002  0.010  0.011
   10  0.000  0.000  0.018  0.018
   11  0.000  0.000  0.041  0.041
   12  0.000  0.000  0.009  0.009
   13  0.000  0.000  0.041  0.041
   14  0.000  0.001  0.037  0.038
   15  0.000  0.000  0.043  0.043
   16  0.000  0.000  0.009  0.009
   17  0.000  0.000  0.043  0.043
   18  0.000  0.000  0.053  0.053
   19  0.000  0.000  0.011  0.012
   20  0.001  0.000  0.034  0.036
   21  0.000  0.000  0.023  0.024
   22  0.000  0.000  0.036  0.037
   23  0.000  0.000  0.023  0.024
   24  0.000  0.000  0.043  0.044
   25  0.001  0.000  0.011  0.012
   26  0.000  0.000  0.011  0.012
   27  0.000  0.000  0.036  0.037
   28  0.000  0.000  0.014  0.014
   29  0.006  0.000  0.011  0.017
   30  0.000  0.001  0.007  0.008
   31  0.006  0.000  0.011  0.017
   32  0.008  0.001  0.008  0.017
   33  0.000  0.001  0.007  0.008
   34  0.008  0.001  0.008  0.017
   35  0.000  0.000  0.018  0.019
   36  0.000  0.001  0.001  0.002
tot    0.067  0.016  0.741  0.824
 
band    19 # energy   -5.11180276 # occ.  2.00000000
 
ion      s      p      d    tot
    1  0.018  0.001  0.000  0.019
    2  0.000  0.001  0.019  0.020
    3  0.000  0.001  0.019  0.020
    4  0.000  0.001  0.019  0.020
    5  0.019  0.000  0.011  0.031
    6  0.000  0.001  0.019  0.020
    7  0.000  0.001  0.019  0.020
    8  0.000  0.001  0.019  0.020
    9  0.000  0.000  0.010  0.010
   10  0.000  0.000  0.031  0.032
   11  0.000  0.000  0.034  0.034
   12  0.000  0.000  0.031  0.032
   13  0.000  0.000  0.034  0.034
   14  0.000  0.000  0.034  0.034
   15  0.000  0.000  0.040  0.040
   16  0.000  0.000  0.031  0.032
   17  0.000  0.000  0.040  0.040
   18  0.000  0.000  0.040  0.040
   19  0.000  0.000  0.026  0.026
   20  0.000  0.000  0.019  0.019
   21  0.000  0.000  0.019  0.019
   22  0.001  0.000  0.027  0.028
   23  0.000  0.000  0.019  0.019
   24  0.001  0.000  0.027  0.029
   25  0.000  0.000  0.026  0.026
   26  0.000  0.000  0.026  0.026
   27  0.001  0.000  0.027  0.028
   28  0.014  0.001  0.002  0.016
   29  0.000  0.000  0.012  0.012
   30  0.000  0.000  0.012  0.012
   31  0.000  0.000  0.012  0.012
   32  0.000  0.000  0.012  0.012
   33  0.000  0.000  0.012  0.012
   34  0.000  0.000  0.012  0.012
   35  0.007  0.000  0.005  0.012
   36  0.001  0.000  0.000  0.001
tot    0.064  0.015  0.745  0.824
 
band    20 # energy   -5.09478856 # occ.  2.00000000
 
ion      s      p      d    tot
    1  0.003  0.000  0.015  0.019
    2  0.000  0.001  0.017  0.018
    3  0.000  0.001  0.017  0.018
    4  0.000  0.001  0.017  0.018
    5  0.009  0.001  0.004  0.014
    6  0.000  0.001  0.017  0.018
    7  0.000  0.001  0.017  0.018
    8  0.000  0.001  0.017  0.018
    9  0.024  0.001  0.004  0.029
   10  0.000  0.000  0.049  0.049
   11  0.000  0.001  0.046  0.047
   12  0.000  0.000  0.049  0.049
   13  0.000  0.001  0.046  0.047
   14  0.000  0.001  0.046  0.046
   15  0.000  0.000  0.030  0.030
   16  0.000  0.000  0.049  0.049
   17  0.000  0.000  0.030  0.030
   18  0.000  0.000  0.030  0.031
   19  0.001  0.000  0.023  0.025
   20  0.001  0.000  0.035  0.036
   21  0.001  0.000  0.035  0.036
   22  0.000  0.000  0.017  0.017
   23  0.001  0.000  0.035  0.036
   24  0.000  0.000  0.017  0.017
   25  0.001  0.000  0.023  0.025
   26  0.001  0.000  0.023  0.025
   27  0.000  0.000  0.017  0.017
   28  0.000  0.000  0.002  0.002
   29  0.000  0.000  0.006  0.007
   30  0.000  0.000  0.006  0.007
   31  0.000  0.000  0.006  0.007
   32  0.000  0.000  0.006  0.007
   33  0.000  0.000  0.006  0.007
   34  0.000  0.000  0.006  0.007
   35  0.002  0.000  0.001  0.003
   36  0.004  0.000  0.001  0.006
tot    0.050  0.015  0.768  0.833
 
band    21 # energy   -5.08299593 # occ.  2.00000000
 
ion      s      p      d    tot
    1  0.000  0.001  0.017  0.019
    2  0.001  0.001  0.014  0.016
    3  0.006  0.000  0.016  0.023
    4  0.001  0.001  0.014  0.016
    5  0.000  0.001  0.008  0.010
    6  0.011  0.001  0.009  0.021
    7  0.006  0.000  0.016  0.023
    8  0.011  0.001  0.009  0.021
    9  0.000  0.000  0.027  0.027
   10  0.000  0.000  0.077  0.077
   11  0.000  0.000  0.043  0.043
   12  0.000  0.000  0.062  0.062
   13  0.000  0.000  0.043  0.043
   14  0.000  0.000  0.027  0.027
   15  0.000  0.001  0.025  0.026
   16  0.000  0.000  0.062  0.062
   17  0.000  0.001  0.025  0.026
   18  0.000  0.000  0.024  0.024
   19  0.001  0.000  0.038  0.039
   20  0.000  0.000  0.024  0.025
   21  0.000  0.000  0.024  0.024
   22  0.002  0.000  0.015  0.017
   23  0.000  0.000  0.024  0.024
   24  0.000  0.000  0.006  0.006
   25  0.000  0.000  0.026  0.026
   26  0.001  0.000  0.038  0.039
   27  0.002  0.000  0.015  0.017
   28  0.000  0.001  0.008  0.008
   29  0.001  0.000  0.004  0.006
   30  0.000  0.000  0.005  0.005
   31  0.001  0.000  0.004  0.006
   32  0.002  0.000  0.002  0.005
   33  0.000  0.000  0.005  0.005
   34  0.002  0.000  0.002  0.005
   35  0.000  0.001  0.005  0.006
   36  0.000  0.000  0.001  0.001
tot    0.051  0.015  0.766  0.832
 
band    22 # energy   -5.08297653 # occ.  2.00000000
 
ion      s      p      d    tot
    1  0.000  0.001  0.017  0.019
    2  0.011  0.001  0.012  0.024
    3  0.006  0.001  0.010  0.017
    4  0.011  0.001  0.012  0.024
    5  0.000  0.001  0.008  0.010
    6  0.001  0.000  0.017  0.019
    7  0.006  0.001  0.010  0.017
    8  0.001  0.000  0.017  0.019
    9  0.000  0.000  0.027  0.027
   10  0.000  0.001  0.056  0.057
   11  0.000  0.000  0.032  0.032
   12  0.000  0.000  0.072  0.072
   13  0.000  0.000  0.032  0.032
   14  0.000  0.000  0.048  0.048
   15  0.000  0.000  0.024  0.025
   16  0.000  0.000  0.072  0.072