PROCAR new format
# of k-points:   10         # of bands:  252         # of ions:   38

 k-point     1 :    0.00000000 0.00000000 0.00000000     weight = 0.01562500

band     1 # energy  -19.56556914 # occ.  2.00000000
 
ion      s      p      d    tot
    1  0.000  0.000  0.000  0.000
    2  0.000  0.000  0.000  0.000
    3  0.000  0.000  0.000  0.000
    4  0.000  0.000  0.000  0.000
    5  0.000  0.000  0.000  0.000
    6  0.000  0.000  0.000  0.000
    7  0.000  0.000  0.000  0.000
    8  0.000  0.000  0.000  0.000
    9  0.000  0.000  0.000  0.000
   10  0.000  0.000  0.000  0.000
   11  0.000  0.000  0.000  0.000
   12  0.000  0.000  0.000  0.000
   13  0.000  0.000  0.000  0.000
   14  0.000  0.000  0.000  0.000
   15  0.000  0.000  0.000  0.000
   16  0.000  0.000  0.000  0.000
   17  0.000  0.000  0.000  0.000
   18  0.000  0.000  0.000  0.000
   19  0.000  0.000  0.000  0.000
   20  0.000  0.000  0.000  0.000
   21  0.000  0.000  0.000  0.000
   22  0.000  0.000  0.000  0.000
   23  0.000  0.000  0.000  0.000
   24  0.000  0.000  0.000  0.000
   25  0.000  0.000  0.000  0.000
   26  0.000  0.000  0.000  0.000
   27  0.000  0.000  0.000  0.000
   28  0.000  0.000  0.000  0.000
   29  0.000  0.000  0.000  0.000
   30  0.000  0.000  0.000  0.000
   31  0.000  0.000  0.000  0.000
   32  0.000  0.000  0.000  0.000
   33  0.000  0.000  0.000  0.000
   34  0.000  0.000  0.000  0.000
   35  0.000  0.000  0.000  0.000
   36  0.013  0.020  0.033  0.065
   37  0.741  0.018  0.000  0.759
   38  0.120  0.025  0.000  0.144
tot    0.873  0.062  0.033  0.968
 
band     2 # energy   -8.50324642 # occ.  2.00000000
 
ion      s      p      d    tot
    1  0.005  0.001  0.000  0.006
    2  0.005  0.001  0.000  0.006
    3  0.005  0.001  0.000  0.006
    4  0.005  0.001  0.000  0.006
    5  0.005  0.001  0.000  0.006
    6  0.005  0.001  0.000  0.006
    7  0.005  0.001  0.000  0.006
    8  0.005  0.001  0.000  0.006
    9  0.005  0.001  0.000  0.006
   10  0.021  0.000  0.000  0.021
   11  0.021  0.000  0.000  0.021
   12  0.021  0.000  0.000  0.021
   13  0.021  0.000  0.000  0.021
   14  0.021  0.000  0.000  0.021
   15  0.021  0.000  0.000  0.021
   16  0.021  0.000  0.000  0.021
   17  0.021  0.000  0.000  0.021
   18  0.021  0.000  0.000  0.021
   19  0.024  0.000  0.000  0.024
   20  0.026  0.000  0.000  0.026
   21  0.026  0.000  0.000  0.026
   22  0.023  0.000  0.000  0.024
   23  0.026  0.000  0.000  0.026
   24  0.023  0.000  0.000  0.024
   25  0.024  0.000  0.000  0.024
   26  0.024  0.000  0.000  0.024
   27  0.023  0.000  0.000  0.024
   28  0.008  0.001  0.000  0.008
   29  0.008  0.001  0.000  0.009
   30  0.008  0.001  0.000  0.009
   31  0.008  0.001  0.000  0.009
   32  0.008  0.001  0.000  0.009
   33  0.008  0.001  0.000  0.009
   34  0.008  0.001  0.000  0.009
   35  0.007  0.001  0.000  0.008
   36  0.026  0.000  0.007  0.033
   37  0.001  0.032  0.000  0.033
   38  0.011  0.001  0.000  0.012
tot    0.558  0.047  0.008  0.613
 
band     3 # energy   -7.90333756 # occ.  2.00000000
 
ion      s      p      d    tot
    1  0.002  0.000  0.000  0.002
    2  0.002  0.000  0.000  0.002
    3  0.002  0.000  0.000  0.002
    4  0.002  0.000  0.000  0.002
    5  0.002  0.000  0.000  0.002
    6  0.002  0.000  0.000  0.002
    7  0.002  0.000  0.000  0.002
    8  0.002  0.000  0.000  0.002
    9  0.002  0.000  0.000  0.002
   10  0.004  0.000  0.000  0.005
   11  0.004  0.000  0.000  0.004
   12  0.004  0.000  0.000  0.005
   13  0.004  0.000  0.000  0.004
   14  0.004  0.000  0.000  0.004
   15  0.005  0.000  0.000  0.005
   16  0.004  0.000  0.000  0.005
   17  0.005  0.000  0.000  0.005
   18  0.005  0.000  0.000  0.005
   19  0.001  0.000  0.000  0.001
   20  0.000  0.001  0.001  0.002
   21  0.000  0.001  0.001  0.002
   22  0.001  0.000  0.000  0.001
   23  0.000  0.001  0.001  0.002
   24  0.001  0.000  0.000  0.001
   25  0.001  0.000  0.000  0.001
   26  0.001  0.000  0.000  0.001
   27  0.001  0.000  0.000  0.001
   28  0.000  0.000  0.000  0.000
   29  0.000  0.000  0.000  0.000
   30  0.000  0.000  0.000  0.000
   31  0.000  0.000  0.000  0.000
   32  0.000  0.000  0.000  0.000
   33  0.000  0.000  0.000  0.000
   34  0.000  0.000  0.000  0.000
   35  0.000  0.000  0.000  0.000
   36  0.071  0.040  0.132  0.243
   37  0.027  0.471  0.000  0.498
   38  0.158  0.016  0.000  0.174
tot    0.322  0.534  0.135  0.992
 
band     4 # energy   -7.16283094 # occ.  2.00000000
 
ion      s      p      d    tot
    1  0.016  0.001  0.000  0.017
    2  0.016  0.001  0.000  0.017
    3  0.016  0.001  0.000  0.017
    4  0.016  0.001  0.000  0.017
    5  0.017  0.001  0.000  0.018
    6  0.016  0.001  0.000  0.017
    7  0.016  0.001  0.000  0.017
    8  0.016  0.001  0.000  0.017
    9  0.016  0.001  0.000  0.017
   10  0.009  0.002  0.000  0.012
   11  0.010  0.002  0.000  0.012
   12  0.009  0.002  0.000  0.012
   13  0.010  0.002  0.000  0.012
   14  0.010  0.002  0.000  0.012
   15  0.009  0.002  0.001  0.012
   16  0.009  0.002  0.000  0.012
   17  0.009  0.002  0.001  0.012
   18  0.009  0.002  0.001  0.012
   19  0.010  0.002  0.000  0.013
   20  0.007  0.002  0.001  0.009
   21  0.007  0.002  0.001  0.009
   22  0.010  0.002  0.000  0.012
   23  0.007  0.002  0.001  0.009
   24  0.010  0.002  0.000  0.012
   25  0.010  0.002  0.000  0.013
   26  0.010  0.002  0.000  0.013
   27  0.010  0.002  0.000  0.012
   28  0.020  0.001  0.001  0.022
   29  0.019  0.001  0.001  0.021
   30  0.019  0.001  0.001  0.021
   31  0.019  0.001  0.001  0.021
   32  0.019  0.001  0.001  0.021
   33  0.019  0.001  0.001  0.021
   34  0.019  0.001  0.001  0.021
   35  0.020  0.001  0.001  0.022
   36  0.007  0.010  0.022  0.039
   37  0.003  0.031  0.000  0.034
   38  0.010  0.001  0.000  0.011
tot    0.487  0.091  0.041  0.619
 
band     5 # energy   -5.61558330 # occ.  2.00000000
 
ion      s      p      d    tot
    1  0.016  0.000  0.005  0.021
    2  0.016  0.000  0.005  0.021
    3  0.016  0.000  0.005  0.021
    4  0.016  0.000  0.005  0.021
    5  0.012  0.000  0.006  0.018
    6  0.016  0.000  0.005  0.021
    7  0.016  0.000  0.005  0.021
    8  0.016  0.000  0.005  0.021
    9  0.021  0.000  0.004  0.025
   10  0.003  0.004  0.001  0.008
   11  0.005  0.004  0.001  0.010
   12  0.003  0.004  0.001  0.008
   13  0.005  0.004  0.001  0.010
   14  0.005  0.004  0.001  0.010
   15  0.001  0.003  0.002  0.006
   16  0.003  0.004  0.001  0.008
   17  0.001  0.003  0.002  0.006
   18  0.001  0.003  0.002  0.006
   19  0.004  0.003  0.005  0.012
   20  0.012  0.003  0.004  0.019
   21  0.012  0.003  0.004  0.019
   22  0.003  0.003  0.004  0.010
   23  0.012  0.003  0.004  0.019
   24  0.003  0.003  0.004  0.010
   25  0.004  0.003  0.005  0.012
   26  0.004  0.003  0.005  0.012
   27  0.003  0.003  0.004  0.010
   28  0.018  0.000  0.007  0.025
   29  0.018  0.000  0.009  0.027
   30  0.018  0.000  0.009  0.027
   31  0.018  0.000  0.009  0.027
   32  0.018  0.000  0.009  0.027
   33  0.018  0.000  0.009  0.027
   34  0.018  0.000  0.009  0.027
   35  0.022  0.000  0.007  0.029
   36  0.016  0.000  0.016  0.032
   37  0.000  0.000  0.000  0.000
   38  0.000  0.000  0.000  0.000
tot    0.396  0.062  0.181  0.640
 
band     6 # energy   -5.49477967 # occ.  2.00000000
 
ion      s      p      d    tot
    1  0.000  0.003  0.004  0.007
    2  0.006  0.002  0.002  0.010
    3  0.006  0.002  0.002  0.010
    4  0.006  0.002  0.002  0.010
    5  0.000  0.000  0.002  0.002
    6  0.000  0.001  0.002  0.002
    7  0.006  0.002  0.002  0.010
    8  0.000  0.001  0.002  0.002
    9  0.000  0.001  0.004  0.005
   10  0.045  0.002  0.006  0.052
   11  0.000  0.007  0.004  0.011
   12  0.011  0.007  0.007  0.025
   13  0.000  0.007  0.004  0.011
   14  0.000  0.001  0.004  0.005
   15  0.009  0.001  0.011  0.021
   16  0.011  0.007  0.007  0.025
   17  0.009  0.001  0.011  0.022
   18  0.038  0.004  0.002  0.044
   19  0.016  0.006  0.010  0.032
   20  0.028  0.004  0.003  0.035
   21  0.007  0.002  0.013  0.022
   22  0.002  0.010  0.002  0.014
   23  0.007  0.002  0.013  0.022
   24  0.007  0.000  0.006  0.014
   25  0.065  0.003  0.006  0.073
   26  0.016  0.006  0.010  0.032
   27  0.002  0.010  0.002  0.014
   28  0.000  0.005  0.007  0.011
   29  0.008  0.002  0.003  0.013
   30  0.015  0.003  0.004  0.022
   31  0.008  0.002  0.003  0.013
   32  0.001  0.001  0.004  0.006
   33  0.015  0.003  0.004  0.022
   34  0.001  0.001  0.004  0.006
   35  0.000  0.002  0.004  0.005
   36  0.000  0.001  0.009  0.009
   37  0.000  0.000  0.000  0.000
   38  0.000  0.000  0.000  0.000
tot    0.347  0.113  0.183  0.643
 
band     7 # energy   -5.49466685 # occ.  2.00000000
 
ion      s      p      d    tot
    1  0.000  0.003  0.004  0.007
    2  0.002  0.001  0.002  0.005
    3  0.002  0.001  0.002  0.005
    4  0.002  0.001  0.002  0.005
    5  0.000  0.000  0.002  0.002
    6  0.008  0.002  0.002  0.012
    7  0.002  0.001  0.002  0.005
    8  0.008  0.002  0.002  0.012
    9  0.000  0.001  0.004  0.005
   10  0.000  0.009  0.007  0.016
   11  0.000  0.003  0.004  0.007
   12  0.033  0.003  0.006  0.043
   13  0.000  0.003  0.004  0.007
   14  0.000  0.009  0.003  0.013
   15  0.028  0.003  0.005  0.037
   16  0.033  0.003  0.006  0.043
   17  0.028  0.003  0.005  0.037
   18  0.000  0.000  0.014  0.014
   19  0.049  0.004  0.007  0.060
   20  0.000  0.001  0.016  0.018
   21  0.021  0.004  0.006  0.031
   22  0.006  0.004  0.005  0.014
   23  0.021  0.004  0.006  0.031
   24  0.000  0.014  0.001  0.014
   25  0.000  0.006  0.012  0.018
   26  0.048  0.004  0.007  0.059
   27  0.006  0.004  0.005  0.014
   28  0.000  0.005  0.007  0.011
   29  0.008  0.002  0.004  0.015
   30  0.001  0.001  0.003  0.006
   31  0.008  0.002  0.004  0.015
   32  0.015  0.003  0.004  0.022
   33  0.001  0.001  0.003  0.006
   34  0.015  0.003  0.004  0.022
   35  0.000  0.002  0.004  0.005
   36  0.000  0.001  0.009  0.009
   37  0.000  0.000  0.000  0.000
   38  0.000  0.000  0.000  0.000
tot    0.347  0.113  0.183  0.643
 
band     8 # energy   -5.46619744 # occ.  2.00000000
 
ion      s      p      d    tot
    1  0.019  0.003  0.001  0.023
    2  0.000  0.002  0.004  0.005
    3  0.000  0.002  0.004  0.005
    4  0.000  0.002  0.004  0.005
    5  0.002  0.000  0.000  0.003
    6  0.000  0.002  0.004  0.005
    7  0.000  0.002  0.004  0.005
    8  0.000  0.002  0.004  0.005
    9  0.007  0.001  0.000  0.008
   10  0.029  0.006  0.005  0.040
   11  0.007  0.000  0.011  0.018
   12  0.030  0.006  0.005  0.041
   13  0.007  0.000  0.011  0.018
   14  0.006  0.000  0.011  0.018
   15  0.009  0.007  0.004  0.020
   16  0.030  0.006  0.005  0.041
   17  0.009  0.007  0.004  0.020
   18  0.009  0.007  0.004  0.020
   19  0.025  0.009  0.002  0.037
   20  0.000  0.003  0.010  0.014
   21  0.000  0.003  0.010  0.013
   22  0.024  0.002  0.010  0.035
   23  0.000  0.003  0.010  0.013
   24  0.022  0.002  0.010  0.034
   25  0.025  0.010  0.002  0.037
   26  0.025  0.009  0.002  0.037
   27  0.023  0.002  0.010  0.035
   28  0.021  0.003  0.000  0.024
   29  0.000  0.002  0.005  0.007
   30  0.000  0.002  0.005  0.007
   31  0.000  0.002  0.005  0.007
   32  0.000  0.002  0.005  0.007
   33  0.000  0.002  0.005  0.007
   34  0.000  0.002  0.005  0.007
   35  0.013  0.002  0.001  0.016
   36  0.000  0.000  0.000  0.001
   37  0.000  0.000  0.000  0.000
   38  0.000  0.000  0.000  0.000
tot    0.344  0.115  0.183  0.642
 
band     9 # energy   -5.46047627 # occ.  2.00000000
 
ion      s      p      d    tot
    1  0.000  0.000  0.003  0.003
    2  0.005  0.002  0.002  0.009
    3  0.006  0.002  0.002  0.010
    4  0.007  0.002  0.002  0.012
    5  0.000  0.003  0.005  0.008
    6  0.000  0.001  0.002  0.003
    7  0.008  0.002  0.002  0.012
    8  0.000  0.001  0.002  0.003
    9  0.000  0.002  0.003  0.004
   10  0.000  0.003  0.010  0.014
   11  0.035  0.004  0.008  0.046
   12  0.010  0.003  0.004  0.017
   13  0.050  0.004  0.005  0.059
   14  0.002  0.003  0.013  0.018
   15  0.010  0.005  0.004  0.020
   16  0.007  0.003  0.006  0.017
   17  0.015  0.002  0.006  0.022
   18  0.000  0.012  0.002  0.015
   19  0.001  0.004  0.005  0.011
   20  0.001  0.013  0.004  0.018
   21  0.034  0.002  0.007  0.044
   22  0.050  0.004  0.004  0.059
   23  0.023  0.006  0.006  0.035
   24  0.002  0.001  0.017  0.019
   25  0.000  0.008  0.007  0.015
   26  0.002  0.003  0.004  0.009
   27  0.035  0.003  0.008  0.047
   28  0.000  0.000  0.003  0.004
   29  0.005  0.002  0.003  0.010
   30  0.009  0.003  0.004  0.016
   31  0.009  0.002  0.003  0.014
   32  0.001  0.001  0.004  0.006
   33  0.011  0.003  0.004  0.018
   34  0.000  0.001  0.003  0.004
   35  0.000  0.003  0.006  0.009
   36  0.000  0.005  0.008  0.013
   37  0.000  0.000  0.000  0.000
   38  0.000  0.000  0.000  0.000
tot    0.342  0.117  0.183  0.642
 
band    10 # energy   -5.46036238 # occ.  2.00000000
 
ion      s      p      d    tot
    1  0.000  0.000  0.003  0.003
    2  0.004  0.001  0.002  0.007
    3  0.003  0.001  0.002  0.006
    4  0.002  0.001  0.002  0.004
    5  0.000  0.003  0.005  0.008
    6  0.009  0.002  0.002  0.013
    7  0.001  0.001  0.002  0.004
    8  0.009  0.002  0.002  0.013
    9  0.000  0.002  0.003  0.004
   10  0.012  0.003  0.003  0.018
   11  0.023  0.003  0.010  0.036
   12  0.001  0.003  0.010  0.014
   13  0.007  0.003  0.012  0.022
   14  0.057  0.004  0.004  0.065
   15  0.007  0.008  0.004  0.018
   16  0.005  0.003  0.007  0.015
   17  0.002  0.011  0.003  0.016
   18  0.016  0.001  0.006  0.023
   19  0.001  0.006  0.006  0.012
   20  0.038  0.001  0.008  0.046
   21  0.005  0.012  0.004  0.021
   22  0.007  0.001  0.015  0.024
   23  0.016  0.008  0.005  0.029
   24  0.057  0.005  0.003  0.065
   25  0.002  0.002  0.004  0.009
   26  0.000  0.007  0.007  0.014
   27  0.023  0.002  0.011  0.036
   28  0.000  0.000  0.003  0.004
   29  0.007  0.002  0.004  0.013
   30  0.003  0.001  0.003  0.007
   31  0.003  0.002  0.004  0.008
   32  0.011  0.003  0.003  0.017
   33  0.001  0.001  0.003  0.005
   34  0.012  0.003  0.004  0.019
   35  0.000  0.003  0.006  0.009
   36  0.000  0.005  0.008  0.013
   37  0.000  0.000  0.000  0.000
   38  0.000  0.000  0.000  0.000
tot    0.342  0.117  0.183  0.642
 
band    11 # energy   -5.38607894 # occ.  2.00000000
 
ion      s      p      d    tot
    1  0.000  0.000  0.000  0.000
    2  0.000  0.002  0.005  0.007
    3  0.000  0.002  0.005  0.007
    4  0.000  0.002  0.005  0.007
    5  0.027  0.003  0.000  0.031
    6  0.000  0.002  0.005  0.007
    7  0.000  0.002  0.005  0.007
    8  0.000  0.002  0.005  0.007
    9  0.009  0.002  0.002  0.013
   10  0.001  0.003  0.010  0.013
   11  0.023  0.010  0.003  0.036
   12  0.001  0.003  0.010  0.013
   13  0.023  0.010  0.003  0.036
   14  0.023  0.010  0.003  0.036
   15  0.027  0.002  0.011  0.039
   16  0.001  0.003  0.010  0.013
   17  0.027  0.002  0.011  0.039
   18  0.027  0.002  0.011  0.039
   19  0.006  0.001  0.011  0.018
   20  0.025  0.005  0.007  0.037
   21  0.025  0.005  0.007  0.037
   22  0.010  0.007  0.004  0.022
   23  0.025  0.005  0.007  0.037
   24  0.010  0.007  0.004  0.022
   25  0.006  0.001  0.011  0.018
   26  0.006  0.001  0.011  0.018
   27  0.010  0.007  0.004  0.022
   28  0.000  0.000  0.001  0.002
   29  0.001  0.001  0.004  0.006
   30  0.001  0.001  0.004  0.006
   31  0.001  0.001  0.004  0.006
   32  0.001  0.001  0.004  0.006
   33  0.001  0.001  0.004  0.006
   34  0.001  0.001  0.004  0.006
   35  0.003  0.001  0.001  0.005
   36  0.013  0.010  0.001  0.025
   37  0.001  0.005  0.000  0.006
   38  0.002  0.000  0.000  0.002
tot    0.339  0.125  0.193  0.657
 
band    12 # energy   -4.77038350 # occ.  2.00000000
 
ion      s      p      d    tot
    1  0.000  0.004  0.009  0.013
    2  0.002  0.002  0.005  0.009
    3  0.020  0.004  0.005  0.029
    4  0.005  0.002  0.005  0.012
    5  0.000  0.000  0.010  0.010
    6  0.008  0.002  0.005  0.015
    7  0.019  0.004  0.005  0.028
    8  0.005  0.002  0.005  0.011
    9  0.000  0.005  0.008  0.013
   10  0.012  0.001  0.006  0.019
   11  0.001  0.002  0.012  0.016
   12  0.002  0.004  0.014  0.020
   13  0.001  0.003  0.013  0.016
   14  0.004  0.001  0.007  0.012
   15  0.010  0.002  0.016  0.027
   16  0.004  0.004  0.012  0.020
   17  0.005  0.001  0.018  0.024
   18  0.029  0.004  0.005  0.038
   19  0.003  0.002  0.011  0.017
   20  0.000  0.001  0.010  0.011
   21  0.000  0.002  0.014  0.016
   22  0.001  0.002  0.026  0.029
   23  0.000  0.001  0.014  0.015
   24  0.007  0.003  0.003  0.012
   25  0.010  0.007  0.010  0.026
   26  0.002  0.001  0.012  0.015
   27  0.002  0.002  0.022  0.026
   28  0.000  0.004  0.008  0.013
   29  0.004  0.002  0.009  0.015
   30  0.028  0.003  0.011  0.042
   31  0.008  0.002  0.010  0.020
   32  0.010  0.002  0.009  0.022
   33  0.027  0.003  0.011  0.042
   34  0.006  0.002  0.009  0.017
   35  0.000  0.005  0.010  0.016
   36  0.000  0.000  0.020  0.020
   37  0.000  0.000  0.000  0.000
   38  0.000  0.000  0.000  0.000
tot    0.237  0.093  0.377  0.706
 
band    13 # energy   -4.77031665 # occ.  2.00000000
 
ion      s      p      d    tot
    1  0.000  0.004  0.009  0.013
    2  0.018  0.003  0.005  0.026
    3  0.000  0.001  0.005  0.006
    4  0.015  0.003  0.005  0.023
    5  0.000  0.000  0.010  0.010
    6  0.012  0.003  0.005  0.020
    7  0.001  0.002  0.005  0.007
    8  0.015  0.003  0.005  0.023
    9  0.000  0.005  0.008  0.013
   10  0.000  0.005  0.015  0.020
   11  0.003  0.002  0.009  0.014
   12  0.010  0.002  0.008  0.019
   13  0.003  0.002  0.008  0.013
   14  0.000  0.003  0.014  0.017
   15  0.020  0.003  0.010  0.033
   16  0.008  0.002  0.009  0.019
   17  0.024  0.004  0.007  0.035
   18  0.000  0.000  0.021  0.022
   19  0.006  0.005  0.010  0.022
   20  0.000  0.002  0.015  0.017
   21  0.000  0.001  0.011  0.012
   22  0.005  0.003  0.007  0.016
   23  0.000  0.001  0.012  0.013
   24  0.000  0.001  0.031  0.032
   25  0.000  0.000  0.012  0.012
   26  0.008  0.006  0.010  0.024
   27  0.004  0.002  0.012  0.019
   28  0.000  0.004  0.008  0.013
   29  0.024  0.003  0.011  0.037
   30  0.000  0.002  0.008  0.010
   31  0.020  0.003  0.010  0.033
   32  0.018  0.003  0.011  0.031
   33  0.000  0.002  0.008  0.011
   34  0.022  0.003  0.011  0.036
   35  0.000  0.005  0.010  0.016
   36  0.000  0.000  0.020  0.020
   37  0.000  0.000  0.000  0.000
   38  0.000  0.000  0.000  0.000
tot    0.237  0.093  0.377  0.706
 
band    14 # energy   -4.74090339 # occ.  2.00000000
 
ion      s      p      d    tot
    1  0.004  0.001  0.011  0.015
    2  0.006  0.001  0.010  0.017
    3  0.006  0.001  0.010  0.017
    4  0.006  0.001  0.010  0.017
    5  0.003  0.001  0.010  0.014
    6  0.006  0.001  0.010  0.017
    7  0.006  0.001  0.010  0.017
    8  0.006  0.001  0.010  0.017
    9  0.014  0.000  0.009  0.022
   10  0.010  0.000  0.025  0.035
   11  0.009  0.000  0.022  0.031
   12  0.010  0.000  0.025  0.035
   13  0.009  0.000  0.022  0.031
   14  0.009  0.000  0.022  0.031
   15  0.004  0.000  0.023  0.028
   16  0.010  0.000  0.025  0.035
   17  0.004  0.000  0.023  0.028
   18  0.004  0.000  0.024  0.028
   19  0.006  0.000  0.020  0.026
   20  0.007  0.000  0.025  0.033
   21  0.007  0.000  0.025  0.033
   22  0.003  0.000  0.019  0.022
   23  0.007  0.000  0.025  0.033
   24  0.003  0.000  0.019  0.022
   25  0.006  0.000  0.020  0.026
   26  0.006  0.000  0.020  0.026
   27  0.003  0.000  0.019  0.022
   28  0.001  0.001  0.006  0.008
   29  0.003  0.001  0.009  0.012
   30  0.003  0.001  0.009  0.012
   31  0.003  0.001  0.009  0.012
   32  0.003  0.001  0.009  0.012
   33  0.003  0.001  0.009  0.012
   34  0.003  0.001  0.009  0.012
   35  0.007  0.000  0.006  0.013
   36  0.004  0.001  0.007  0.012
   37  0.000  0.000  0.000  0.000
   38  0.000  0.000  0.000  0.000
tot    0.206  0.013  0.560  0.780
 
band    15 # energy   -4.71205085 # occ.  2.00000000
 
ion      s      p      d    tot
    1  0.000  0.002  0.009  0.012
    2  0.000  0.001  0.005  0.007
    3  0.020  0.004  0.005  0.029
    4  0.009  0.003  0.005  0.017
    5  0.000  0.006  0.009  0.015
    6  0.015  0.003  0.005  0.023
    7  0.017  0.004  0.005  0.026
    8  0.002  0.002  0.005  0.009
    9  0.000  0.001  0.011  0.012
   10  0.002  0.001  0.017  0.020
   11  0.009  0.003  0.016  0.028
   12  0.017  0.004  0.008  0.028
   13  0.022  0.004  0.005  0.031
   14  0.002  0.002  0.022  0.027
   15  0.000  0.003  0.013  0.015
   16  0.007  0.002  0.014  0.023
   17  0.000  0.000  0.008  0.009
   18  0.000  0.004  0.015  0.019
   19  0.001  0.002  0.017  0.019
   20  0.002  0.001  0.029  0.033
   21  0.017  0.005  0.006  0.029
   22  0.007  0.004  0.011  0.022
   23  0.007  0.003  0.021  0.031
   24  0.001  0.001  0.011  0.013
   25  0.000  0.002  0.022  0.025
   26  0.002  0.000  0.007  0.009
   27  0.003  0.002  0.011  0.016
   28  0.000  0.002  0.014  0.016
   29  0.000  0.001  0.007  0.008
   30  0.018  0.004  0.008  0.030
   31  0.010  0.003  0.007  0.020
   32  0.013  0.003  0.007  0.023
   33  0.017  0.004  0.007  0.028
   34  0.001  0.001  0.007  0.009
   35  0.000  0.001  0.011  0.012
   36  0.000  0.008  0.012  0.021
   37  0.000  0.001  0.000  0.001
   38  0.000  0.000  0.000  0.000
tot    0.222  0.096  0.394  0.712
 
band    16 # energy   -4.71200773 # occ.  2.00000000
 
ion      s      p      d    tot
    1  0.000  0.002  0.009  0.012
    2  0.021  0.004  0.005  0.030
    3  0.001  0.002  0.005  0.008
    4  0.011  0.003  0.005  0.019
    5  0.000  0.006  0.009  0.015
    6  0.006  0.002  0.005  0.014
    7  0.004  0.002  0.005  0.011
    8  0.019  0.004  0.005  0.028
    9  0.000  0.001  0.011  0.012
   10  0.014  0.004  0.009  0.027
   11  0.013  0.003  0.013  0.029
   12  0.001  0.001  0.018  0.019
   13  0.001  0.002  0.023  0.026
   14  0.020  0.003  0.007  0.030
   15  0.000  0.002  0.011  0.013
   16  0.010  0.003  0.012  0.025
   17  0.000  0.004  0.015  0.020
   18  0.000  0.001  0.009  0.010
   19  0.001  0.001  0.014  0.016
   20  0.016  0.005  0.008  0.029
   21  0.001  0.001  0.031  0.033
   22  0.000  0.001  0.011  0.012
   23  0.010  0.004  0.017  0.031
   24  0.006  0.003  0.011  0.020
   25  0.002  0.001  0.009  0.011
   26  0.000  0.003  0.024  0.026
   27  0.004  0.003  0.011  0.018
   28  0.000  0.002  0.014  0.016
   29  0.020  0.004  0.008  0.031
   30  0.002  0.002  0.007  0.010
   31  0.009  0.003  0.007  0.019
   32  0.007  0.002  0.007  0.017
   33  0.003  0.002  0.007  0.011
   34  0.019  0.004  0.008  0.030
   35  0.000  0.001  0.011  0.012
   36  0.000  0.008  0.012  0.021
   37  0.000  0.001  0.000  0.001
   38  0.000  0.000  0.000  0.000
tot    0.222  0.096  0.394  0.712
 
band    17 # energy   -4.71116370 # occ.  2.00000000
 
ion      s      p      d    tot
    1  0.033  0.003  0.000  0.036
    2  0.000  0.003  0.009  0.013
    3  0.000  0.003  0.010  0.012
    4  0.000  0.003  0.009  0.013
    5  0.000  0.000  0.001  0.001
    6  0.000  0.003  0.010  0.013
    7  0.000  0.003  0.010  0.012
    8  0.000  0.003  0.010  0.013
    9  0.026  0.004  0.001  0.031
   10  0.009  0.003  0.010  0.022
   11  0.001  0.000  0.015  0.016
   12  0.008  0.003  0.010  0.021
   13  0.001  0.000  0.015  0.016
   14  0.002  0.000  0.015  0.017
   15  0.009  0.004  0.014  0.027
   16  0.008  0.003  0.010  0.022
   17  0.009  0.004  0.014  0.027
   18  0.009  0.004  0.014  0.026
   19  0.003  0.003  0.021  0.027
   20  0.000  0.000  0.013  0.014
   21  0.000  0.000  0.013  0.013
   22  0.010  0.004  0.009  0.022
   23  0.000  0.000  0.013  0.013
   24  0.011  0.004  0.008  0.023
   25  0.003  0.003  0.021  0.027
   26  0.003  0.003  0.022  0.028
   27  0.010  0.004  0.009  0.022
   28  0.038  0.003  0.000  0.041
   29  0.000  0.003  0.014  0.018
   30  0.000  0.003  0.015  0.018
   31  0.000  0.003  0.014  0.018
   32  0.000  0.003  0.014  0.018
   33  0.000  0.003  0.015  0.018
   34  0.000  0.003  0.014  0.018
   35  0.028  0.003  0.001  0.032
   36  0.000  0.000  0.000  0.000
   37  0.000  0.000  0.000  0.000
   38  0.000  0.000  0.000  0.000
tot    0.223  0.090  0.394  0.707
 
band    18 # energy   -4.58014661 # occ.  2.00000000
 
ion      s      p      d    tot
    1  0.015  0.001  0.000  0.016
    2  0.000  0.003  0.011  0.014
    3  0.000  0.003  0.011  0.014
    4  0.000  0.003  0.011  0.014
    5  0.043  0.004  0.000  0.047
    6  0.000  0.003  0.011  0.014
    7  0.000  0.003  0.011  0.014
    8  0.000  0.003  0.011  0.014
    9  0.006  0.001  0.000  0.007
   10  0.001  0.001  0.023  0.026
   11  0.007  0.004  0.017  0.028
   12  0.001  0.001  0.023  0.026
   13  0.007  0.004  0.017  0.028
   14  0.007  0.004  0.017  0.028
   15  0.004  0.001  0.009  0.014
   16  0.001  0.001  0.023  0.026
   17  0.004  0.001  0.009  0.014
   18  0.004  0.001  0.009  0.014
   19  0.008  0.001  0.017  0.025
   20  0.012  0.004  0.008  0.024
   21  0.012  0.004  0.008  0.024
   22  0.001  0.001  0.019  0.021
   23  0.012  0.004  0.008  0.024
   24  0.001  0.001  0.019  0.021
   25  0.008  0.001  0.017  0.025
   26  0.008  0.001  0.017  0.025
   27  0.001  0.001  0.019  0.021
   28  0.006  0.001  0.002  0.009
   29  0.000  0.003  0.014  0.017
   30  0.000  0.003  0.014  0.017
   31  0.000  0.003  0.014  0.017
   32  0.000  0.003  0.014  0.017
   33  0.000  0.003  0.014  0.017
   34  0.000  0.003  0.014  0.017
   35  0.008  0.001  0.000  0.009
   36  0.032  0.017  0.002  0.052
   37  0.001  0.005  0.000  0.006
   38  0.002  0.000  0.000  0.002
tot    0.211  0.104  0.433  0.748
 
band    19 # energy   -4.10300775 # occ.  2.00000000
 
ion      s      p      d    tot
    1  0.000  0.001  0.026  0.027
    2  0.014  0.001  0.007  0.023
    3  0.010  0.001  0.007  0.019
    4  0.013  0.001  0.008  0.022
    5  0.000  0.001  0.015  0.016
    6  0.008  0.001  0.008  0.017
    7  0.001  0.001  0.007  0.009
    8  0.000  0.001  0.007  0.008
    9  0.000  0.003  0.003  0.006
   10  0.000  0.000  0.052  0.052
   11  0.000  0.004  0.018  0.022
   12  0.000  0.000  0.037  0.037
   13  0.000  0.002  0.012  0.014
   14  0.000  0.000  0.009  0.010
   15  0.000  0.007  0.012  0.019
   16  0.000  0.001  0.005  0.006
   17  0.000  0.003  0.019  0.022
   18  0.000  0.001  0.023  0.024
   19  0.005  0.004  0.016  0.026
   20  0.000  0.000  0.049  0.050
   21  0.000  0.000  0.037  0.037
   22  0.002  0.001  0.017  0.020
   23  0.000  0.000  0.012  0.013
   24  0.001  0.000  0.019  0.020
   25  0.001  0.001  0.021  0.022
   26  0.002  0.002  0.019  0.023
   27  0.005  0.002  0.012  0.019
   28  0.000  0.001  0.007  0.008
   29  0.004  0.000  0.023  0.027
   30  0.001  0.001  0.019  0.020
   31  0.013  0.000  0.027  0.040
   32  0.014  0.000  0.025  0.040
   33  0.003  0.001  0.015  0.019
   34  0.008  0.001  0.018  0.026
   35  0.000  0.001  0.014  0.016
   36  0.000  0.000  0.030  0.030
   37  0.000  0.003  0.000  0.003
   38  0.000  0.000  0.000  0.000
tot    0.104  0.049  0.657  0.810
 
band    20 # energy   -4.10298889 # occ.  2.00000000
 
ion      s      p      d    tot
    1  0.000  0.001  0.026  0.027
    2  0.001  0.001  0.007  0.009
    3  0.005  0.001  0.008  0.014
    4  0.003  0.001  0.007  0.011
    5  0.000  0.001  0.015  0.016
    6  0.008  0.001  0.007  0.016
    7  0.014  0.002  0.008  0.023
    8  0.015  0.002  0.007  0.024
    9  0.000  0.003  0.003  0.006
   10  0.000  0.001  0.010  0.011
   11  0.000  0.000  0.008  0.008
   12  0.000  0.000  0.026  0.026
   13  0.000  0.002  0.014  0.016
   14  0.000  0.003  0.017  0.020
   15  0.000  0.000  0.024  0.024
   16  0.000  0.000  0.057  0.057
   17  0.000  0.004  0.017  0.021
   18  0.000  0.006  0.014  0.020
   19  0.000  0.000  0.022  0.022
   20  0.000  0.000  0.016  0.017
   21  0.000  0.000  0.029  0.029
   22  0.003  0.001  0.015  0.019
   23  0.000  0.000  0.053  0.054
   24  0.004  0.002  0.013  0.019
   25  0.005  0.004  0.017  0.025
   26  0.003  0.003  0.018  0.024
   27  0.000  0.000  0.019  0.020
   28  0.000  0.001  0.007  0.008
   29  0.011  0.000  0.020  0.031
   30  0.014  0.000  0.024  0.038
   31  0.001  0.001  0.015  0.017
   32  0.000  0.001  0.017  0.018
   33  0.011  0.000  0.027  0.038
   34  0.006  0.000  0.025  0.032
   35  0.000  0.001  0.014  0.016
   36  0.000  0.000  0.030  0.030
   37  0.000  0.003  0.000  0.003
   38  0.000  0.000  0.000  0.000
tot    0.104  0.049  0.657  0.810
 
band    21 # energy   -4.04963331 # occ.  2.00000000
 
ion      s      p      d    tot
    1  0.003  0.000  0.000  0.003
    2  0.000  0.001  0.015  0.016
    3  0.000  0.001  0.015  0.016
    4  0.000  0.001  0.015  0.016
    5  0.013  0.001  0.000  0.013
    6  0.000  0.001  0.015  0.016
    7  0.000  0.001  0.015  0.016
    8  0.000  0.001  0.015  0.016
    9  0.027  0.001  0.001  0.030
   10  0.000  0.001  0.006  0.007
   11  0.000  0.000  0.019  0.020
   12  0.000  0.001  0.006  0.007
   13  0.000  0.000  0.019  0.020
   14  0.000  0.000  0.019  0.020
   15  0.000  0.003  0.035  0.038
   16  0.000  0.001  0.006  0.007