 vasp.6.2.0 18Jan21 (build Jun 12 2021 23:27:24) complex                        
  
 executed on             LinuxIFC date 2022.05.27  06:11:51
 running on   28 total cores
 distrk:  each k-point on   28 cores,    1 groups
 distr:  one band on NCORE=   1 cores,   28 groups


--------------------------------------------------------------------------------------------------------


 INCAR:
   ISMEAR = -5
   SIGMA = 0.1
   ISPIN = 1
   EDIFF = 1.d-5
   EDIFFG = -0.01
   NSW = 0
   NELM = 150
   ENCUT = 500
   ISIF = 2
   IBRION = 2
   LREAL = Auto
   ALGO = Fast
   ICHARG = 11
   LORBIT = 10
   LCHARG = .F.
   LWAVE = .F.

 POTCAR:    PAW_PBE Cu 22Jun2005                  
 POTCAR:    PAW_PBE Rh 04Feb2005                  
 POTCAR:    PAW_PBE O 08Apr2002                   
 POTCAR:    PAW_PBE H 15Jun2001                   
 -----------------------------------------------------------------------------
|                                                                             |
|           W    W    AA    RRRRR   N    N  II  N    N   GGGG   !!!           |
|           W    W   A  A   R    R  NN   N  II  NN   N  G    G  !!!           |
|           W    W  A    A  R    R  N N  N  II  N N  N  G       !!!           |
|           W WW W  AAAAAA  RRRRR   N  N N  II  N  N N  G  GGG   !            |
|           WW  WW  A    A  R   R   N   NN  II  N   NN  G    G                |
|           W    W  A    A  R    R  N    N  II  N    N   GGGG   !!!           |
|                                                                             |
|     For optimal performance we recommend to set                             |
|       NCORE = 2 up to number-of-cores-per-socket                            |
|     NCORE specifies how many cores store one orbital (NPAR=cpu/NCORE).      |
|     This setting can greatly improve the performance of VASP for DFT.       |
|     The default, NCORE=1 might be grossly inefficient on modern             |
|     multi-core architectures or massively parallel machines. Do your        |
|     own testing! More info at https://www.vasp.at/wiki/index.php/NCORE      |
|     Unfortunately you need to use the default for GW and RPA                |
|     calculations (for HF NCORE is supported but not extensively tested      |
|     yet).                                                                   |
|                                                                             |
 -----------------------------------------------------------------------------

 POTCAR:    PAW_PBE Cu 22Jun2005                  
   VRHFIN =Cu: d10 p1                                                                               
   LEXCH  = PE                                                                                      
   EATOM  =  1390.9808 eV,  102.2342 Ry                                                             
                                                                                                    
   TITEL  = PAW_PBE Cu 22Jun2005                                                                    
   LULTRA =        F    use ultrasoft PP ?                                                          
   IUNSCR =        1    unscreen: 0-lin 1-nonlin 2-no                                               
   RPACOR =    2.000    partial core radius                                                         
   POMASS =   63.546; ZVAL   =   11.000    mass and valenz                                          
   RCORE  =    2.300    outmost cutoff radius                                                       
   RWIGS  =    2.200; RWIGS  =    1.164    wigner-seitz radius (au A)                               
   ENMAX  =  295.446; ENMIN  =  221.585 eV                                                          
   ICORE  =        3    local potential                                                             
   LCOR   =        T    correct aug charges                                                         
   LPAW   =        T    paw PP                                                                      
   EAUG   =  586.980                                                                                
   DEXC   =    0.000                                                                                
   RMAX   =    2.344    core radius for proj-oper                                                   
   RAUG   =    1.300    factor for augmentation sphere                                              
   RDEP   =    2.302    radius for radial grids                                                     
   RDEPT  =    1.771    core radius for aug-charge                                                  
                                                                                                    
   Atomic configuration                                                                             
    9 entries                                                                                       
     n  l   j            E        occ.                                                              
     1  0  0.50     -8850.2468   2.0000                                                             
     2  0  0.50     -1062.3498   2.0000                                                             
     2  1  1.50      -916.8226   6.0000                                                             
     3  0  0.50      -114.6929   2.0000                                                             
     3  1  1.50       -72.1325   6.0000                                                             
     3  2  2.50        -5.0394  10.0000                                                             
     4  0  0.50        -4.6097   1.0000                                                             
     4  1  0.50        -4.0817   0.0000                                                             
     4  3  2.50        -1.3606   0.0000                                                             
   Description                                                                                      
     l       E           TYP  RCUT    TYP  RCUT                                                     
     2     -5.0393973     23  2.200                                                                 
     2     10.8846608     23  2.200                                                                 
     0     -4.6097109     23  2.200                                                                 
     0      8.2520465     23  2.200                                                                 
     1     -2.7211652     23  2.200                                                                 
     1     21.7055443     23  2.200                                                                 
     3      2.7211652     23  2.300                                                                 
  local pseudopotential read in
  partial core-charges read in
  partial kinetic energy density read in
  atomic valenz-charges read in
  non local Contribution for L=           2  read in
    real space projection operators read in
  non local Contribution for L=           2  read in
    real space projection operators read in
  non local Contribution for L=           0  read in
    real space projection operators read in
  non local Contribution for L=           0  read in
    real space projection operators read in
  non local Contribution for L=           1  read in
    real space projection operators read in
  non local Contribution for L=           1  read in
    real space projection operators read in
    PAW grid and wavefunctions read in
 
   number of l-projection  operators is LMAX  =           6
   number of lm-projection operators is LMMAX =          18
 
 POTCAR:    PAW_PBE Rh 04Feb2005                  
   VRHFIN =Rh: s1 d8                                                                                
   LEXCH  = PE                                                                                      
   EATOM  =   616.4198 eV,   45.3056 Ry                                                             
                                                                                                    
   TITEL  = PAW_PBE Rh 04Feb2005                                                                    
   LULTRA =        F    use ultrasoft PP ?                                                          
   IUNSCR =        1    unscreen: 0-lin 1-nonlin 2-no                                               
   RPACOR =    2.170    partial core radius                                                         
   POMASS =  102.906; ZVAL   =    9.000    mass and valenz                                          
   RCORE  =    2.700    outmost cutoff radius                                                       
   RWIGS  =    2.650; RWIGS  =    1.402    wigner-seitz radius (au A)                               
   ENMAX  =  228.996; ENMIN  =  171.747 eV                                                          
   ICORE  =        3    local potential                                                             
   LCOR   =        T    correct aug charges                                                         
   LPAW   =        T    paw PP                                                                      
   EAUG   =  374.513                                                                                
   DEXC   =    0.000                                                                                
   RMAX   =    2.752    core radius for proj-oper                                                   
   RAUG   =    1.300    factor for augmentation sphere                                              
   RDEP   =    2.703    radius for radial grids                                                     
   RDEPT  =    2.174    core radius for aug-charge                                                  
                                                                                                    
   Atomic configuration                                                                             
   12 entries                                                                                       
     n  l   j            E        occ.                                                              
     1  0  0.50    -23034.1986   2.0000                                                             
     2  0  0.50     -3339.2387   2.0000                                                             
     2  1  1.50     -2992.3290   6.0000                                                             
     3  0  0.50      -596.7249   2.0000                                                             
     3  1  1.50      -482.7183   6.0000                                                             
     3  2  2.50      -300.5356  10.0000                                                             
     4  0  0.50       -82.4809   2.0000                                                             
     4  1  0.50       -50.4082   6.0000                                                             
     4  2  2.50        -5.9408   8.0000                                                             
     5  0  0.50        -4.2999   1.0000                                                             
     5  1  1.50        -1.3606   0.0000                                                             
     4  3  2.50        -1.3606   0.0000                                                             
   Description                                                                                      
     l       E           TYP  RCUT    TYP  RCUT                                                     
     2     -5.9407964     23  2.500                                                                 
     2     -7.3013790     23  2.500                                                                 
     0     -4.2998518     23  2.400                                                                 
     0      6.0533315     23  2.400                                                                 
     1     -4.0817478     23  2.700                                                                 
     1     27.2116520     23  2.700                                                                 
     3     -4.0817478     23  2.500                                                                 
  local pseudopotential read in
  partial core-charges read in
  partial kinetic energy density read in
  atomic valenz-charges read in
  non local Contribution for L=           2  read in
    real space projection operators read in
  non local Contribution for L=           2  read in
    real space projection operators read in
  non local Contribution for L=           0  read in
    real space projection operators read in
  non local Contribution for L=           0  read in
    real space projection operators read in
  non local Contribution for L=           1  read in
    real space projection operators read in
  non local Contribution for L=           1  read in
    real space projection operators read in
    PAW grid and wavefunctions read in
 
   number of l-projection  operators is LMAX  =           6
   number of lm-projection operators is LMMAX =          18
 
 POTCAR:    PAW_PBE O 08Apr2002                   
   VRHFIN =O: s2p4                                                                                  
   LEXCH  = PE                                                                                      
   EATOM  =   432.3788 eV,   31.7789 Ry                                                             
                                                                                                    
   TITEL  = PAW_PBE O 08Apr2002                                                                     
   LULTRA =        F    use ultrasoft PP ?                                                          
   IUNSCR =        1    unscreen: 0-lin 1-nonlin 2-no                                               
   RPACOR =    1.200    partial core radius                                                         
   POMASS =   16.000; ZVAL   =    6.000    mass and valenz                                          
   RCORE  =    1.520    outmost cutoff radius                                                       
   RWIGS  =    1.550; RWIGS  =    0.820    wigner-seitz radius (au A)                               
   ENMAX  =  400.000; ENMIN  =  300.000 eV                                                          
   ICORE  =        2    local potential                                                             
   LCOR   =        T    correct aug charges                                                         
   LPAW   =        T    paw PP                                                                      
   EAUG   =  605.392                                                                                
   DEXC   =    0.000                                                                                
   RMAX   =    1.553    core radius for proj-oper                                                   
   RAUG   =    1.300    factor for augmentation sphere                                              
   RDEP   =    1.550    radius for radial grids                                                     
   RDEPT  =    1.329    core radius for aug-charge                                                  
                                                                                                    
   Atomic configuration                                                                             
    4 entries                                                                                       
     n  l   j            E        occ.                                                              
     1  0  0.50      -514.6923   2.0000                                                             
     2  0  0.50       -23.9615   2.0000                                                             
     2  1  0.50        -9.0305   4.0000                                                             
     3  2  1.50        -9.5241   0.0000                                                             
   Description                                                                                      
     l       E           TYP  RCUT    TYP  RCUT                                                     
     0    -23.9615318     23  1.200                                                                 
     0     -9.5240782     23  1.200                                                                 
     1     -9.0304911     23  1.520                                                                 
     1      8.1634956     23  1.520                                                                 
     2     -9.5240782      7  1.500                                                                 
  local pseudopotential read in
  partial core-charges read in
  partial kinetic energy density read in
  kinetic energy density of atom read in
  atomic valenz-charges read in
  non local Contribution for L=           0  read in
    real space projection operators read in
  non local Contribution for L=           0  read in
    real space projection operators read in
  non local Contribution for L=           1  read in
    real space projection operators read in
  non local Contribution for L=           1  read in
    real space projection operators read in
    PAW grid and wavefunctions read in
 
   number of l-projection  operators is LMAX  =           4
   number of lm-projection operators is LMMAX =           8
 
 POTCAR:    PAW_PBE H 15Jun2001                   
   VRHFIN =H: ultrasoft test                                                                        
   LEXCH  = PE                                                                                      
   EATOM  =    12.4884 eV,    0.9179 Ry                                                             
                                                                                                    
   TITEL  = PAW_PBE H 15Jun2001                                                                     
   LULTRA =        F    use ultrasoft PP ?                                                          
   IUNSCR =        0    unscreen: 0-lin 1-nonlin 2-no                                               
   RPACOR =    0.000    partial core radius                                                         
   POMASS =    1.000; ZVAL   =    1.000    mass and valenz                                          
   RCORE  =    1.100    outmost cutoff radius                                                       
   RWIGS  =    0.700; RWIGS  =    0.370    wigner-seitz radius (au A)                               
   ENMAX  =  250.000; ENMIN  =  200.000 eV                                                          
   RCLOC  =    0.701    cutoff for local pot                                                        
   LCOR   =        T    correct aug charges                                                         
   LPAW   =        T    paw PP                                                                      
   EAUG   =  400.000                                                                                
   RMAX   =    1.123    core radius for proj-oper                                                   
   RAUG   =    1.200    factor for augmentation sphere                                              
   RDEP   =    1.112    radius for radial grids                                                     
   RDEPT  =    0.926    core radius for aug-charge                                                  
                                                                                                    
   Atomic configuration                                                                             
    2 entries                                                                                       
     n  l   j            E        occ.                                                              
     1  0  0.50        -6.4927   1.0000                                                             
     2  1  0.50        -3.4015   0.0000                                                             
   Description                                                                                      
     l       E           TYP  RCUT    TYP  RCUT                                                     
     0     -6.4927494     23  1.100                                                                 
     0      6.8029130     23  1.100                                                                 
     1     -4.0817478     23  1.100                                                                 
  local pseudopotential read in
  atomic valenz-charges read in
  non local Contribution for L=           0  read in
    real space projection operators read in
  non local Contribution for L=           0  read in
    real space projection operators read in
  non local Contribution for L=           1  read in
    real space projection operators read in
    PAW grid and wavefunctions read in
 
   number of l-projection  operators is LMAX  =           3
   number of lm-projection operators is LMMAX =           5
 
 Optimization of the real space projectors (new method)

 maximal supplied QI-value         = 16.25
 optimisation between [QCUT,QGAM] = [ 11.38, 22.75] = [ 36.24,144.96] Ry 
 Optimized for a Real-space Cutoff    1.52 Angstroem

   l    n(q)    QCUT    max X(q) W(low)/X(q) W(high)/X(q)  e(spline) 
   2      9    11.376     4.610    0.21E-03    0.10E-03    0.26E-06
   2      9    11.376     8.522    0.33E-03    0.16E-03    0.37E-06
   0     10    11.376    51.609    0.62E-04    0.20E-04    0.13E-06
   0     10    11.376    27.747    0.54E-04    0.20E-04    0.13E-06
   1     10    11.376    20.408    0.13E-04    0.99E-04    0.19E-06
   1     10    11.376    13.425    0.12E-04    0.87E-04    0.17E-06
 Optimization of the real space projectors (new method)

 maximal supplied QI-value         = 13.98
 optimisation between [QCUT,QGAM] = [ 11.33, 22.79] = [ 35.93,145.49] Ry 
 Optimized for a Real-space Cutoff    1.47 Angstroem

   l    n(q)    QCUT    max X(q) W(low)/X(q) W(high)/X(q)  e(spline) 
   2      9    11.327    59.645    0.31E-03    0.12E-04    0.28E-06
   2      9    11.327    58.460    0.31E-03    0.12E-04    0.29E-06
   0     10    11.327    97.683    0.32E-04    0.83E-04    0.31E-06
   0     10    11.327    53.223    0.30E-04    0.78E-04    0.29E-06
   1     10    11.327    13.596    0.49E-03    0.95E-03    0.55E-06
   1     10    11.327     7.885    0.36E-03    0.71E-03    0.41E-06
 Optimization of the real space projectors (new method)

 maximal supplied QI-value         = 24.76
 optimisation between [QCUT,QGAM] = [ 11.39, 22.77] = [ 36.31,145.25] Ry 
 Optimized for a Real-space Cutoff    1.00 Angstroem

   l    n(q)    QCUT    max X(q) W(low)/X(q) W(high)/X(q)  e(spline) 
   0      7    11.387    20.381    0.39E-03    0.13E-02    0.15E-06
   0      7    11.387    15.268    0.42E-03    0.14E-02    0.17E-06
   1      6    11.387     5.964    0.41E-03    0.11E-02    0.17E-06
   1      6    11.387     5.382    0.39E-03    0.87E-03    0.15E-06
 Optimization of the real space projectors (new method)

 maximal supplied QI-value         = 34.20
 optimisation between [QCUT,QGAM] = [ 11.29, 22.57] = [ 35.68,142.71] Ry 
 Optimized for a Real-space Cutoff    1.16 Angstroem

   l    n(q)    QCUT    max X(q) W(low)/X(q) W(high)/X(q)  e(spline) 
   0      8    11.287    19.460    0.40E-03    0.73E-03    0.16E-06
   0      8    11.287    12.209    0.38E-03    0.70E-03    0.15E-06
   1      7    11.287     4.655    0.22E-03    0.25E-04    0.22E-06
  PAW_PBE Cu 22Jun2005                  :
 energy of atom  1       EATOM=-1390.9808
 kinetic energy error for atom=    0.0043 (will be added to EATOM!!)
  PAW_PBE Rh 04Feb2005                  :
 energy of atom  2       EATOM= -616.4198
 kinetic energy error for atom=    0.0030 (will be added to EATOM!!)
  PAW_PBE O 08Apr2002                   :
 energy of atom  3       EATOM= -432.3788
 kinetic energy error for atom=    0.0224 (will be added to EATOM!!)
  PAW_PBE H 15Jun2001                   :
 energy of atom  4       EATOM=  -12.4884
 kinetic energy error for atom=    0.0020 (will be added to EATOM!!)
 
 
 POSCAR: Cu-Rh-OH
  positions in direct lattice
  velocities in cartesian coordinates
 exchange correlation table for  LEXCH =        8
   RHO(1)=    0.500       N(1)  =     2000
   RHO(2)=  100.500       N(2)  =     4000

 VTST: version 3.2, (02/03/18)

 CHAIN: initializing optimizer
 
 OPT: Using VASP Conjugate-Gradient optimizer
 CHAIN: Read ICHAIN            0
 
 POSCAR: Cu-Rh-OH
  positions in direct lattice
  velocities in cartesian coordinates
 


--------------------------------------------------------------------------------------------------------


 ion  position               nearest neighbor table
   1  0.000  0.000  0.252-   7 2.57   3 2.57   4 2.57   2 2.57   6 2.57   8 2.57  12 2.57  10 2.57
                            16 2.57
   2  0.333  0.000  0.252-   8 2.57   9 2.57   5 2.57   1 2.57   3 2.57  11 2.57   4 2.57  10 2.57
                            17 2.57
   3  0.667  0.000  0.252-   1 2.57   7 2.57   6 2.57   9 2.57   2 2.57  12 2.57   5 2.57  18 2.57
                            11 2.57
   4  0.000  0.333  0.252-   5 2.57   6 2.57   1 2.57   7 2.57   2 2.57  13 2.57   9 2.57  10 2.57
                            15 2.57
   5  0.333  0.333  0.252-   4 2.57   2 2.57   7 2.57  13 2.57   8 2.57   6 2.57   3 2.57  11 2.57
                            14 2.57
   6  0.667  0.333  0.252-   4 2.57   9 2.57  15 2.57   3 2.57   1 2.57   8 2.57  14 2.57   5 2.57
                            12 2.57
   7  0.000  0.667  0.252-   1 2.57   3 2.57  16 2.57  18 2.57   4 2.57   5 2.57   8 2.57   9 2.57
                            13 2.57
   8  0.333  0.667  0.252-   9 2.57   2 2.57  17 2.57   6 2.57   1 2.57   7 2.57   5 2.57  14 2.57
                            16 2.57
   9  0.667  0.667  0.252-   8 2.57   6 2.57   2 2.57  17 2.57   3 2.57   7 2.57   4 2.57  15 2.57
                            18 2.57
  10  0.111  0.111  0.351-  20 2.55  26 2.56  19 2.56  11 2.57  12 2.57  13 2.57   1 2.57   2 2.57
                             4 2.57  15 2.57  16 2.57  17 2.57
  11  0.444  0.111  0.351-  20 2.55  21 2.55  27 2.56  10 2.57  13 2.57   2 2.57  17 2.57  14 2.57
                            12 2.57   5 2.57   3 2.57  18 2.57
  12  0.778  0.111  0.351-  21 2.55  19 2.56  25 2.56  15 2.57  10 2.57  14 2.57  18 2.57   3 2.57
                             1 2.57  16 2.57  11 2.57   6 2.57
  13  0.111  0.444  0.351-  23 2.55  20 2.55  22 2.56  16 2.57  18 2.57  10 2.57  11 2.57  14 2.57
                             5 2.57   4 2.57   7 2.57  15 2.57
  14  0.444  0.444  0.351-  21 2.55  23 2.55  24 2.56  15 2.57  17 2.57  12 2.57  16 2.57  13 2.57
                            11 2.57   6 2.57   8 2.57   5 2.57
  15  0.778  0.444  0.351-  19 2.56  24 2.56  22 2.56  14 2.57  17 2.57  12 2.57   6 2.57  18 2.57
                            10 2.57   9 2.57  13 2.57   4 2.57
  16  0.111  0.778  0.351-  23 2.55  25 2.56  26 2.56  18 2.57  13 2.57   7 2.57  14 2.57  17 2.57
                            12 2.57  10 2.57   8 2.57   1 2.57
  17  0.444  0.778  0.351-  26 2.56  27 2.56  24 2.56  14 2.57  15 2.57   8 2.57   9 2.57  11 2.57
                            16 2.57  18 2.57  10 2.57   2 2.57
  18  0.778  0.778  0.351-  25 2.56  22 2.56  27 2.56  16 2.57  13 2.57   7 2.57  15 2.57  12 2.57
                            17 2.57   9 2.57   3 2.57  11 2.57
  19  0.889  0.223  0.449-  28 2.55  32 2.55  31 2.55  15 2.56  12 2.56  10 2.56  21 2.56  20 2.56
                            22 2.56  24 2.56  25 2.57  26 2.57
  20  0.222  0.222  0.448-  10 2.55  11 2.55  13 2.55  26 2.56  19 2.56  27 2.57  22 2.57  36 2.57
                            29 2.58  31 2.58  23 2.58  21 2.58
  21  0.557  0.222  0.448-  12 2.55  14 2.55  11 2.55  19 2.56  25 2.56  24 2.57  27 2.57  36 2.57
                            32 2.58  30 2.58  20 2.58  23 2.58
  22  0.889  0.556  0.449-  35 2.54  31 2.56  33 2.56  18 2.56  15 2.56  19 2.56  25 2.56  13 2.56
                            24 2.56  27 2.56  23 2.57  20 2.57
  23  0.222  0.557  0.448-  16 2.55  13 2.55  14 2.55  25 2.56  26 2.56  22 2.57  24 2.57  36 2.57
                            33 2.58  34 2.58  20 2.58  21 2.58
  24  0.556  0.556  0.449-  35 2.54  32 2.56  34 2.56  15 2.56  17 2.56  19 2.56  26 2.56  14 2.56
                            22 2.56  27 2.56  21 2.57  23 2.57
  25  0.889  0.889  0.449-  28 2.55  33 2.55  30 2.55  18 2.56  16 2.56  12 2.56  21 2.56  23 2.56
                            22 2.56  27 2.56  19 2.57  26 2.57
  26  0.223  0.889  0.449-  28 2.55  29 2.55  34 2.55  17 2.56  10 2.56  16 2.56  20 2.56  23 2.56
                            27 2.56  24 2.56  25 2.57  19 2.57
  27  0.556  0.889  0.449-  35 2.54  29 2.56  30 2.56  17 2.56  18 2.56  26 2.56  25 2.56  11 2.56
                            24 2.56  22 2.56  20 2.57  21 2.57
  28  0.000  0.000  0.546-  25 2.55  19 2.55  26 2.55  33 2.56  30 2.56  31 2.56  29 2.56  32 2.56
                            34 2.56
  29  0.333  0.998  0.547-  34 2.54  26 2.55  28 2.56  27 2.56  35 2.56  31 2.58  20 2.58  36 2.58
                            30 2.59
  30  0.669  0.998  0.547-  33 2.54  25 2.55  28 2.56  27 2.56  35 2.56  32 2.58  21 2.58  36 2.58
                            29 2.59
  31  0.998  0.333  0.547-  32 2.54  19 2.55  28 2.56  22 2.56  35 2.56  29 2.58  20 2.58  36 2.58
                            33 2.59
  32  0.669  0.333  0.547-  31 2.54  19 2.55  28 2.56  24 2.56  35 2.56  30 2.58  21 2.58  36 2.58
                            34 2.59
  33  0.998  0.669  0.547-  30 2.54  25 2.55  28 2.56  22 2.56  35 2.56  34 2.58  23 2.58  36 2.58
                            31 2.59
  34  0.333  0.669  0.547-  29 2.54  26 2.55  28 2.56  24 2.56  35 2.56  33 2.58  23 2.58  36 2.58
                            32 2.59
  35  0.667  0.667  0.546-  24 2.54  27 2.54  22 2.54  34 2.56  32 2.56  29 2.56  30 2.56  33 2.56
                            31 2.56
  36  0.333  0.333  0.547-  37 1.97  23 2.57  20 2.57  21 2.57  31 2.58  29 2.58  33 2.58  34 2.58
                            32 2.58  30 2.58
  37  0.333  0.333  0.639-  38 0.97  36 1.97
  38  0.333  0.333  0.684-  37 0.97
 
  LATTYP: Found a hexagonal cell.
 ALAT       =     7.6967864036
 C/A-ratio  =     2.7653617908
  
  Lattice vectors:
  
 A1 = (  -3.8483927580,  -6.6656128093,   0.0000000000)
 A2 = (   7.6967864037,   0.0000000000,   0.0000000000)
 A3 = (   0.0000000000,   0.0000000000,  21.2843990326)


Analysis of symmetry for initial positions (statically):
=====================================================================
 Subroutine PRICEL returns:
 Original cell was already a primitive cell.
 

 Routine SETGRP: Setting up the symmetry group for a 
 hexagonal supercell.


 Subroutine GETGRP returns: Found  6 space group operations
 (whereof  6 operations were pure point group operations)
 out of a pool of 24 trial point group operations.


The static configuration has the point symmetry C_3v.


Analysis of symmetry for dynamics (positions and initial velocities):
=====================================================================
 Subroutine PRICEL returns:
 Original cell was already a primitive cell.
 

 Routine SETGRP: Setting up the symmetry group for a 
 hexagonal supercell.


 Subroutine GETGRP returns: Found  6 space group operations
 (whereof  6 operations were pure point group operations)
 out of a pool of 24 trial point group operations.


The dynamic configuration has the point symmetry C_3v.


Analysis of constrained symmetry for selective dynamics:
=====================================================================
 Subroutine PRICEL returns:
 Original cell was already a primitive cell.
 

 Routine SETGRP: Setting up the symmetry group for a 
 hexagonal supercell.


 Subroutine GETGRP returns: Found  6 space group operations
 (whereof  6 operations were pure point group operations)
 out of a pool of 24 trial point group operations.


The constrained configuration has the point symmetry C_3v.


 Subroutine INISYM returns: Found  6 space group operations
 (whereof  6 operations are pure point group operations),
 and found     1 'primitive' translations


----------------------------------------------------------------------------------------

                                     Primitive cell                                     

  volume of cell :    1091.9705

  direct lattice vectors                    reciprocal lattice vectors
     7.696786404  0.000000000  0.000000000     0.129924354 -0.075011849  0.000000000
     3.848392758  6.665612809  0.000000000     0.000000000  0.150023716  0.000000000
     0.000000000  0.000000000 21.284399033     0.000000000  0.000000000  0.046982769

  length of vectors
     7.696786404  7.696786404 21.284399033     0.150023716  0.150023716  0.046982769

  position of ions in fractional coordinates (direct lattice)
     0.000000000  0.000000000  0.252370745
     0.333333343  0.000000000  0.252370745
     0.666666687  0.000000000  0.252370745
     1.000000000  0.333333343  0.252370745
     0.333333313  0.333333343  0.252370745
     0.666666687  0.333333343  0.252370745
     1.000000000  0.666666687  0.252370745
     0.333333373  0.666666687  0.252370745
     0.666666627  0.666666687  0.252370745
     0.111111119  0.111111112  0.350790262
     0.444444418  0.111111112  0.350790262
     0.777777791  0.111111112  0.350790262
     0.111111119  0.444444448  0.350790262
     0.444444478  0.444444448  0.350790262
     0.777777731  0.444444448  0.350790262
     0.111111112  0.777777731  0.350790262
     0.444444478  0.777777731  0.350790262
     0.777777851  0.777777731  0.350790262
     0.888628564  0.222742887  0.448748291
     0.221729390  0.221729375  0.448280860
     0.556541280  0.221729375  0.448280860
     0.888703709  0.555648115  0.449042026
     0.221729360  0.556541220  0.448280860
     0.555648175  0.555648115  0.449042026
     0.888628564  0.888628564  0.448748291
     0.222742902  0.888628564  0.448748291
     0.555648115  0.888703709  0.449042026
     0.000000000  0.000000000  0.545915422
     0.332883843  0.998276116  0.547005797
     0.668840071  0.998276116  0.547005797
     0.998276116  0.332883843  0.547005797
     0.668840071  0.332883843  0.547005797
     0.998276116  0.668840071  0.547005797
     0.332883873  0.668840071  0.547005797
     0.666666627  0.666666687  0.546097926
     0.333333313  0.333333343  0.546628567
     0.333333313  0.333333343  0.639079741
     0.333333313  0.333333343  0.684451328

  ion indices of the primitive-cell ions
   primitive index   ion index
                 1           1
                 2           2
                 3           3
                 4           4
                 5           5
                 6           6
                 7           7
                 8           8
                 9           9
                10          10
                11          11
                12          12
                13          13
                14          14
                15          15
                16          16
                17          17
                18          18
                19          19
                20          20
                21          21
                22          22
                23          23
                24          24
                25          25
                26          26
                27          27
                28          28
                29          29
                30          30
                31          31
                32          32
                33          33
                34          34
                35          35
                36          36
                37          37
                38          38

----------------------------------------------------------------------------------------

 
 
 KPOINTS: Automatic mesh                          

Automatic generation of k-mesh.
 Grid dimensions read from file:
 generate k-points for:    8    8    1

 Generating k-lattice:

  Cartesian coordinates                     Fractional coordinates (reciprocal lattice)
     0.016240544 -0.009376481  0.000000000     0.125000000 -0.000000000  0.000000000
     0.000000000  0.018752964  0.000000000     0.000000000  0.125000000  0.000000000
     0.000000000  0.000000000  0.046982769     0.000000000  0.000000000  1.000000000

  Length of vectors
     0.018752964  0.018752964  0.046982769

  Shift w.r.t. Gamma in fractional coordinates (k-lattice)
     0.000000000  0.000000000  0.000000000

 TETIRR: Found     36 inequivalent tetrahedra from      384
 
 Subroutine IBZKPT returns following result:
 ===========================================
 
 Found     10 irreducible k-points:
 
 Following reciprocal coordinates:
            Coordinates               Weight
  0.000000  0.000000  0.000000      1.000000
  0.125000 -0.000000  0.000000      6.000000
  0.250000 -0.000000  0.000000      6.000000
  0.375000 -0.000000  0.000000      6.000000
  0.500000 -0.000000  0.000000      3.000000
  0.250000  0.125000  0.000000      6.000000
  0.375000  0.125000  0.000000     12.000000
  0.500000  0.125000  0.000000     12.000000
  0.500000  0.250000  0.000000      6.000000
 -0.375000  0.250000  0.000000      6.000000
 
 Following cartesian coordinates:
            Coordinates               Weight
  0.000000  0.000000  0.000000      1.000000
  0.016241 -0.009376  0.000000      6.000000
  0.032481 -0.018753  0.000000      6.000000
  0.048722 -0.028129  0.000000      6.000000
  0.064962 -0.037506  0.000000      3.000000
  0.032481  0.000000  0.000000      6.000000
  0.048722 -0.009376  0.000000     12.000000
  0.064962 -0.018753  0.000000     12.000000
  0.064962  0.000000  0.000000      6.000000
 -0.048722  0.065635  0.000000      6.000000
 


--------------------------------------------------------------------------------------------------------




 Dimension of arrays:
   k-points           NKPTS =     10   k-points in BZ     NKDIM =     10   number of bands    NBANDS=    252
   number of dos      NEDOS =    301   number of ions     NIONS =     38
   non local maximal  LDIM  =      6   non local SUM 2l+1 LMDIM =     18
   total plane-waves  NPLWV = 211680
   max r-space proj   IRMAX =   2893   max aug-charges    IRDMAX=  11216
   dimension x,y,z NGX =    42 NGY =   42 NGZ =  120
   dimension x,y,z NGXF=    84 NGYF=   84 NGZF=  240
   support grid    NGXF=    84 NGYF=   84 NGZF=  240
   ions per type =              35   1   1   1
   NGX,Y,Z   is equivalent  to a cutoff of   9.07,  9.07,  9.37 a.u.
   NGXF,Y,Z  is equivalent  to a cutoff of  18.14, 18.14, 18.75 a.u.

 SYSTEM =  unknown system                          
 POSCAR =  Cu-Rh-OH                                

 Startparameter for this run:
   NWRITE =      2    write-flag & timer
   PREC   = normal    normal or accurate (medium, high low for compatibility)
   ISTART =      0    job   : 0-new  1-cont  2-samecut
   ICHARG =     11    charge: 1-file 2-atom 10-const
   ISPIN  =      1    spin polarized calculation?
   LNONCOLLINEAR =      F non collinear calculations
   LSORBIT =      F    spin-orbit coupling
   INIWAV =      1    electr: 0-lowe 1-rand  2-diag
   LASPH  =      F    aspherical Exc in radial PAW
   METAGGA=      F    non-selfconsistent MetaGGA calc.

 Electronic Relaxation 1
   ENCUT  =  500.0 eV  36.75 Ry    6.06 a.u.  14.03 14.03 38.81*2*pi/ulx,y,z
   ENINI  =  500.0     initial cutoff
   ENAUG  =  605.4 eV  augmentation charge cutoff
   NELM   =    150;   NELMIN=  2; NELMDL= -5     # of ELM steps 
   EDIFF  = 0.1E-04   stopping-criterion for ELM
   LREAL  =      T    real-space projection
   NLSPLINE    = F    spline interpolate recip. space projectors
   LCOMPAT=      F    compatible to vasp.4.4
   GGA_COMPAT  = T    GGA compatible to vasp.4.4-vasp.4.6
   LMAXPAW     = -100 max onsite density
   LMAXMIX     =    2 max onsite mixed and CHGCAR
   VOSKOWN=      0    Vosko Wilk Nusair interpolation
   ROPT   =   -0.00050  -0.00050  -0.00050  -0.00050
 Ionic relaxation
   EDIFFG = -.1E-01   stopping-criterion for IOM
   NSW    =      0    number of steps for IOM
   NBLOCK =      1;   KBLOCK =      1    inner block; outer block 
   IBRION =     -1    ionic relax: 0-MD 1-quasi-New 2-CG
   NFREE  =      1    steps in history (QN), initial steepest desc. (CG)
   ISIF   =      2    stress and relaxation
   IWAVPR =     10    prediction:  0-non 1-charg 2-wave 3-comb
   ISYM   =      2    0-nonsym 1-usesym 2-fastsym
   LCORR  =      T    Harris-Foulkes like correction to forces

   POTIM  = 0.5000    time-step for ionic-motion
   TEIN   =    0.0    initial temperature
   TEBEG  =    0.0;   TEEND  =   0.0 temperature during run
   SMASS  =  -3.00    Nose mass-parameter (am)
   estimated Nose-frequenzy (Omega)   =  0.10E-29 period in steps = 0.13E+47 mass=  -0.135E-26a.u.
   SCALEE = 1.0000    scale energy and forces
   NPACO  =    256;   APACO  = 16.0  distance and # of slots for P.C.
   PSTRESS=    0.0 pullay stress

  Mass of Ions in am
   POMASS =  63.55102.91 16.00  1.00
  Ionic Valenz
   ZVAL   =  11.00  9.00  6.00  1.00
  Atomic Wigner-Seitz radii
   RWIGS  =  -1.00 -1.00 -1.00 -1.00
  virtual crystal weights 
   VCA    =   1.00  1.00  1.00  1.00
   NELECT =     401.0000    total number of electrons
   NUPDOWN=      -1.0000    fix difference up-down

 DOS related values:
   EMIN   =  10.00;   EMAX   =-10.00  energy-range for DOS
   EFERMI =   0.00
   ISMEAR =    -5;   SIGMA  =   0.10  broadening in eV -4-tet -1-fermi 0-gaus

 Electronic relaxation 2 (details)
   IALGO  =     68    algorithm
   LDIAG  =      T    sub-space diagonalisation (order eigenvalues)
   LSUBROT=      F    optimize rotation matrix (better conditioning)
   TURBO    =      0    0=normal 1=particle mesh
   IRESTART =      0    0=no restart 2=restart with 2 vectors
   NREBOOT  =      0    no. of reboots
   NMIN     =      0    reboot dimension
   EREF     =   0.00    reference energy to select bands
   IMIX   =      4    mixing-type and parameters
     AMIX     =   0.40;   BMIX     =  1.00
     AMIX_MAG =   1.60;   BMIX_MAG =  1.00
     AMIN     =   0.10
     WC   =   100.;   INIMIX=   1;  MIXPRE=   1;  MAXMIX= -45

 Intra band minimization:
   WEIMIN = 0.0000     energy-eigenvalue tresh-hold
   EBREAK =  0.99E-08  absolut break condition
   DEPER  =   0.30     relativ break condition  

   TIME   =   0.40     timestep for ELM

  volume/ion in A,a.u.               =      28.74       193.92
  Fermi-wavevector in a.u.,A,eV,Ry     =   1.172337  2.215397 18.699510  1.374375
  Thomas-Fermi vector in A             =   2.308768
 
 Write flags
   LWAVE        =      F    write WAVECAR
   LDOWNSAMPLE  =      F    k-point downsampling of WAVECAR
   LCHARG       =      F    write CHGCAR
   LVTOT        =      F    write LOCPOT, total local potential
   LVHAR        =      F    write LOCPOT, Hartree potential only
   LELF         =      F    write electronic localiz. function (ELF)
   LORBIT       =     10    0 simple, 1 ext, 2 COOP (PROOUT), +10 PAW based schemes


 Dipole corrections
   LMONO  =      F    monopole corrections only (constant potential shift)
   LDIPOL =      F    correct potential (dipole corrections)
   IDIPOL =      0    1-x, 2-y, 3-z, 4-all directions 
   EPSILON=  1.0000000 bulk dielectric constant

 Exchange correlation treatment:
   GGA     =    --    GGA type
   LEXCH   =     8    internal setting for exchange type
   VOSKOWN=      0    Vosko Wilk Nusair interpolation
   LHFCALC =     F    Hartree Fock is set to
   LHFONE  =     F    Hartree Fock one center treatment
   AEXX    =    0.0000 exact exchange contribution

 Linear response parameters
   LEPSILON=     F    determine dielectric tensor
   LRPA    =     F    only Hartree local field effects (RPA)
   LNABLA  =     F    use nabla operator in PAW spheres
   LVEL    =     F    velocity operator in full k-point grid
   LINTERFAST=   F  fast interpolation
   KINTER  =     0    interpolate to denser k-point grid
   CSHIFT  =0.1000    complex shift for real part using Kramers Kronig
   OMEGAMAX=  -1.0    maximum frequency
   DEG_THRESHOLD= 0.2000000E-02 threshold for treating states as degnerate
   RTIME   =   -0.100 relaxation time in fs
  (WPLASMAI=    0.000 imaginary part of plasma frequency in eV, 0.658/RTIME)
   DFIELD  = 0.0000000 0.0000000 0.0000000 field for delta impulse in time
 
 Orbital magnetization related:
   ORBITALMAG=     F  switch on orbital magnetization
   LCHIMAG   =     F  perturbation theory with respect to B field
   DQ        =  0.001000  dq finite difference perturbation B field
   LLRAUG    =     F  two centre corrections for induced B field



--------------------------------------------------------------------------------------------------------


 Static calculation
 charge density and potential remain constant during run
 non-spin polarized calculation
 RMM-DIIS sequential band-by-band and
  variant of blocked Davidson during initial phase
 perform sub-space diagonalisation
    before iterative eigenvector-optimisation
 no mixing
 using additional bands           51
 real space projection scheme for non local part
 use partial core corrections
 calculate Harris-corrections to forces 
   (improved forces if not selfconsistent)
 use gradient corrections 
 WARNING: stress and forces are not correct
  (second derivative of E(xc) not defined)
 use of overlap-Matrix (Vanderbilt PP)
 Fermi weights with tetrahedron method with Bloechl corrections


--------------------------------------------------------------------------------------------------------


  energy-cutoff  :      500.00
  volume of cell :     1091.97
      direct lattice vectors                 reciprocal lattice vectors
     7.696786404  0.000000000  0.000000000     0.129924354 -0.075011849  0.000000000
     3.848392758  6.665612809  0.000000000     0.000000000  0.150023716  0.000000000
     0.000000000  0.000000000 21.284399033     0.000000000  0.000000000  0.046982769

  length of vectors
     7.696786404  7.696786404 21.284399033     0.150023716  0.150023716  0.046982769


 
 k-points in units of 2pi/SCALE and weight: Automatic mesh                          
   0.00000000  0.00000000  0.00000000       0.016
   0.01624054 -0.00937648  0.00000000       0.094
   0.03248109 -0.01875296  0.00000000       0.094
   0.04872163 -0.02812944  0.00000000       0.094
   0.06496218 -0.03750592  0.00000000       0.047
   0.03248109  0.00000000  0.00000000       0.094
   0.04872163 -0.00937648  0.00000000       0.188
   0.06496218 -0.01875296  0.00000000       0.188
   0.06496218  0.00000000  0.00000000       0.094
  -0.04872163  0.06563537  0.00000000       0.094
 
 k-points in reciprocal lattice and weights: Automatic mesh                          
   0.00000000  0.00000000  0.00000000       0.016
   0.12500000 -0.00000000  0.00000000       0.094
   0.25000000 -0.00000000  0.00000000       0.094
   0.37500000 -0.00000000  0.00000000       0.094
   0.50000000 -0.00000000  0.00000000       0.047
   0.25000000  0.12500000  0.00000000       0.094
   0.37500000  0.12500000  0.00000000       0.188
   0.50000000  0.12500000  0.00000000       0.188
   0.50000000  0.25000000  0.00000000       0.094
  -0.37500000  0.25000000  0.00000000       0.094
 
 position of ions in fractional coordinates (direct lattice) 
   0.00000000  0.00000000  0.25237075
   0.33333334  0.00000000  0.25237075
   0.66666669  0.00000000  0.25237075
   0.00000000  0.33333334  0.25237075
   0.33333331  0.33333334  0.25237075
   0.66666669  0.33333334  0.25237075
   0.00000000  0.66666669  0.25237075
   0.33333337  0.66666669  0.25237075
   0.66666663  0.66666669  0.25237075
   0.11111112  0.11111111  0.35079026
   0.44444442  0.11111111  0.35079026
   0.77777779  0.11111111  0.35079026
   0.11111112  0.44444445  0.35079026
   0.44444448  0.44444445  0.35079026
   0.77777773  0.44444445  0.35079026
   0.11111111  0.77777773  0.35079026
   0.44444448  0.77777773  0.35079026
   0.77777785  0.77777773  0.35079026
   0.88862856  0.22274289  0.44874829
   0.22172939  0.22172937  0.44828086
   0.55654128  0.22172937  0.44828086
   0.88870371  0.55564812  0.44904203
   0.22172936  0.55654122  0.44828086
   0.55564818  0.55564812  0.44904203
   0.88862856  0.88862856  0.44874829
   0.22274290  0.88862856  0.44874829
   0.55564812  0.88870371  0.44904203
   0.00000000  0.00000000  0.54591542
   0.33288384  0.99827612  0.54700580
   0.66884007  0.99827612  0.54700580
   0.99827612  0.33288384  0.54700580
   0.66884007  0.33288384  0.54700580
   0.99827612  0.66884007  0.54700580
   0.33288387  0.66884007  0.54700580
   0.66666663  0.66666669  0.54609793
   0.33333331  0.33333334  0.54662857
   0.33333331  0.33333334  0.63907974
   0.33333331  0.33333334  0.68445133
 
 position of ions in cartesian coordinates  (Angst):
   0.00000000  0.00000000  5.37155964
   2.56559554  0.00000000  5.37155964
   5.13119109  0.00000000  5.37155964
   1.28279762  2.22187100  5.37155964
   3.84839293  2.22187100  5.37155964
   6.41398872  2.22187100  5.37155964
   2.56559525  4.44374201  5.37155964
   5.13119102  4.44374201  5.37155964
   7.69678588  4.44374201  5.37155964
   1.28279775  0.74062365  7.46635991
   3.84839295  0.74062365  7.46635991
   6.41398873  0.74062365  7.46635991
   2.56559535  2.96249461  7.46635991
   5.13119101  2.96249461  7.46635991
   7.69678586  2.96249461  7.46635991
   3.84839268  5.18436521  7.46635991
   6.41398840  5.18436521  7.46635991
   8.97958418  5.18436521  7.46635991
   7.69678637  1.48471784  9.55133768
   2.55990547  1.47796216  9.54138870
   5.13688108  1.47796216  9.54138870
   8.97851481  3.70373519  9.55758966
   3.84839272  3.70968829  9.54138870
   6.41505750  3.70373519  9.55758966
  10.25937598  5.92325394  9.55133768
   5.13419627  5.92325394  9.55133768
   7.69678578  5.92375483  9.55758966
   0.00000000  0.00000000 11.61948167
   6.40389441  6.65412207 11.64268966
   8.98967774  6.65412207 11.64268966
   8.96458581  2.21887481 11.64268966
   6.42898694  2.21887481 11.64268966
  10.25747732  4.45822895 11.64268966
   5.13609535  4.45822895 11.64268966
   7.69678588  4.44374201 11.62336616
   3.84839293  2.22187100 11.63466055
   3.84839293  2.22187100 13.60242821
   3.84839293  2.22187100 14.56813519
 


--------------------------------------------------------------------------------------------------------


 k-point   1 :   0.0000 0.0000 0.0000  plane waves:   27671
 k-point   2 :   0.1250-0.0000 0.0000  plane waves:   27649
 k-point   3 :   0.2500-0.0000 0.0000  plane waves:   27714
 k-point   4 :   0.3750-0.0000 0.0000  plane waves:   27740
 k-point   5 :   0.5000-0.0000 0.0000  plane waves:   27782
 k-point   6 :   0.2500 0.1250 0.0000  plane waves:   27698
 k-point   7 :   0.3750 0.1250 0.0000  plane waves:   27702
 k-point   8 :   0.5000 0.1250 0.0000  plane waves:   27747
 k-point   9 :   0.5000 0.2500 0.0000  plane waves:   27734
 k-point  10 :  -0.3750 0.2500 0.0000  plane waves:   27782

 maximum and minimum number of plane-waves per node :     27782    27649

 maximum number of plane-waves:     27782
 maximum index in each direction: 
   IXMAX=   14   IYMAX=   14   IZMAX=   38
   IXMIN=  -14   IYMIN=  -14   IZMIN=  -38


 serial   3D FFT for wavefunctions
 parallel 3D FFT for charge:
    minimum data exchange during FFTs selected (reduces bandwidth)


 total amount of memory used by VASP MPI-rank0   105091. kBytes
=======================================================================

   base      :      30000. kBytes
   nonlr-proj:      17702. kBytes
   fftplans  :       2916. kBytes
   grid      :      12878. kBytes
   one-center:        590. kBytes
   wavefun   :      41005. kBytes
 
     INWAV:  cpu time    0.0000: real time    0.0000
 initial charge density was supplied:
 number of electron     400.9999925 magnetization 
 keeping initial charge density in first step


--------------------------------------------------------------------------------------------------------


 Maximum index for non-local projection operator         2777
 Maximum index for augmentation-charges          537 (set IRDMAX)


--------------------------------------------------------------------------------------------------------


 First call to EWALD:  gamma=   0.172
 Maximum number of real-space cells 4x 4x 2
 Maximum number of reciprocal cells 2x 2x 5

    FEWALD:  cpu time    0.0013: real time    0.0014


--------------------------------------- Iteration      1(   1)  ---------------------------------------


    POTLOK:  cpu time    0.0274: real time    0.0278
    SETDIJ:  cpu time    0.0046: real time    0.0047
     EDDAV:  cpu time    5.7371: real time    5.7387
 BZINTS: Fermi energy:   14.279439;  401.000000 electrons
         Band energy: 0.271386E+04;  BLOECHL correction:   -0.041875
       DOS:  cpu time    0.0107: real time    0.0107
    --------------------------------------------
      LOOP:  cpu time    5.7798: real time    5.7819

 eigenvalue-minimisations  :  5040
 total energy-change (2. order) : 0.3629042E+04  (-0.1721155E+05)
 number of electron     400.9999925 magnetization 
 augmentation part      400.9999925 magnetization 

 Free energy of the ion-electron system (eV)
  ---------------------------------------------------
  alpha Z        PSCENC =       886.54759627
  Ewald energy   TEWEN  =    147018.68231975
  -Hartree energ DENC   =   -194576.94470472
  -exchange      EXHF   =         0.00000000
  -V(xc)+E(xc)   XCENC  =      1572.29838462
  PAW double counting   =     46932.33213142   -50663.16796134
  entropy T*S    EENTRO =         0.00000000
  eigenvalues    EBANDS =      2713.85557102
  atomic energy  EATOM  =     49745.43877894
  Solvation  Ediel_sol  =         0.00000000
  ---------------------------------------------------
  free energy    TOTEN  =      3629.04211596 eV

  energy without entropy =     3629.04211596  energy(sigma->0) =     3629.04211596


--------------------------------------------------------------------------------------------------------




--------------------------------------- Iteration      1(   2)  ---------------------------------------


     EDDAV:  cpu time    5.7084: real time    5.7087
 BZINTS: Fermi energy:    3.427650;  401.000000 electrons
         Band energy:-0.552235E+03;  BLOECHL correction:   -0.026209
       DOS:  cpu time    0.0105: real time    0.0105
    --------------------------------------------
      LOOP:  cpu time    5.7189: real time    5.7191

 eigenvalue-minimisations  :  5040
 total energy-change (2. order) :-0.3266091E+04  (-0.3134268E+04)
 number of electron     400.9999925 magnetization 
 augmentation part      400.9999925 magnetization 

 Free energy of the ion-electron system (eV)
  ---------------------------------------------------
  alpha Z        PSCENC =       886.54759627
  Ewald energy   TEWEN  =    147018.68231975
  -Hartree energ DENC   =   -194576.94470472
  -exchange      EXHF   =         0.00000000
  -V(xc)+E(xc)   XCENC  =      1572.29838462
  PAW double counting   =     46932.33213142   -50663.16796134
  entropy T*S    EENTRO =         0.00000000
  eigenvalues    EBANDS =      -552.23536951
  atomic energy  EATOM  =     49745.43877894
  Solvation  Ediel_sol  =         0.00000000
  ---------------------------------------------------
  free energy    TOTEN  =       362.95117543 eV

  energy without entropy =      362.95117543  energy(sigma->0) =      362.95117543


--------------------------------------------------------------------------------------------------------




--------------------------------------- Iteration      1(   3)  ---------------------------------------


     EDDAV:  cpu time    6.0933: real time    6.0934
 BZINTS: Fermi energy:    0.616367;  401.000000 electrons
         Band energy:-0.102302E+04;  BLOECHL correction:   -0.047062
       DOS:  cpu time    0.0094: real time    0.0094
    --------------------------------------------
      LOOP:  cpu time    6.1027: real time    6.1029

 eigenvalue-minimisations  :  5460
 total energy-change (2. order) :-0.4707849E+03  (-0.4454011E+03)
 number of electron     400.9999925 magnetization 
 augmentation part      400.9999925 magnetization 

 Free energy of the ion-electron system (eV)
  ---------------------------------------------------
  alpha Z        PSCENC =       886.54759627
  Ewald energy   TEWEN  =    147018.68231975
  -Hartree energ DENC   =   -194576.94470472
  -exchange      EXHF   =         0.00000000
  -V(xc)+E(xc)   XCENC  =      1572.29838462
  PAW double counting   =     46932.33213142   -50663.16796134
  entropy T*S    EENTRO =         0.00000000
  eigenvalues    EBANDS =     -1023.02031460
  atomic energy  EATOM  =     49745.43877894
  Solvation  Ediel_sol  =         0.00000000
  ---------------------------------------------------
  free energy    TOTEN  =      -107.83376966 eV

  energy without entropy =     -107.83376966  energy(sigma->0) =     -107.83376966


--------------------------------------------------------------------------------------------------------




--------------------------------------- Iteration      1(   4)  ---------------------------------------


     EDDAV:  cpu time    7.1919: real time    7.1920
 BZINTS: Fermi energy:    0.270849;  401.000000 electrons
         Band energy:-0.105335E+04;  BLOECHL correction:   -0.048397
       DOS:  cpu time    0.0102: real time    0.0102
    --------------------------------------------
      LOOP:  cpu time    7.2021: real time    7.2022

 eigenvalue-minimisations  :  6664
 total energy-change (2. order) :-0.3032790E+02  (-0.2946277E+02)
 number of electron     400.9999925 magnetization 
 augmentation part      400.9999925 magnetization 

 Free energy of the ion-electron system (eV)
  ---------------------------------------------------
  alpha Z        PSCENC =       886.54759627
  Ewald energy   TEWEN  =    147018.68231975
  -Hartree energ DENC   =   -194576.94470472
  -exchange      EXHF   =         0.00000000
  -V(xc)+E(xc)   XCENC  =      1572.29838462
  PAW double counting   =     46932.33213142   -50663.16796134
  entropy T*S    EENTRO =         0.00000000
  eigenvalues    EBANDS =     -1053.34821035
  atomic energy  EATOM  =     49745.43877894
  Solvation  Ediel_sol  =         0.00000000
  ---------------------------------------------------
  free energy    TOTEN  =      -138.16166541 eV

  energy without entropy =     -138.16166541  energy(sigma->0) =     -138.16166541


--------------------------------------------------------------------------------------------------------




--------------------------------------- Iteration      1(   5)  ---------------------------------------


     EDDAV:  cpu time    6.6582: real time    6.6583
 BZINTS: Fermi energy:    0.261716;  401.000000 electrons
         Band energy:-0.105414E+04;  BLOECHL correction:   -0.050019
       DOS:  cpu time    0.0102: real time    0.0102
    --------------------------------------------
      LOOP:  cpu time    6.6684: real time    6.6685

 eigenvalue-minimisations  :  6076
 total energy-change (2. order) :-0.7964134E+00  (-0.7941149E+00)
 number of electron     400.9999925 magnetization 
 augmentation part      400.9999925 magnetization 

 Free energy of the ion-electron system (eV)
  ---------------------------------------------------
  alpha Z        PSCENC =       886.54759627
  Ewald energy   TEWEN  =    147018.68231975
  -Hartree energ DENC   =   -194576.94470472
  -exchange      EXHF   =         0.00000000
  -V(xc)+E(xc)   XCENC  =      1572.29838462
  PAW double counting   =     46932.33213142   -50663.16796134
  entropy T*S    EENTRO =         0.00000000
  eigenvalues    EBANDS =     -1054.14462377
  atomic energy  EATOM  =     49745.43877894
  Solvation  Ediel_sol  =         0.00000000
  ---------------------------------------------------
  free energy    TOTEN  =      -138.95807883 eV

  energy without entropy =     -138.95807883  energy(sigma->0) =     -138.95807883


--------------------------------------------------------------------------------------------------------




--------------------------------------- Iteration      1(   6)  ---------------------------------------


    EDDIAG:  cpu time    1.0567: real time    1.0569
  RMM-DIIS:  cpu time    3.0497: real time    3.0497
    ORTHCH:  cpu time    0.2082: real time    0.2082
 BZINTS: Fermi energy:    0.261684;  401.000000 electrons
         Band energy:-0.105416E+04;  BLOECHL correction:   -0.050035
       DOS:  cpu time    0.0102: real time    0.0102
    --------------------------------------------
      LOOP:  cpu time    4.3248: real time    4.3250

 eigenvalue-minimisations  :  5379
 total energy-change (2. order) :-0.1562963E-01  (-0.1561959E-01)
 number of electron     400.9999925 magnetization 
 augmentation part      400.9999925 magnetization 

 Free energy of the ion-electron system (eV)
  ---------------------------------------------------
  alpha Z        PSCENC =       886.54759627
  Ewald energy   TEWEN  =    147018.68231975
  -Hartree energ DENC   =   -194576.94470472
  -exchange      EXHF   =         0.00000000
  -V(xc)+E(xc)   XCENC  =      1572.29838462
  PAW double counting   =     46932.33213142   -50663.16796134
  entropy T*S    EENTRO =         0.00000000
  eigenvalues    EBANDS =     -1054.16025340
  atomic energy  EATOM  =     49745.43877894
  Solvation  Ediel_sol  =         0.00000000
  ---------------------------------------------------
  free energy    TOTEN  =      -138.97370846 eV

  energy without entropy =     -138.97370846  energy(sigma->0) =     -138.97370846


--------------------------------------------------------------------------------------------------------




--------------------------------------- Iteration      1(   7)  ---------------------------------------


    EDDIAG:  cpu time    1.0577: real time    1.0578
  RMM-DIIS:  cpu time    4.3934: real time    4.3934
    ORTHCH:  cpu time    0.2079: real time    0.2079
 BZINTS: Fermi energy:    0.261672;  401.000000 electrons
         Band energy:-0.105417E+04;  BLOECHL correction:   -0.050042
       DOS:  cpu time    0.0101: real time    0.0101
    --------------------------------------------
      LOOP:  cpu time    5.6692: real time    5.6693

 eigenvalue-minimisations  :  7767
 total energy-change (2. order) :-0.7009050E-02  (-0.6967751E-02)
 number of electron     400.9999925 magnetization 
 augmentation part      400.9999925 magnetization 

 Free energy of the ion-electron system (eV)
  ---------------------------------------------------
  alpha Z        PSCENC =       886.54759627
  Ewald energy   TEWEN  =    147018.68231975
  -Hartree energ DENC   =   -194576.94470472
  -exchange      EXHF   =         0.00000000
  -V(xc)+E(xc)   XCENC  =      1572.29838462
  PAW double counting   =     46932.33213142   -50663.16796134
  entropy T*S    EENTRO =         0.00000000
  eigenvalues    EBANDS =     -1054.16726245
  atomic energy  EATOM  =     49745.43877894
  Solvation  Ediel_sol  =         0.00000000
  ---------------------------------------------------
  free energy    TOTEN  =      -138.98071751 eV

  energy without entropy =     -138.98071751  energy(sigma->0) =     -138.98071751


--------------------------------------------------------------------------------------------------------




--------------------------------------- Iteration      1(   8)  ---------------------------------------


    EDDIAG:  cpu time    1.0578: real time    1.0578
  RMM-DIIS:  cpu time    4.0975: real time    4.0975
    ORTHCH:  cpu time    0.2079: real time    0.2079
 BZINTS: Fermi energy:    0.261670;  401.000000 electrons
         Band energy:-0.105417E+04;  BLOECHL correction:   -0.050041
       DOS:  cpu time    0.0097: real time    0.0097
    --------------------------------------------
      LOOP:  cpu time    5.3728: real time    5.3729

 eigenvalue-minimisations  :  7392
 total energy-change (2. order) :-0.5963714E-03  (-0.6042155E-03)
 number of electron     400.9999925 magnetization 
 augmentation part      400.9999925 magnetization 

 Free energy of the ion-electron system (eV)
  ---------------------------------------------------
  alpha Z        PSCENC =       886.54759627
  Ewald energy   TEWEN  =    147018.68231975
  -Hartree energ DENC   =   -194576.94470472
  -exchange      EXHF   =         0.00000000
  -V(xc)+E(xc)   XCENC  =      1572.29838462
  PAW double counting   =     46932.33213142   -50663.16796134
  entropy T*S    EENTRO =         0.00000000
  eigenvalues    EBANDS =     -1054.16785882
  atomic energy  EATOM  =     49745.43877894
  Solvation  Ediel_sol  =         0.00000000
  ---------------------------------------------------
  free energy    TOTEN  =      -138.98131388 eV

  energy without entropy =     -138.98131388  energy(sigma->0) =     -138.98131388


--------------------------------------------------------------------------------------------------------




--------------------------------------- Iteration      1(   9)  ---------------------------------------


    EDDIAG:  cpu time    1.0565: real time    1.0567
  RMM-DIIS:  cpu time    4.3793: real time    4.3828
    ORTHCH:  cpu time    0.2070: real time    0.2070
 BZINTS: Fermi energy:    0.261670;  401.000000 electrons
         Band energy:-0.105417E+04;  BLOECHL correction:   -0.050042
       DOS:  cpu time    0.0101: real time    0.0101
    --------------------------------------------
      LOOP:  cpu time    5.6529: real time    5.6566

 eigenvalue-minimisations  :  7824
 total energy-change (2. order) :-0.1360609E-03  (-0.1350563E-03)
 number of electron     400.9999925 magnetization 
 augmentation part      400.9999925 magnetization 

 Free energy of the ion-electron system (eV)
  ---------------------------------------------------
  alpha Z        PSCENC =       886.54759627
  Ewald energy   TEWEN  =    147018.68231975
  -Hartree energ DENC   =   -194576.94470472
  -exchange      EXHF   =         0.00000000
  -V(xc)+E(xc)   XCENC  =      1572.29838462
  PAW double counting   =     46932.33213142   -50663.16796134
  entropy T*S    EENTRO =         0.00000000
  eigenvalues    EBANDS =     -1054.16799488
  atomic energy  EATOM  =     49745.43877894
  Solvation  Ediel_sol  =         0.00000000
  ---------------------------------------------------
  free energy    TOTEN  =      -138.98144994 eV

  energy without entropy =     -138.98144994  energy(sigma->0) =     -138.98144994


--------------------------------------------------------------------------------------------------------




--------------------------------------- Iteration      1(  10)  ---------------------------------------


    EDDIAG:  cpu time    1.0566: real time    1.0567
  RMM-DIIS:  cpu time    3.8845: real time    3.8845
    ORTHCH:  cpu time    0.2075: real time    0.2075
 BZINTS: Fermi energy:    0.261670;  401.000000 electrons
         Band energy:-0.105417E+04;  BLOECHL correction:   -0.050042
       DOS:  cpu time    0.0101: real time    0.0101
    --------------------------------------------
      LOOP:  cpu time    5.1588: real time    5.1589

 eigenvalue-minimisations  :  6876
 total energy-change (2. order) :-0.2720550E-04  (-0.2717232E-04)
 number of electron     400.9999925 magnetization 
 augmentation part      400.9999925 magnetization 

 Free energy of the ion-electron system (eV)
  ---------------------------------------------------
  alpha Z        PSCENC =       886.54759627
  Ewald energy   TEWEN  =    147018.68231975
  -Hartree energ DENC   =   -194576.94470472
  -exchange      EXHF   =         0.00000000
  -V(xc)+E(xc)   XCENC  =      1572.29838462
  PAW double counting   =     46932.33213142   -50663.16796134
  entropy T*S    EENTRO =         0.00000000
  eigenvalues    EBANDS =     -1054.16802209
  atomic energy  EATOM  =     49745.43877894
  Solvation  Ediel_sol  =         0.00000000
  ---------------------------------------------------
  free energy    TOTEN  =      -138.98147715 eV

  energy without entropy =     -138.98147715  energy(sigma->0) =     -138.98147715


--------------------------------------------------------------------------------------------------------




--------------------------------------- Iteration      1(  11)  ---------------------------------------


    EDDIAG:  cpu time    1.0565: real time    1.0565
  RMM-DIIS:  cpu time    2.8469: real time    2.8469
    ORTHCH:  cpu time    0.2077: real time    0.2077
 BZINTS: Fermi energy:    0.261670;  401.000000 electrons
         Band energy:-0.105417E+04;  BLOECHL correction:   -0.050042
       DOS:  cpu time    0.0101: real time    0.0101
    --------------------------------------------
      LOOP:  cpu time    4.1212: real time    4.1213

 eigenvalue-minimisations  :  4523
 total energy-change (2. order) :-0.5531358E-05  (-0.5615252E-05)
 number of electron     400.9999925 magnetization 
 augmentation part      400.9999925 magnetization 

 Free energy of the ion-electron system (eV)
  ---------------------------------------------------
  alpha Z        PSCENC =       886.54759627
  Ewald energy   TEWEN  =    147018.68231975
  -Hartree energ DENC   =   -194576.94470472
  -exchange      EXHF   =         0.00000000
  -V(xc)+E(xc)   XCENC  =      1572.29838462
  PAW double counting   =     46932.33213142   -50663.16796134
  entropy T*S    EENTRO =         0.00000000
  eigenvalues    EBANDS =     -1054.16802762
  atomic energy  EATOM  =     49745.43877894
  Solvation  Ediel_sol  =         0.00000000
  ---------------------------------------------------
  free energy    TOTEN  =      -138.98148268 eV

  energy without entropy =     -138.98148268  energy(sigma->0) =     -138.98148268


--------------------------------------------------------------------------------------------------------




 average (electrostatic) potential at core
  the test charge radii are     0.9430  1.1806  0.7215  0.5201
  (the norm of the test charge is              1.0000)
       1 -70.7485       2 -70.7120       3 -70.7119       4 -70.7120       5 -70.7244
       6 -70.7116       7 -70.7119       8 -70.7116       9 -70.7412      10 -70.9940
      11 -70.9541      12 -70.9936      13 -70.9541      14 -70.9536      15 -70.9774
      16 -70.9936      17 -70.9774      18 -70.9775      19 -70.9598      20 -70.9444
      21 -70.9438      22 -70.9686      23 -70.9438      24 -70.9681      25 -70.9596
      26 -70.9598      27 -70.9686      28 -70.6773      29 -70.6770      30 -70.6769
      31 -70.6770      32 -70.6766      33 -70.6769      34 -70.6766      35 -70.6981
      36 -72.7682      37 -74.8880      38 -39.5099
 
 
 
 E-fermi :   0.2617     XC(G=0):  -5.9857     alpha+bet : -5.4100

 Fermi energy:         0.2616701740

 k-point     1 :       0.0000    0.0000    0.0000
  band No.  band energies     occupation 
      1     -18.4689      2.00000
      2      -8.5358      2.00000
      3      -7.3120      2.00000
      4      -7.0209      2.00000
      5      -5.6219      2.00000
      6      -5.5587      2.00000
      7      -5.5585      2.00000
      8      -5.5434      2.00000
      9      -5.5395      2.00000
     10      -5.5393      2.00000
     11      -5.4348      2.00000
     12      -4.8152      2.00000
     13      -4.8152      2.00000
     14      -4.7903      2.00000
     15      -4.7806      2.00000
     16      -4.7600      2.00000
     17      -4.7600      2.00000
     18      -4.5936      2.00000
     19      -4.1570      2.00000
     20      -4.1569      2.00000
     21      -4.0768      2.00000
     22      -4.0688      2.00000
     23      -4.0687      2.00000
     24      -3.9709      2.00000
     25      -3.7881      2.00000
     26      -3.7831      2.00000
     27      -3.7830      2.00000
     28      -3.7660      2.00000
     29      -3.7660      2.00000
     30      -3.7436      2.00000
     31      -3.6900      2.00000
     32      -3.6900      2.00000
     33      -3.6148      2.00000
     34      -3.6147      2.00000
     35      -3.5927      2.00000
     36      -3.5927      2.00000
     37      -3.5919      2.00000
     38      -3.5837      2.00000
     39      -3.5777      2.00000
     40      -3.5776      2.00000
     41      -3.5622      2.00000
     42      -3.5439      2.00000
     43      -3.5074      2.00000
     44      -3.5074      2.00000
     45      -3.4663      2.00000
     46      -3.4662      2.00000
     47      -3.3757      2.00000
     48      -3.3756      2.00000
     49      -3.3384      2.00000
     50      -3.3324      2.00000
     51      -3.2794      2.00000
     52      -3.2794      2.00000
     53      -3.2646      2.00000
     54      -3.2565      2.00000
     55      -3.2077      2.00000
     56      -3.1804      2.00000
     57      -3.0660      2.00000
     58      -3.0660      2.00000
     59      -2.9210      2.00000
     60      -2.9210      2.00000
     61      -2.9094      2.00000
     62      -2.9008      2.00000
     63      -2.8268      2.00000
     64      -2.8268      2.00000
     65      -2.8054      2.00000
     66      -2.8054      2.00000
     67      -2.8021      2.00000
     68      -2.8020      2.00000
     69      -2.7750      2.00000
     70      -2.7631      2.00000
     71      -2.7619      2.00000
     72      -2.7618      2.00000
     73      -2.7481      2.00000
     74      -2.6881      2.00000
     75      -2.6829      2.00000
     76      -2.6828      2.00000
     77      -2.6627      2.00000
     78      -2.6627      2.00000
     79      -2.6110      2.00000
     80      -2.6110      2.00000
     81      -2.5632      2.00000
     82      -2.5632      2.00000
     83      -2.5616      2.00000
     84      -2.5555      2.00000
     85      -2.5338      2.00000
     86      -2.5338      2.00000
     87      -2.4779      2.00000
     88      -2.4779      2.00000
     89      -2.4752      2.00000
     90      -2.4676      2.00000
     91      -2.4675      2.00000
     92      -2.4606      2.00000
     93      -2.4447      2.00000
     94      -2.4447      2.00000
     95      -2.4103      2.00000
     96      -2.4103      2.00000
     97      -2.3924      2.00000
     98      -2.3924      2.00000
     99      -2.3804      2.00000
    100      -2.3786      2.00000
    101      -2.3786      2.00000
    102      -2.3564      2.00000
    103      -2.3563      2.00000
    104      -2.3179      2.00000
    105      -2.3179      2.00000
    106      -2.3149      2.00000
    107      -2.3137      2.00000
    108      -2.3137      2.00000
    109      -2.2406      2.00000
    110      -2.1722      2.00000
    111      -2.1722      2.00000
    112      -2.0716      2.00000
    113      -2.0654      2.00000
    114      -2.0654      2.00000
    115      -2.0626      2.00000
    116      -2.0605      2.00000
    117      -2.0605      2.00000
    118      -2.0479      2.00000
    119      -2.0442      2.00000
    120      -2.0442      2.00000
    121      -2.0407      2.00000
    122      -2.0082      2.00000
    123      -2.0014      2.00000
    124      -1.9552      2.00000
    125      -1.9552      2.00000
    126      -1.8651      2.00000
    127      -1.8651      2.00000
    128      -1.8583      2.00000
    129      -1.8581      2.00000
    130      -1.8581      2.00000
    131      -1.8402      2.00000
    132      -1.8401      2.00000
    133      -1.7926      2.00000
    134      -1.7926      2.00000
    135      -1.7730      2.00000
    136      -1.7488      2.00000
    137      -1.7475      2.00000
    138      -1.7475      2.00000
    139      -1.7442      2.00000
    140      -1.7396      2.00000
    141      -1.7396      2.00000
    142      -1.7099      2.00000
    143      -1.7099      2.00000
    144      -1.6294      2.00000
    145      -1.6293      2.00000
    146      -1.6061      2.00000
    147      -1.6044      2.00000
    148      -1.6043      2.00000
    149      -1.5947      2.00000
    150      -1.5886      2.00000
    151      -1.5879      2.00000
    152      -1.5878      2.00000
    153      -1.5786      2.00000
    154      -1.5785      2.00000
    155      -1.5589      2.00000
    156      -1.5303      2.00000
    157      -1.5302      2.00000
    158      -1.4720      2.00000
    159      -1.4717      2.00000
    160      -1.4716      2.00000
    161      -1.4715      2.00000
    162      -1.4700      2.00000
    163      -1.4677      2.00000
    164      -1.4579      2.00000
    165      -1.4579      2.00000
    166      -1.4370      2.00000
    167      -1.4370      2.00000
    168      -1.4180      2.00000
    169      -1.4179      2.00000
    170      -1.4083      2.00000
    171      -1.4025      2.00000
    172      -1.3999      2.00000
    173      -1.3994      2.00000
    174      -1.3994      2.00000
    175      -1.3905      2.00000
    176      -1.3905      2.00000
    177      -1.3870      2.00000
    178      -1.3869      2.00000
    179      -1.3763      2.00000
    180      -1.3752      2.00000
    181      -1.3737      2.00000
    182      -1.3737      2.00000
    183      -1.3670      2.00000
    184      -1.3550      2.00000
    185      -1.3550      2.00000
    186      -1.3546      2.00000
    187      -1.2881      2.00000
    188      -1.2881      2.00000
    189      -1.2767      2.00000
    190      -1.2766      2.00000
    191      -1.2582      2.00000
    192      -1.2519      2.00000
    193      -1.2518      2.00000
    194      -1.2458      2.00000
    195      -0.9365      2.00000
    196      -0.6315      2.00000
    197      -0.6315      2.00000
    198      -0.5763      2.00000
    199      -0.1556      2.00000
    200      -0.1555      2.00000
    201      -0.0731      2.00000
    202      -0.0377      2.00000
    203      -0.0376      2.00000
    204       0.1438      2.22811
    205       0.2008      0.69836
    206       0.2009      0.41047
    207       1.0273      0.00000
[...]
  0.000   0.000   0.000   0.000   0.000   0.000   0.000   0.000   0.000   0.000   0.000   0.000   0.000   0.000   0.000   0.000
  0.000   0.000   0.000   0.000   0.000   0.000   0.000   0.000   0.000   0.000   0.000   0.000   0.000   0.000   0.000   0.000
  0.000   0.000   0.000   0.000   0.000   0.000   0.000   0.000   0.000   0.000   1.000   0.000   0.000   0.000   0.000   0.000
  0.000   0.000   0.000   0.000   0.000   0.000   0.000   0.000   0.000   0.000   0.000   0.000   0.000   0.000   0.000   0.000
  0.000   0.000   0.000   0.000   0.000   0.000   0.000   0.000   0.000   0.000   0.000   0.000   0.000   0.000   0.000   0.000
  0.000   0.000   0.000   0.000   0.000   0.000   0.000   0.000   0.000   0.000   0.000   0.000   0.000   0.000   0.000   0.000
  0.000   0.000   0.000   0.000   0.000   0.000   0.000   0.000   0.000   0.000   0.000   0.000   0.000   0.000   0.000   0.000
  0.000   0.000   0.000   0.000   0.000   0.000   0.000   0.000   0.000   0.000   0.000   0.000   0.000   0.000   0.000   0.000
  0.000   0.000   0.000   0.000   0.000   0.000   0.000   0.000   0.000   0.000   0.000   0.000   0.000   0.000   0.000   0.000
  0.000   0.000   0.000   0.000   0.000   0.000   0.000   0.000   0.000   0.000   0.000   0.000   0.000   0.000   0.000   0.000


------------------------ aborting loop because EDIFF is reached ----------------------------------------





 total charge

# of ion       s       p       d       tot
------------------------------------------
    1        0.447   0.285   9.189   9.921
    2        0.450   0.285   9.186   9.921
    3        0.450   0.285   9.186   9.921
    4        0.450   0.285   9.186   9.921
    5        0.447   0.288   9.183   9.918
    6        0.450   0.285   9.186   9.921
    7        0.450   0.285   9.186   9.921
    8        0.450   0.285   9.186   9.921
    9        0.446   0.285   9.186   9.917
   10        0.442   0.373   9.176   9.991
   11        0.443   0.367   9.182   9.991
   12        0.442   0.373   9.176   9.991
   13        0.443   0.367   9.182   9.991
   14        0.443   0.367   9.182   9.991
   15        0.438   0.369   9.181   9.987
   16        0.442   0.373   9.176   9.991
   17        0.438   0.369   9.181   9.987
   18        0.438   0.369   9.181   9.987
   19        0.442   0.373   9.180   9.994
   20        0.450   0.385   9.170  10.006
   21        0.450   0.385   9.170  10.006
   22        0.436   0.370   9.183   9.989
   23        0.450   0.385   9.170  10.006
   24        0.436   0.370   9.183   9.989
   25        0.442   0.373   9.180   9.994
   26        0.442   0.373   9.180   9.994
   27        0.436   0.370   9.183   9.989
   28        0.455   0.289   9.194   9.939
   29        0.445   0.293   9.193   9.930
   30        0.445   0.293   9.193   9.930
   31        0.445   0.293   9.193   9.930
   32        0.445   0.293   9.193   9.930
   33        0.445   0.293   9.193   9.930
   34        0.445   0.293   9.193   9.930
   35        0.447   0.294   9.191   9.931
   36        0.465   0.509   7.441   8.414
   37        1.542   3.510   0.000   5.052
   38        0.609   0.127   0.000   0.736
--------------------------------------------------
tot         18.172  15.764 328.878 362.814
 
    CHARGE:  cpu time    0.2118: real time    0.2119
    FORLOC:  cpu time    0.0081: real time    0.0081
    FORNL :  cpu time    1.1916: real time    1.1917
    STRESS:  cpu time    3.5479: real time    3.5480
    FORCOR:  cpu time    0.0280: real time    0.0281
    FORHAR:  cpu time    0.0122: real time    0.0123
    OFIELD:  cpu time    0.0001: real time    0.0001

  FORCE on cell =-STRESS in cart. coord.  units (eV):
  Direction    XX          YY          ZZ          XY          YZ          ZX
  --------------------------------------------------------------------------------------
  Alpha Z   886.54760   886.54760   886.54760
  Ewald  173051.78459173051.78415************     0.00040     0.00012     0.00019
  Hartree186269.15827186269.15824************     0.00004     0.00006     0.00007
  E(xc)   -2323.32726 -2323.32685 -2326.66126    -0.00035    -0.00004    -0.00007
  Local  ************************372502.07941     0.01884    -0.00060    -0.00099
  n-local  -789.47564  -774.50854  -795.34627     8.06155     0.00215     0.19739
  augment  3374.12255  3374.14284  3387.87472    -0.01758     0.00024     0.00040
  Kinetic  3389.67732  3396.61540  3384.42466     4.81102     1.63149    -1.06848
  Fock        0.00000     0.00000     0.00000     0.00000     0.00000     0.00000
  -------------------------------------------------------------------------------------
  Total      -5.00284    -5.00284     0.49791     0.00000    -0.00000    -0.00000
  in kB      -7.34035    -7.34035     0.73055     0.00000    -0.00000    -0.00000
  external pressure =       -4.65 kB  Pullay stress =        0.00 kB


 VOLUME and BASIS-vectors are now :
 -----------------------------------------------------------------------------
  energy-cutoff  :      500.00
  volume of cell :     1091.97
      direct lattice vectors                 reciprocal lattice vectors
     7.696786404  0.000000000  0.000000000     0.129924354 -0.075011849  0.000000000
     3.848392758  6.665612809  0.000000000     0.000000000  0.150023716  0.000000000
     0.000000000  0.000000000 21.284399033     0.000000000  0.000000000  0.046982769

  length of vectors
     7.696786404  7.696786404 21.284399033     0.150023716  0.150023716  0.046982769


 FORCES acting on ions
    electron-ion (+dipol)            ewald-force                    non-local-force                 convergence-correction
 -----------------------------------------------------------------------------------------------
   -.415E-04 0.184E-06 0.350E+04   0.579E-04 -.438E-05 -.350E+04   -.502E-17 -.405E-17 -.305E+01   -.410E-03 -.204E-03 -.316E+00
   -.268E+00 0.380E-01 0.350E+04   0.201E+00 0.455E-01 -.350E+04   0.494E-02 0.132E-01 -.185E+01   0.658E-01 -.785E-01 -.154E+00
   0.268E+00 0.380E-01 0.350E+04   -.202E+00 0.455E-01 -.350E+04   -.494E-02 0.132E-01 -.185E+01   -.649E-01 -.758E-01 -.153E+00
   -.101E+00 -.251E+00 0.350E+04   0.140E+00 0.152E+00 -.350E+04   0.139E-01 -.234E-02 -.185E+01   -.350E-01 0.962E-01 -.154E+00
   -.654E-04 -.550E-05 0.350E+04   0.116E-03 -.101E-04 -.350E+04   0.292E-17 0.103E-17 -.180E+01   0.123E-01 0.751E-02 -.137E+00
   0.101E+00 -.251E+00 0.350E+04   -.140E+00 0.152E+00 -.350E+04   -.139E-01 -.234E-02 -.185E+01   0.332E-01 0.974E-01 -.152E+00
   0.167E+00 0.213E+00 0.350E+04   -.614E-01 -.197E+00 -.350E+04   0.899E-02 -.109E-01 -.185E+01   -.981E-01 -.183E-01 -.153E+00
   -.167E+00 0.213E+00 0.350E+04   0.611E-01 -.197E+00 -.350E+04   -.899E-02 -.109E-01 -.185E+01   0.102E+00 -.199E-01 -.152E+00
   -.144E-03 -.329E-04 0.350E+04   0.263E-03 0.205E-04 -.350E+04   -.341E-17 -.256E-18 -.249E+01   -.132E-01 -.684E-02 -.970E-01
   0.208E+00 0.120E+00 0.120E+04   0.196E+00 0.113E+00 -.120E+04   -.475E+00 -.274E+00 -.113E+01   0.986E-01 0.569E-01 0.770E-01
   -.909E-04 -.686E+00 0.120E+04   0.190E-03 0.736E+00 -.120E+04   -.589E-08 0.884E-01 -.493E+00   0.123E-01 -.164E+00 0.139E+00
   -.208E+00 0.120E+00 0.120E+04   -.196E+00 0.113E+00 -.120E+04   0.475E+00 -.274E+00 -.113E+01   -.101E+00 0.591E-01 0.789E-01
   -.594E+00 0.343E+00 0.120E+04   0.638E+00 -.368E+00 -.120E+04   0.766E-01 -.442E-01 -.493E+00   -.135E+00 0.934E-01 0.139E+00
   0.594E+00 0.343E+00 0.120E+04   -.638E+00 -.368E+00 -.120E+04   -.766E-01 -.442E-01 -.493E+00   0.160E+00 0.920E-01 0.139E+00
   -.142E-03 -.145E+01 0.120E+04   0.298E-03 0.111E+01 -.120E+04   -.103E-07 0.155E+00 -.833E+00   -.434E-02 0.172E+00 -.149E-01
   -.918E-04 -.240E+00 0.120E+04   0.186E-03 -.226E+00 -.120E+04   -.365E-07 0.548E+00 -.113E+01   -.286E-03 -.118E+00 0.788E-01
   -.126E+01 0.726E+00 0.120E+04   0.963E+00 -.556E+00 -.120E+04   0.134E+00 -.774E-01 -.833E+00   0.147E+00 -.898E-01 -.150E-01
   0.126E+01 0.726E+00 0.120E+04   -.963E+00 -.556E+00 -.120E+04   -.134E+00 -.774E-01 -.833E+00   -.146E+00 -.862E-01 -.135E-01
   -.587E-04 -.657E+00 -.111E+04   0.679E-04 0.486E+00 0.111E+04   -.728E-08 0.109E+00 0.843E+00   -.146E-01 0.507E-01 -.131E-01
   -.190E+02 -.110E+02 -.112E+04   0.202E+02 0.116E+02 0.112E+04   -.116E+01 -.670E+00 -.102E+01   0.907E-01 0.522E-01 0.791E-01
   0.190E+02 -.110E+02 -.112E+04   -.202E+02 0.116E+02 0.112E+04   0.116E+01 -.670E+00 -.102E+01   -.647E-01 0.527E-01 0.787E-01
   -.108E+02 0.623E+01 -.112E+04   0.102E+02 -.592E+01 0.112E+04   0.491E+00 -.283E+00 0.938E+00   0.799E-01 -.451E-01 -.934E-01
   -.782E-04 0.220E+02 -.112E+04   0.146E-03 -.233E+02 0.112E+04   -.892E-07 0.134E+01 -.102E+01   0.121E-01 -.836E-01 0.786E-01
   0.108E+02 0.623E+01 -.112E+04   -.102E+02 -.592E+01 0.112E+04   -.491E+00 -.283E+00 0.938E+00   -.823E-01 -.484E-01 -.933E-01
   0.569E+00 0.329E+00 -.111E+04   -.421E+00 -.243E+00 0.111E+04   -.947E-01 -.547E-01 0.843E+00   -.588E-01 -.339E-01 -.135E-01
   -.569E+00 0.329E+00 -.111E+04   0.421E+00 -.243E+00 0.111E+04   0.947E-01 -.547E-01 0.843E+00   0.370E-01 -.378E-01 -.130E-01
   -.127E-03 -.125E+02 -.112E+04   0.244E-03 0.118E+02 0.112E+04   -.377E-07 0.566E+00 0.938E+00   0.859E-03 0.917E-01 -.932E-01
   -.324E-04 0.189E-04 -.341E+04   0.374E-04 -.340E-04 0.341E+04   0.761E-17 0.115E-16 0.191E+01   -.716E-03 -.362E-03 0.239E+00
   -.520E+01 -.624E+01 -.340E+04   0.473E+01 0.486E+01 0.339E+04   0.327E+00 0.106E+01 0.267E+01   0.591E-01 0.144E+00 0.114E+00
   0.520E+01 -.624E+01 -.340E+04   -.473E+01 0.486E+01 0.339E+04   -.327E+00 0.106E+01 0.267E+01   -.575E-01 0.146E+00 0.113E+00
   -.800E+01 -.139E+01 -.340E+04   0.658E+01 0.166E+01 0.339E+04   0.108E+01 -.246E+00 0.267E+01   0.154E+00 -.208E-01 0.114E+00
   0.800E+01 -.139E+01 -.340E+04   -.658E+01 0.166E+01 0.339E+04   -.108E+01 -.246E+00 0.267E+01   -.156E+00 -.203E-01 0.112E+00
   -.280E+01 0.763E+01 -.340E+04   0.185E+01 -.653E+01 0.339E+04   0.753E+00 -.812E+00 0.267E+01   0.979E-01 -.123E+00 0.113E+00
   0.280E+01 0.763E+01 -.340E+04   -.185E+01 -.653E+01 0.339E+04   -.753E+00 -.812E+00 0.267E+01   -.948E-01 -.125E+00 0.112E+00
   -.155E-03 -.282E-04 -.341E+04   0.257E-03 0.381E-05 0.341E+04   -.912E-18 0.451E-18 0.223E+01   -.131E-01 -.674E-02 0.192E+00
   -.201E-04 -.143E-04 -.261E+04   0.111E-03 0.224E-04 0.261E+04   0.421E-17 -.246E-17 0.151E+01   0.337E-02 0.202E-02 0.397E-01
   0.187E-03 -.806E-04 -.208E+04   0.128E-04 0.653E-05 0.206E+04   -.909E-18 -.130E-17 0.221E+02   0.331E-02 0.201E-02 -.390E-01
   0.490E-05 -.133E-04 -.382E+03   0.489E-06 0.439E-06 0.390E+03   0.190E-18 0.958E-19 -.832E+01   0.182E-03 0.111E-03 -.240E-02
 -----------------------------------------------------------------------------------------------
   -.676E-04 -.110E-03 -.121E+02   0.114E-12 0.350E-14 -.239E-11   0.336E-15 0.330E-15 0.120E+02   0.285E-01 0.135E-01 0.163E+00
 
 
 POSITION                                       TOTAL-FORCE (eV/Angst)
 -----------------------------------------------------------------------------------
      0.00000      0.00000      5.37156        -0.000000      0.000000      0.047055
      2.56560      0.00000      5.37156         0.005035      0.019458      0.070317
      5.13119      0.00000      5.37156        -0.005035      0.019458      0.070317
      1.28280      2.22187      5.37156         0.019368     -0.005368      0.070317
      3.84839      2.22187      5.37156        -0.000000      0.000000      0.051056
      6.41399      2.22187      5.37156        -0.019368     -0.005368      0.070317
      2.56560      4.44374      5.37156         0.014333     -0.014089      0.070317
      5.13119      4.44374      5.37156        -0.014333     -0.014089      0.070317
      7.69679      4.44374      5.37156        -0.000000      0.000000      0.023035
      1.28280      0.74062      7.46636         0.029694      0.017144     -0.059232
      3.84839      0.74062      7.46636         0.000000     -0.031597     -0.094474
      6.41399      0.74062      7.46636        -0.029694      0.017144     -0.059232
      2.56560      2.96249      7.46636        -0.027364      0.015799     -0.094474
      5.13119      2.96249      7.46636         0.027364      0.015799     -0.094474
      7.69679      2.96249      7.46636         0.000000     -0.013980     -0.024665
      3.84839      5.18437      7.46636         0.000000     -0.034288     -0.059232
      6.41399      5.18437      7.46636        -0.012107      0.006990     -0.024665
      8.97958      5.18437      7.46636         0.012107      0.006990     -0.024665
      7.69679      1.48472      9.55134         0.000000     -0.005639     -0.003931
      2.55991      1.47796      9.54139         0.069630      0.040201     -0.087687
      5.13688      1.47796      9.54139        -0.069630      0.040201     -0.087687
      8.97851      3.70374      9.55759         0.028542     -0.016478     -0.016569
      3.84839      3.70969      9.54139         0.000000     -0.080402     -0.087687
      6.41506      3.70374      9.55759        -0.028542     -0.016478     -0.016569
     10.25938      5.92325      9.55134         0.004884      0.002820     -0.003931
      5.13420      5.92325      9.55134        -0.004884      0.002820     -0.003931
      7.69679      5.92375      9.55759        -0.000000      0.032957     -0.016569
      0.00000      0.00000     11.61948        -0.000000      0.000000      0.008035
      6.40389      6.65412     11.64269        -0.086494     -0.172808     -0.074406
      8.98968      6.65412     11.64269         0.086494     -0.172808     -0.074406
      8.96459      2.21887     11.64269        -0.192903      0.011498     -0.074406
      6.42899      2.21887     11.64269         0.192903      0.011498     -0.074406
     10.25748      4.45823     11.64269        -0.106409      0.161310     -0.074406
      5.13610      4.45823     11.64269         0.106409      0.161310     -0.074406
      7.69679      4.44374     11.62337        -0.000000      0.000000      0.028812
      3.84839      2.22187     11.63466        -0.000000      0.000000      0.768069
      3.84839      2.22187     13.60243        -0.000000      0.000000     -0.029037
      3.84839      2.22187     14.56814        -0.000000      0.000000     -0.012821
 -----------------------------------------------------------------------------------
    total drift:                                0.028449      0.013411      0.027139


--------------------------------------------------------------------------------------------------------



  FREE ENERGIE OF THE ION-ELECTRON SYSTEM (eV)
  ---------------------------------------------------
  free  energy   TOTEN  =      -138.98148268 eV

  energy  without entropy=     -138.98148268  energy(sigma->0) =     -138.98148268
 


--------------------------------------------------------------------------------------------------------


    POTLOK:  cpu time    0.0295: real time    0.0295


--------------------------------------------------------------------------------------------------------


 stress matrix after NEB project (eV)
     -5.00284      0.00000     -0.00000
      0.00000     -5.00284     -0.00000
      0.00000     -0.00000      0.49791
  FORCES: max atom, RMS     0.029037    0.005149
  FORCE total and by dimension    0.031742    0.029037
  Stress total and by dimension    7.092587    5.002843
     LOOP+:  cpu time   66.8499: real time   66.8614
 -----------------------------------------------------------------------------
|                                                                             |
|           W    W    AA    RRRRR   N    N  II  N    N   GGGG   !!!           |
|           W    W   A  A   R    R  NN   N  II  NN   N  G    G  !!!           |
|           W    W  A    A  R    R  N N  N  II  N N  N  G       !!!           |
|           W WW W  AAAAAA  RRRRR   N  N N  II  N  N N  G  GGG   !            |
|           WW  WW  A    A  R   R   N   NN  II  N   NN  G    G                |
|           W    W  A    A  R    R  N    N  II  N    N   GGGG   !!!           |
|                                                                             |
|     Tetrahedron method does not include variations of the Fermi             |
|     occupations, so forces and stress will be inaccurate. We suggest        |
|     using a different smearing scheme ISMEAR = 1 or 2 for metals in         |
|     relaxations.                                                            |
|                                                                             |
 -----------------------------------------------------------------------------

    4ORBIT:  cpu time    0.0000: real time    0.0000



 total charge

# of ion       s       p       d       tot
------------------------------------------
    1        0.447   0.285   9.189   9.921
    2        0.450   0.285   9.186   9.921
    3        0.450   0.285   9.186   9.921
    4        0.450   0.285   9.186   9.921
    5        0.447   0.288   9.183   9.918
    6        0.450   0.285   9.186   9.921
    7        0.450   0.285   9.186   9.921
    8        0.450   0.285   9.186   9.921
    9        0.446   0.285   9.186   9.917
   10        0.442   0.373   9.176   9.991
   11        0.443   0.367   9.182   9.991
   12        0.442   0.373   9.176   9.991
   13        0.443   0.367   9.182   9.991
   14        0.443   0.367   9.182   9.991
   15        0.438   0.369   9.181   9.987
   16        0.442   0.373   9.176   9.991
   17        0.438   0.369   9.181   9.987
   18        0.438   0.369   9.181   9.987
   19        0.442   0.373   9.180   9.994
   20        0.450   0.385   9.170  10.006
   21        0.450   0.385   9.170  10.006
   22        0.436   0.370   9.183   9.989
   23        0.450   0.385   9.170  10.006
   24        0.436   0.370   9.183   9.989
   25        0.442   0.373   9.180   9.994
   26        0.442   0.373   9.180   9.994
   27        0.436   0.370   9.183   9.989
   28        0.455   0.289   9.194   9.939
   29        0.445   0.293   9.193   9.930
   30        0.445   0.293   9.193   9.930
   31        0.445   0.293   9.193   9.930
   32        0.445   0.293   9.193   9.930
   33        0.445   0.293   9.193   9.930
   34        0.445   0.293   9.193   9.930
   35        0.447   0.294   9.191   9.931
   36        0.465   0.509   7.441   8.414
   37        1.542   3.510   0.000   5.052
   38        0.609   0.127   0.000   0.736
--------------------------------------------------
tot         18.172  15.764 328.878 362.814
 
 BZINTS: Fermi energy:    0.261670;  401.000000 electrons
         Band energy:-0.105417E+04;  BLOECHL correction:   -0.050042

 total amount of memory used by VASP MPI-rank0   105091. kBytes
=======================================================================

   base      :      30000. kBytes
   nonlr-proj:      17702. kBytes
   fftplans  :       2916. kBytes
   grid      :      12878. kBytes
   one-center:        590. kBytes
   wavefun   :      41005. kBytes
 
  
  
 General timing and accounting informations for this job:
 ========================================================
  
                  Total CPU time used (sec):       72.830
                            User time (sec):       69.973
                          System time (sec):        2.857
                         Elapsed time (sec):       73.297
  
                   Maximum memory used (kb):      342076.
                   Average memory used (kb):          N/A
  
                          Minor page faults:        80344
                          Major page faults:            0
                 Voluntary context switches:         5719
