PROCAR new format
# of k-points:   10         # of bands:  252         # of ions:   38

 k-point     1 :    0.00000000 0.00000000 0.00000000     weight = 0.01562500

band     1 # energy  -18.46887651 # occ.  2.00000000
 
ion      s      p      d    tot
    1  0.000  0.000  0.000  0.000
    2  0.000  0.000  0.000  0.000
    3  0.000  0.000  0.000  0.000
    4  0.000  0.000  0.000  0.000
    5  0.000  0.000  0.000  0.000
    6  0.000  0.000  0.000  0.000
    7  0.000  0.000  0.000  0.000
    8  0.000  0.000  0.000  0.000
    9  0.000  0.000  0.000  0.000
   10  0.000  0.000  0.000  0.000
   11  0.000  0.000  0.000  0.000
   12  0.000  0.000  0.000  0.000
   13  0.000  0.000  0.000  0.000
   14  0.000  0.000  0.000  0.000
   15  0.000  0.000  0.000  0.000
   16  0.000  0.000  0.000  0.000
   17  0.000  0.000  0.000  0.000
   18  0.000  0.000  0.000  0.000
   19  0.000  0.000  0.000  0.000
   20  0.000  0.000  0.000  0.000
   21  0.000  0.000  0.000  0.000
   22  0.000  0.000  0.000  0.000
   23  0.000  0.000  0.000  0.000
   24  0.000  0.000  0.000  0.000
   25  0.000  0.000  0.000  0.000
   26  0.000  0.000  0.000  0.000
   27  0.000  0.000  0.000  0.000
   28  0.000  0.000  0.000  0.000
   29  0.000  0.000  0.000  0.000
   30  0.000  0.000  0.000  0.000
   31  0.000  0.000  0.000  0.000
   32  0.000  0.000  0.000  0.000
   33  0.000  0.000  0.000  0.000
   34  0.000  0.000  0.000  0.000
   35  0.000  0.000  0.000  0.000
   36  0.006  0.009  0.013  0.027
   37  0.734  0.018  0.000  0.753
   38  0.121  0.024  0.000  0.145
tot    0.861  0.052  0.013  0.925
 
band     2 # energy   -8.53578693 # occ.  2.00000000
 
ion      s      p      d    tot
    1  0.007  0.001  0.000  0.008
    2  0.007  0.001  0.000  0.008
    3  0.007  0.001  0.000  0.008
    4  0.007  0.001  0.000  0.008
    5  0.007  0.001  0.000  0.007
    6  0.007  0.001  0.000  0.008
    7  0.007  0.001  0.000  0.008
    8  0.007  0.001  0.000  0.008
    9  0.007  0.001  0.000  0.008
   10  0.025  0.000  0.000  0.025
   11  0.025  0.000  0.000  0.025
   12  0.025  0.000  0.000  0.025
   13  0.025  0.000  0.000  0.025
   14  0.025  0.000  0.000  0.025
   15  0.025  0.000  0.000  0.025
   16  0.025  0.000  0.000  0.025
   17  0.025  0.000  0.000  0.025
   18  0.025  0.000  0.000  0.025
   19  0.025  0.000  0.000  0.025
   20  0.024  0.000  0.000  0.024
   21  0.024  0.000  0.000  0.024
   22  0.024  0.000  0.000  0.025
   23  0.024  0.000  0.000  0.024
   24  0.024  0.000  0.000  0.025
   25  0.025  0.000  0.000  0.025
   26  0.025  0.000  0.000  0.025
   27  0.024  0.000  0.000  0.025
   28  0.007  0.001  0.000  0.008
   29  0.006  0.001  0.000  0.007
   30  0.006  0.001  0.000  0.007
   31  0.006  0.001  0.000  0.007
   32  0.006  0.001  0.000  0.007
   33  0.006  0.001  0.000  0.007
   34  0.006  0.001  0.000  0.007
   35  0.007  0.001  0.000  0.008
   36  0.008  0.001  0.000  0.009
   37  0.000  0.003  0.000  0.003
   38  0.001  0.000  0.000  0.001
tot    0.565  0.019  0.001  0.585
 
band     3 # energy   -7.31203310 # occ.  2.00000000
 
ion      s      p      d    tot
    1  0.013  0.001  0.000  0.014
    2  0.013  0.001  0.000  0.013
    3  0.013  0.001  0.000  0.013
    4  0.013  0.001  0.000  0.013
    5  0.012  0.001  0.000  0.013
    6  0.013  0.001  0.000  0.013
    7  0.013  0.001  0.000  0.013
    8  0.013  0.001  0.000  0.013
    9  0.013  0.001  0.000  0.014
   10  0.008  0.001  0.000  0.010
   11  0.007  0.001  0.000  0.009
   12  0.008  0.001  0.000  0.010
   13  0.007  0.001  0.000  0.009
   14  0.007  0.001  0.000  0.009
   15  0.008  0.001  0.000  0.010
   16  0.008  0.001  0.000  0.010
   17  0.008  0.001  0.000  0.010
   18  0.008  0.001  0.000  0.010
   19  0.005  0.002  0.000  0.007
   20  0.007  0.002  0.001  0.010
   21  0.007  0.002  0.001  0.010
   22  0.005  0.002  0.000  0.007
   23  0.007  0.002  0.001  0.010
   24  0.005  0.002  0.000  0.007
   25  0.005  0.002  0.000  0.007
   26  0.005  0.002  0.000  0.007
   27  0.005  0.002  0.000  0.007
   28  0.011  0.000  0.000  0.012
   29  0.012  0.000  0.000  0.013
   30  0.012  0.000  0.000  0.013
   31  0.012  0.000  0.000  0.013
   32  0.012  0.000  0.000  0.013
   33  0.012  0.000  0.000  0.013
   34  0.012  0.000  0.000  0.013
   35  0.011  0.000  0.000  0.012
   36  0.046  0.004  0.029  0.080
   37  0.006  0.160  0.000  0.166
   38  0.055  0.006  0.000  0.061
tot    0.441  0.206  0.042  0.688
 
band     4 # energy   -7.02087296 # occ.  2.00000000
 
ion      s      p      d    tot
    1  0.006  0.000  0.000  0.006
    2  0.006  0.000  0.000  0.006
    3  0.006  0.000  0.000  0.006
    4  0.006  0.000  0.000  0.006
    5  0.006  0.000  0.000  0.007
    6  0.006  0.000  0.000  0.006
    7  0.006  0.000  0.000  0.006
    8  0.006  0.000  0.000  0.006
    9  0.005  0.000  0.000  0.006
   10  0.002  0.001  0.000  0.003
   11  0.002  0.001  0.000  0.003
   12  0.002  0.001  0.000  0.003
   13  0.002  0.001  0.000  0.003
   14  0.002  0.001  0.000  0.003
   15  0.001  0.001  0.000  0.003
   16  0.002  0.001  0.000  0.003
   17  0.001  0.001  0.000  0.003
   18  0.001  0.001  0.000  0.003
   19  0.008  0.001  0.000  0.009
   20  0.001  0.001  0.002  0.004
   21  0.001  0.001  0.002  0.004
   22  0.007  0.001  0.000  0.008
   23  0.001  0.001  0.002  0.004
   24  0.007  0.001  0.000  0.008
   25  0.008  0.001  0.000  0.009
   26  0.008  0.001  0.000  0.009
   27  0.007  0.001  0.000  0.008
   28  0.009  0.001  0.000  0.010
   29  0.006  0.001  0.000  0.007
   30  0.006  0.001  0.000  0.007
   31  0.006  0.001  0.000  0.007
   32  0.006  0.001  0.000  0.007
   33  0.006  0.001  0.000  0.007
   34  0.006  0.001  0.000  0.007
   35  0.009  0.001  0.000  0.010
   36  0.010  0.024  0.116  0.150
   37  0.019  0.326  0.000  0.345
   38  0.109  0.011  0.000  0.120
tot    0.308  0.383  0.128  0.819
 
band     5 # energy   -5.62187160 # occ.  2.00000000
 
ion      s      p      d    tot
    1  0.017  0.000  0.006  0.023
    2  0.015  0.000  0.006  0.021
    3  0.015  0.000  0.006  0.021
    4  0.015  0.000  0.006  0.021
    5  0.007  0.000  0.007  0.014
    6  0.015  0.000  0.006  0.021
    7  0.015  0.000  0.006  0.021
    8  0.015  0.000  0.006  0.021
    9  0.024  0.000  0.005  0.029
   10  0.003  0.003  0.003  0.009
   11  0.012  0.005  0.001  0.018
   12  0.003  0.003  0.003  0.009
   13  0.012  0.005  0.001  0.018
   14  0.012  0.005  0.001  0.018
   15  0.000  0.003  0.004  0.007
   16  0.003  0.003  0.003  0.009
   17  0.000  0.003  0.004  0.007
   18  0.000  0.003  0.004  0.007
   19  0.001  0.003  0.004  0.008
   20  0.016  0.004  0.002  0.022
   21  0.015  0.004  0.002  0.022
   22  0.001  0.004  0.003  0.008
   23  0.015  0.004  0.002  0.022
   24  0.001  0.004  0.003  0.008
   25  0.001  0.003  0.004  0.008
   26  0.001  0.003  0.004  0.008
   27  0.001  0.004  0.003  0.008
   28  0.021  0.000  0.005  0.026
   29  0.016  0.000  0.007  0.023
   30  0.016  0.000  0.007  0.023
   31  0.016  0.000  0.007  0.023
   32  0.016  0.000  0.007  0.023
   33  0.016  0.000  0.007  0.023
   34  0.016  0.000  0.007  0.023
   35  0.024  0.000  0.005  0.030
   36  0.005  0.001  0.018  0.025
   37  0.000  0.000  0.000  0.000
   38  0.000  0.000  0.000  0.000
tot    0.384  0.070  0.178  0.631
 
band     6 # energy   -5.55868633 # occ.  2.00000000
 
ion      s      p      d    tot
    1  0.000  0.003  0.005  0.008
    2  0.007  0.002  0.002  0.012
    3  0.007  0.002  0.002  0.011
    4  0.007  0.002  0.002  0.011
    5  0.000  0.000  0.002  0.003
    6  0.000  0.001  0.002  0.003
    7  0.007  0.002  0.002  0.011
    8  0.000  0.001  0.002  0.003
    9  0.000  0.001  0.004  0.006
   10  0.051  0.002  0.006  0.059
   11  0.000  0.008  0.004  0.012
   12  0.013  0.007  0.007  0.027
   13  0.000  0.008  0.004  0.012
   14  0.001  0.001  0.005  0.007
   15  0.009  0.001  0.012  0.023
   16  0.012  0.007  0.007  0.027
   17  0.010  0.001  0.012  0.023
   18  0.039  0.005  0.002  0.046
   19  0.015  0.006  0.009  0.030
   20  0.031  0.004  0.003  0.038
   21  0.008  0.002  0.012  0.022
   22  0.001  0.010  0.003  0.014
   23  0.008  0.002  0.012  0.021
   24  0.005  0.000  0.006  0.012
   25  0.060  0.003  0.005  0.068
   26  0.016  0.006  0.009  0.031
   27  0.001  0.010  0.003  0.014
   28  0.000  0.004  0.006  0.010
   29  0.007  0.002  0.003  0.011
   30  0.011  0.002  0.003  0.016
   31  0.006  0.002  0.003  0.011
   32  0.001  0.001  0.003  0.004
   33  0.011  0.002  0.003  0.016
   34  0.001  0.001  0.003  0.004
   35  0.000  0.001  0.003  0.004
   36  0.000  0.001  0.012  0.013
   37  0.000  0.000  0.000  0.000
   38  0.000  0.000  0.000  0.000
tot    0.346  0.114  0.183  0.643
 
band     7 # energy   -5.55851413 # occ.  2.00000000
 
ion      s      p      d    tot
    1  0.000  0.003  0.005  0.008
    2  0.002  0.001  0.002  0.006
    3  0.002  0.001  0.002  0.006
    4  0.003  0.001  0.002  0.006
    5  0.000  0.000  0.002  0.003
    6  0.010  0.002  0.002  0.014
    7  0.002  0.001  0.002  0.006
    8  0.010  0.002  0.002  0.014
    9  0.000  0.001  0.004  0.006
   10  0.000  0.009  0.008  0.017
   11  0.000  0.003  0.005  0.008
   12  0.037  0.004  0.006  0.047
   13  0.000  0.003  0.005  0.008
   14  0.000  0.011  0.003  0.014
   15  0.030  0.004  0.005  0.039
   16  0.038  0.004  0.006  0.048
   17  0.029  0.003  0.006  0.038
   18  0.000  0.000  0.016  0.016
   19  0.046  0.004  0.007  0.057
   20  0.000  0.001  0.015  0.016
   21  0.023  0.004  0.006  0.032
   22  0.004  0.004  0.005  0.013
   23  0.023  0.004  0.006  0.032
   24  0.000  0.013  0.002  0.015
   25  0.000  0.007  0.011  0.018
   26  0.045  0.004  0.007  0.056
   27  0.004  0.003  0.005  0.013
   28  0.000  0.004  0.006  0.010
   29  0.006  0.002  0.003  0.010
   30  0.001  0.001  0.003  0.005
   31  0.006  0.002  0.003  0.010
   32  0.012  0.003  0.003  0.017
   33  0.001  0.001  0.003  0.005
   34  0.012  0.003  0.003  0.017
   35  0.000  0.001  0.003  0.004
   36  0.000  0.001  0.012  0.013
   37  0.000  0.000  0.000  0.000
   38  0.000  0.000  0.000  0.000
tot    0.346  0.114  0.183  0.643
 
band     8 # energy   -5.54335665 # occ.  2.00000000
 
ion      s      p      d    tot
    1  0.020  0.003  0.001  0.024
    2  0.000  0.002  0.004  0.006
    3  0.000  0.002  0.004  0.006
    4  0.000  0.002  0.004  0.006
    5  0.001  0.000  0.000  0.001
    6  0.000  0.002  0.004  0.006
    7  0.000  0.002  0.004  0.006
    8  0.000  0.002  0.004  0.006
    9  0.011  0.002  0.000  0.013
   10  0.028  0.005  0.007  0.040
   11  0.004  0.001  0.011  0.015
   12  0.029  0.005  0.007  0.041
   13  0.003  0.001  0.011  0.015
   14  0.003  0.001  0.011  0.015
   15  0.015  0.009  0.003  0.026
   16  0.029  0.005  0.007  0.041
   17  0.015  0.009  0.003  0.026
   18  0.015  0.009  0.003  0.026
   19  0.020  0.009  0.002  0.031
   20  0.000  0.002  0.010  0.012
   21  0.000  0.002  0.010  0.012
   22  0.027  0.003  0.008  0.039
   23  0.000  0.002  0.010  0.012
   24  0.026  0.003  0.008  0.037
   25  0.020  0.009  0.002  0.032
   26  0.020  0.009  0.002  0.031
   27  0.027  0.003  0.008  0.039
   28  0.019  0.003  0.000  0.022
   29  0.000  0.002  0.004  0.006
   30  0.000  0.002  0.004  0.006
   31  0.000  0.002  0.004  0.006
   32  0.000  0.002  0.004  0.006
   33  0.000  0.002  0.004  0.006
   34  0.000  0.002  0.004  0.006
   35  0.014  0.003  0.001  0.018
   36  0.000  0.000  0.000  0.000
   37  0.000  0.000  0.000  0.000
   38  0.000  0.000  0.000  0.000
tot    0.347  0.116  0.175  0.638
 
band     9 # energy   -5.53949493 # occ.  2.00000000
 
ion      s      p      d    tot
    1  0.000  0.000  0.003  0.003
    2  0.007  0.002  0.002  0.012
    3  0.008  0.002  0.002  0.012
    4  0.007  0.002  0.002  0.012
    5  0.000  0.003  0.006  0.009
    6  0.000  0.001  0.002  0.003
    7  0.008  0.002  0.002  0.012
    8  0.000  0.001  0.002  0.003
    9  0.000  0.002  0.003  0.005
   10  0.000  0.004  0.011  0.015
   11  0.047  0.004  0.006  0.057
   12  0.008  0.003  0.005  0.017
   13  0.046  0.004  0.007  0.056
   14  0.000  0.003  0.015  0.018
   15  0.016  0.003  0.006  0.025
   16  0.008  0.003  0.005  0.017
   17  0.015  0.004  0.005  0.024
   18  0.000  0.014  0.002  0.015
   19  0.002  0.003  0.005  0.011
   20  0.000  0.013  0.003  0.016
   21  0.026  0.004  0.006  0.035
   22  0.043  0.004  0.007  0.053
   23  0.026  0.004  0.006  0.036
   24  0.000  0.001  0.017  0.018
   25  0.000  0.007  0.008  0.015
   26  0.002  0.004  0.005  0.011
   27  0.044  0.004  0.006  0.054
   28  0.000  0.000  0.003  0.003
   29  0.006  0.002  0.002  0.010
   30  0.008  0.002  0.003  0.014
   31  0.006  0.002  0.002  0.010
   32  0.000  0.001  0.002  0.003
   33  0.008  0.002  0.003  0.014
   34  0.000  0.001  0.002  0.003
   35  0.000  0.003  0.006  0.008
   36  0.000  0.004  0.010  0.014
   37  0.000  0.000  0.000  0.000
   38  0.000  0.000  0.000  0.000
tot    0.343  0.116  0.184  0.643
 
band    10 # energy   -5.53933087 # occ.  2.00000000
 
ion      s      p      d    tot
    1  0.000  0.000  0.003  0.003
    2  0.003  0.001  0.002  0.006
    3  0.002  0.001  0.002  0.006
    4  0.003  0.001  0.002  0.006
    5  0.000  0.003  0.006  0.009
    6  0.010  0.003  0.002  0.015
    7  0.003  0.001  0.002  0.006
    8  0.010  0.003  0.003  0.015
    9  0.000  0.002  0.003  0.006
   10  0.011  0.003  0.003  0.017
   11  0.015  0.003  0.012  0.030
   12  0.003  0.004  0.009  0.015
   13  0.016  0.003  0.012  0.031
   14  0.062  0.004  0.004  0.070
   15  0.005  0.010  0.003  0.019
   16  0.002  0.004  0.009  0.015
   17  0.006  0.010  0.003  0.019
   18  0.021  0.000  0.007  0.028
   19  0.001  0.006  0.007  0.014
   20  0.034  0.001  0.007  0.041
   21  0.009  0.010  0.004  0.023
   22  0.015  0.002  0.013  0.030
   23  0.008  0.010  0.004  0.022
   24  0.059  0.005  0.003  0.067
   25  0.004  0.002  0.004  0.009
   26  0.001  0.006  0.007  0.013
   27  0.013  0.002  0.013  0.029
   28  0.000  0.000  0.003  0.003
   29  0.003  0.002  0.003  0.008
   30  0.001  0.001  0.002  0.004
   31  0.004  0.002  0.003  0.008
   32  0.010  0.003  0.003  0.015
   33  0.002  0.001  0.002  0.005
   34  0.009  0.003  0.003  0.015
   35  0.000  0.003  0.006  0.008
   36  0.000  0.004  0.010  0.014
   37  0.000  0.000  0.000  0.000
   38  0.000  0.000  0.000  0.000
tot    0.343  0.116  0.184  0.643
 
band    11 # energy   -5.43484792 # occ.  2.00000000
 
ion      s      p      d    tot
    1  0.000  0.001  0.001  0.002
    2  0.001  0.002  0.006  0.010
    3  0.001  0.002  0.006  0.010
    4  0.001  0.002  0.006  0.010
    5  0.039  0.004  0.000  0.043
    6  0.001  0.002  0.006  0.010
    7  0.001  0.002  0.006  0.010
    8  0.001  0.002  0.006  0.010
    9  0.004  0.002  0.003  0.010
   10  0.004  0.005  0.008  0.017
   11  0.024  0.009  0.004  0.037
   12  0.004  0.005  0.008  0.017
   13  0.024  0.009  0.004  0.037
   14  0.024  0.009  0.004  0.037
   15  0.025  0.001  0.013  0.039
   16  0.004  0.005  0.008  0.017
   17  0.025  0.001  0.013  0.039
   18  0.025  0.001  0.013  0.039
   19  0.009  0.001  0.009  0.020
   20  0.018  0.004  0.006  0.029
   21  0.018  0.004  0.006  0.029
   22  0.005  0.006  0.005  0.016
   23  0.018  0.004  0.006  0.029
   24  0.005  0.006  0.005  0.016
   25  0.009  0.001  0.009  0.020
   26  0.009  0.001  0.009  0.020
   27  0.005  0.006  0.005  0.016
   28  0.000  0.001  0.003  0.003
   29  0.002  0.001  0.003  0.006
   30  0.002  0.001  0.003  0.006
   31  0.002  0.001  0.003  0.006
   32  0.002  0.001  0.003  0.006
   33  0.002  0.001  0.003  0.006
   34  0.002  0.001  0.003  0.006
   35  0.000  0.000  0.001  0.002
   36  0.012  0.005  0.004  0.022
   37  0.001  0.005  0.000  0.005
   38  0.001  0.000  0.000  0.002
tot    0.339  0.116  0.201  0.655
 
band    12 # energy   -4.81518777 # occ.  2.00000000
 
ion      s      p      d    tot
    1  0.000  0.004  0.010  0.014
    2  0.018  0.003  0.005  0.026
    3  0.000  0.001  0.005  0.007
    4  0.017  0.003  0.005  0.026
    5  0.000  0.000  0.010  0.011
    6  0.013  0.003  0.005  0.021
    7  0.000  0.002  0.005  0.007
    8  0.013  0.003  0.005  0.021
    9  0.000  0.005  0.008  0.013
   10  0.000  0.004  0.020  0.024
   11  0.003  0.002  0.010  0.014
   12  0.007  0.002  0.009  0.018
   13  0.003  0.002  0.010  0.014
   14  0.000  0.002  0.014  0.016
   15  0.018  0.004  0.009  0.031
   16  0.007  0.002  0.010  0.018
   17  0.019  0.004  0.009  0.032
   18  0.000  0.000  0.022  0.022
   19  0.011  0.004  0.010  0.025
   20  0.000  0.003  0.015  0.017
   21  0.000  0.001  0.011  0.013
   22  0.008  0.003  0.009  0.020
   23  0.000  0.001  0.011  0.013
   24  0.000  0.002  0.029  0.031
   25  0.000  0.000  0.016  0.016
   26  0.011  0.004  0.010  0.025
   27  0.008  0.003  0.010  0.020
   28  0.000  0.004  0.007  0.012
   29  0.020  0.003  0.007  0.030
   30  0.000  0.002  0.007  0.009
   31  0.020  0.003  0.007  0.030
   32  0.017  0.003  0.007  0.027
   33  0.000  0.002  0.007  0.009
   34  0.018  0.003  0.007  0.027
   35  0.000  0.005  0.010  0.015
   36  0.000  0.000  0.032  0.033
   37  0.000  0.000  0.000  0.000
   38  0.000  0.000  0.000  0.000
tot    0.230  0.092  0.384  0.706
 
band    13 # energy   -4.81517585 # occ.  2.00000000
 
ion      s      p      d    tot
    1  0.000  0.004  0.010  0.014
    2  0.003  0.002  0.005  0.010
    3  0.020  0.004  0.005  0.029
    4  0.003  0.002  0.005  0.010
    5  0.000  0.000  0.010  0.011
    6  0.008  0.002  0.005  0.015
    7  0.020  0.004  0.005  0.029
    8  0.007  0.002  0.005  0.014
    9  0.000  0.005  0.008  0.013
   10  0.009  0.001  0.006  0.016
   11  0.001  0.002  0.013  0.016
   12  0.002  0.003  0.017  0.022
   13  0.001  0.002  0.013  0.016
   14  0.004  0.002  0.008  0.013
   15  0.006  0.001  0.018  0.025
   16  0.002  0.003  0.017  0.022
   17  0.006  0.001  0.018  0.025
   18  0.025  0.005  0.005  0.035
   19  0.004  0.002  0.014  0.019
   20  0.001  0.001  0.010  0.011
   21  0.000  0.002  0.013  0.016
   22  0.003  0.002  0.022  0.027
   23  0.000  0.002  0.013  0.016
   24  0.011  0.003  0.003  0.017
   25  0.014  0.006  0.008  0.028
   26  0.004  0.001  0.014  0.019
   27  0.003  0.002  0.022  0.027
   28  0.000  0.004  0.007  0.012
   29  0.005  0.002  0.007  0.014
   30  0.025  0.003  0.007  0.035
   31  0.005  0.002  0.007  0.014
   32  0.008  0.003  0.007  0.017
   33  0.025  0.003  0.007  0.035
   34  0.007  0.002  0.007  0.017
   35  0.000  0.005  0.010  0.015
   36  0.000  0.000  0.032  0.033
   37  0.000  0.000  0.000  0.000
   38  0.000  0.000  0.000  0.000
tot    0.230  0.092  0.384  0.706
 
band    14 # energy   -4.79032555 # occ.  2.00000000
 
ion      s      p      d    tot
    1  0.007  0.000  0.009  0.016
    2  0.005  0.000  0.009  0.014
    3  0.005  0.000  0.009  0.014
    4  0.005  0.000  0.009  0.014
    5  0.002  0.001  0.009  0.012
    6  0.005  0.000  0.009  0.014
    7  0.005  0.000  0.009  0.014
    8  0.005  0.000  0.009  0.014
    9  0.007  0.000  0.009  0.016
   10  0.006  0.000  0.025  0.031
   11  0.009  0.000  0.022  0.031
   12  0.006  0.000  0.025  0.031
   13  0.009  0.000  0.022  0.031
   14  0.009  0.000  0.022  0.031
   15  0.005  0.000  0.023  0.028
   16  0.006  0.000  0.025  0.031
   17  0.005  0.000  0.023  0.028
   18  0.005  0.000  0.023  0.028
   19  0.005  0.000  0.022  0.027
   20  0.008  0.000  0.023  0.031
   21  0.008  0.000  0.023  0.031
   22  0.006  0.000  0.022  0.028
   23  0.008  0.000  0.023  0.031
   24  0.006  0.000  0.022  0.028
   25  0.005  0.000  0.022  0.027
   26  0.005  0.000  0.022  0.027
   27  0.006  0.000  0.022  0.028
   28  0.006  0.000  0.008  0.014
   29  0.004  0.000  0.008  0.013
   30  0.004  0.000  0.008  0.013
   31  0.004  0.000  0.008  0.013
   32  0.004  0.000  0.008  0.013
   33  0.004  0.000  0.008  0.013
   34  0.004  0.000  0.008  0.013
   35  0.005  0.000  0.008  0.013
   36  0.002  0.002  0.014  0.018
   37  0.000  0.001  0.000  0.001
   38  0.000  0.000  0.000  0.000
tot    0.200  0.012  0.572  0.783
 
band    15 # energy   -4.78058925 # occ.  2.00000000
 
ion      s      p      d    tot
    1  0.031  0.004  0.001  0.035
    2  0.000  0.003  0.010  0.013
    3  0.000  0.003  0.010  0.013
    4  0.000  0.003  0.010  0.013
    5  0.000  0.000  0.000  0.000
    6  0.000  0.003  0.010  0.013
    7  0.000  0.003  0.010  0.013
    8  0.000  0.003  0.010  0.013
    9  0.034  0.003  0.000  0.038
   10  0.010  0.004  0.010  0.024
   11  0.001  0.000  0.014  0.015
   12  0.010  0.004  0.010  0.024
   13  0.001  0.000  0.014  0.015
   14  0.001  0.000  0.014  0.015
   15  0.006  0.004  0.018  0.027
   16  0.010  0.004  0.010  0.024
   17  0.006  0.004  0.018  0.027
   18  0.006  0.004  0.018  0.027
   19  0.006  0.004  0.018  0.027
   20  0.001  0.000  0.014  0.014
   21  0.001  0.000  0.014  0.014
   22  0.010  0.004  0.010  0.024
   23  0.001  0.000  0.014  0.014
   24  0.010  0.004  0.010  0.024
   25  0.006  0.004  0.018  0.027
   26  0.006  0.004  0.018  0.027
   27  0.010  0.004  0.010  0.024
   28  0.034  0.003  0.000  0.038
   29  0.000  0.003  0.010  0.013
   30  0.000  0.003  0.010  0.013
   31  0.000  0.003  0.010  0.013
   32  0.000  0.003  0.010  0.013
   33  0.000  0.003  0.010  0.013
   34  0.000  0.003  0.010  0.013
   35  0.032  0.004  0.001  0.037
   36  0.000  0.000  0.000  0.000
   37  0.000  0.000  0.000  0.000
   38  0.000  0.000  0.000  0.000
tot    0.231  0.095  0.377  0.703
 
band    16 # energy   -4.76000971 # occ.  2.00000000
 
ion      s      p      d    tot
    1  0.000  0.002  0.010  0.012
    2  0.020  0.004  0.006  0.029
    3  0.000  0.002  0.005  0.007
    4  0.019  0.004  0.006  0.028
    5  0.000  0.006  0.009  0.016
    6  0.013  0.003  0.006  0.021
    7  0.001  0.002  0.005  0.008
    8  0.014  0.003  0.006  0.022
    9  0.000  0.001  0.013  0.014
   10  0.014  0.005  0.009  0.028
   11  0.005  0.002  0.022  0.029
   12  0.003  0.001  0.016  0.020
   13  0.004  0.002  0.023  0.029
   14  0.018  0.004  0.005  0.027
   15  0.000  0.003  0.016  0.019
   16  0.004  0.001  0.015  0.021
   17  0.000  0.003  0.017  0.020
   18  0.000  0.000  0.009  0.009
   19  0.001  0.003  0.017  0.021
   20  0.022  0.005  0.004  0.031
   21  0.005  0.002  0.022  0.029
   22  0.002  0.001  0.014  0.017
   23  0.006  0.002  0.021  0.029
   24  0.009  0.003  0.009  0.022
   25  0.002  0.000  0.007  0.010
   26  0.001  0.003  0.018  0.021
   27  0.002  0.002  0.013  0.017
   28  0.000  0.002  0.011  0.013
   29  0.015  0.003  0.006  0.025
   30  0.000  0.001  0.005  0.006
   31  0.015  0.003  0.006  0.024
   32  0.012  0.003  0.006  0.021
   33  0.000  0.001  0.005  0.006
   34  0.013  0.003  0.006  0.022
   35  0.000  0.001  0.009  0.010
   36  0.000  0.008  0.019  0.027
   37  0.000  0.000  0.000  0.000
   38  0.000  0.000  0.000  0.000
tot    0.221  0.095  0.397  0.713
 
band    17 # energy   -4.75997352 # occ.  2.00000000
 
ion      s      p      d    tot
    1  0.000  0.002  0.010  0.012
    2  0.002  0.002  0.006  0.010
    3  0.022  0.004  0.006  0.031
    4  0.003  0.002  0.006  0.010
    5  0.000  0.006  0.009  0.016
    6  0.009  0.002  0.005  0.017
    7  0.021  0.004  0.006  0.031
    8  0.009  0.002  0.005  0.016
    9  0.000  0.001  0.013  0.014
   10  0.000  0.000  0.017  0.018
   11  0.013  0.003  0.011  0.028
   12  0.011  0.004  0.011  0.026
   13  0.014  0.004  0.010  0.028
   14  0.000  0.002  0.028  0.030
   15  0.000  0.001  0.011  0.013
   16  0.011  0.004  0.011  0.026
   17  0.000  0.001  0.011  0.012
   18  0.000  0.004  0.019  0.023
   19  0.002  0.001  0.011  0.014
   20  0.000  0.001  0.028  0.029
   21  0.017  0.004  0.010  0.030
   22  0.007  0.003  0.011  0.020
   23  0.016  0.004  0.010  0.030
   24  0.000  0.001  0.015  0.016
   25  0.000  0.004  0.021  0.025
   26  0.002  0.001  0.010  0.013
   27  0.007  0.003  0.011  0.020
   28  0.000  0.002  0.011  0.013
   29  0.003  0.002  0.005  0.010
   30  0.018  0.004  0.007  0.029
   31  0.004  0.002  0.005  0.010
   32  0.006  0.002  0.005  0.014
   33  0.018  0.004  0.007  0.028
   34  0.006  0.002  0.005  0.013
   35  0.000  0.001  0.009  0.010
   36  0.000  0.008  0.019  0.027
   37  0.000  0.000  0.000  0.000
   38  0.000  0.000  0.000  0.000
tot    0.221  0.095  0.397  0.713
 
band    18 # energy   -4.59357992 # occ.  2.00000000
 
ion      s      p      d    tot
    1  0.016  0.001  0.000  0.018
    2  0.000  0.003  0.012  0.015
    3  0.000  0.003  0.012  0.015
    4  0.000  0.003  0.012  0.015
    5  0.043  0.004  0.000  0.047
    6  0.000  0.003  0.012  0.015
    7  0.000  0.003  0.012  0.015
    8  0.000  0.003  0.012  0.015
    9  0.005  0.001  0.000  0.006
   10  0.001  0.001  0.029  0.031
   11  0.004  0.004  0.022  0.031
   12  0.001  0.001  0.029  0.031
   13  0.004  0.004  0.022  0.031
   14  0.004  0.004  0.022  0.031
   15  0.002  0.001  0.007  0.011
   16  0.001  0.001  0.029  0.031
   17  0.002  0.001  0.007  0.011
   18  0.002  0.001  0.007  0.011
   19  0.009  0.001  0.023  0.033
   20  0.014  0.003  0.004  0.021
   21  0.014  0.003  0.004  0.021
   22  0.002  0.002  0.019  0.022
   23  0.014  0.003  0.004  0.021
   24  0.002  0.002  0.019  0.022
   25  0.009  0.001  0.023  0.033
   26  0.009  0.001  0.023  0.033
   27  0.002  0.002  0.019  0.022
   28  0.003  0.001  0.004  0.009
   29  0.001  0.002  0.010  0.013
   30  0.001  0.002  0.010  0.013
   31  0.001  0.002  0.010  0.013
   32  0.001  0.002  0.010  0.013
   33  0.001  0.002  0.010  0.013
   34  0.001  0.002  0.010  0.013
   35  0.005  0.001  0.001  0.008
   36  0.028  0.010  0.004  0.042
   37  0.001  0.004  0.000  0.004
   38  0.001  0.000  0.000  0.001
tot    0.203  0.091  0.450  0.744
 
band    19 # energy   -4.15699897 # occ.  2.00000000
 
ion      s      p      d    tot
    1  0.000  0.001  0.030  0.031
    2  0.015  0.001  0.008  0.024
    3  0.006  0.001  0.008  0.015
    4  0.014  0.001  0.008  0.024
    5  0.000  0.001  0.014  0.015
    6  0.002  0.001  0.008  0.011
    7  0.006  0.001  0.008  0.015
    8  0.002  0.001  0.008  0.011
    9  0.000  0.003  0.003  0.006
   10  0.000  0.000  0.061  0.061
   11  0.000  0.003  0.016  0.020
   12  0.000  0.000  0.019  0.019
   13  0.000  0.003  0.016  0.020
   14  0.000  0.000  0.009  0.009
   15  0.000  0.005  0.016  0.021
   16  0.000  0.000  0.018  0.019
   17  0.000  0.005  0.016  0.021
   18  0.000  0.000  0.026  0.026
   19  0.003  0.004  0.014  0.021
   20  0.000  0.000  0.055  0.055
   21  0.000  0.000  0.021  0.022
   22  0.002  0.002  0.016  0.020
   23  0.000  0.000  0.021  0.021
   24  0.000  0.000  0.024  0.025
   25  0.000  0.000  0.014  0.014
   26  0.003  0.004  0.014  0.021
   27  0.002  0.002  0.016  0.020
   28  0.000  0.001  0.005  0.006
   29  0.010  0.000  0.016  0.026
   30  0.000  0.001  0.014  0.015
   31  0.010  0.000  0.016  0.026
   32  0.012  0.000  0.015  0.027
   33  0.000  0.001  0.014  0.015
   34  0.012  0.000  0.015  0.027
   35  0.000  0.002  0.009  0.010
   36  0.000  0.000  0.071  0.071
   37  0.000  0.001  0.000  0.001
   38  0.000  0.000  0.000  0.000
tot    0.099  0.046  0.663  0.808
 
band    20 # energy   -4.15689194 # occ.  2.00000000
 
ion      s      p      d    tot
    1  0.000  0.001  0.030  0.031
    2  0.000  0.001  0.008  0.009
    3  0.009  0.001  0.008  0.018
    4  0.000  0.001  0.008  0.009
    5  0.000  0.001  0.014  0.015
    6  0.013  0.001  0.008  0.023
    7  0.009  0.001  0.008  0.018
    8  0.013  0.001  0.008  0.023
    9  0.000  0.003  0.003  0.006
   10  0.000  0.000  0.004  0.005
   11  0.000  0.001  0.011  0.012
   12  0.000  0.000  0.047  0.047
   13  0.000  0.001  0.011  0.012
   14  0.000  0.004  0.019  0.023
   15  0.000  0.002  0.022  0.024
   16  0.000  0.000  0.047  0.047
   17  0.000  0.002  0.022  0.024
   18  0.001  0.006  0.012  0.019
   19  0.001  0.001  0.014  0.016
   20  0.000  0.000  0.010  0.010
   21  0.000  0.000  0.044  0.044
   22  0.001  0.001  0.022  0.023
   23  0.000  0.000  0.044  0.044
   24  0.003  0.003  0.013  0.019
   25  0.004  0.005  0.014  0.023
   26  0.001  0.001  0.014  0.016
   27  0.001  0.001  0.022  0.023
   28  0.000  0.001  0.005  0.006
   29  0.005  0.001  0.014  0.019
   30  0.014  0.000  0.016  0.030
   31  0.005  0.001  0.014  0.019
   32  0.003  0.001  0.015  0.018
   33  0.014  0.000  0.016  0.030
   34  0.003  0.001  0.015  0.018
   35  0.000  0.002  0.009  0.010
   36  0.000  0.000  0.071  0.071
   37  0.000  0.001  0.000  0.001
   38  0.000  0.000  0.000  0.000
tot    0.099  0.046  0.663  0.808
 
band    21 # energy   -4.07682100 # occ.  2.00000000
 
ion      s      p      d    tot
    1  0.002  0.000  0.001  0.003
    2  0.000  0.001  0.019  0.020
    3  0.000  0.001  0.019  0.020
    4  0.000  0.001  0.019  0.020
    5  0.016  0.001  0.000  0.016
    6  0.000  0.001  0.019  0.020
    7  0.000  0.001  0.019  0.020
    8  0.000  0.001  0.019  0.020
    9  0.029  0.001  0.002  0.032
   10  0.001  0.001  0.009  0.011
   11  0.000  0.001  0.020  0.021
   12  0.001  0.001  0.009  0.011
   13  0.000  0.001  0.020  0.021
   14  0.000  0.001  0.020  0.021
   15  0.001  0.004  0.041  0.045
   16  0.001  0.001  0.009  0.011