PROCAR new format
# of k-points:   10         # of bands:  252         # of ions:   38

 k-point     1 :    0.00000000 0.00000000 0.00000000     weight = 0.01562500

band     1 # energy  -55.32749498 # occ.  2.00000000
 
ion      s      p      d    tot
    1  0.000  0.000  0.000  0.000
    2  0.000  0.000  0.000  0.000
    3  0.000  0.000  0.000  0.000
    4  0.000  0.000  0.000  0.000
    5  0.000  0.000  0.000  0.000
    6  0.000  0.000  0.000  0.000
    7  0.000  0.000  0.000  0.000
    8  0.000  0.000  0.000  0.000
    9  0.000  0.000  0.000  0.000
   10  0.000  0.000  0.000  0.000
   11  0.000  0.000  0.000  0.000
   12  0.000  0.000  0.000  0.000
   13  0.000  0.000  0.000  0.000
   14  0.000  0.000  0.000  0.000
   15  0.000  0.000  0.000  0.000
   16  0.000  0.000  0.000  0.000
   17  0.000  0.000  0.000  0.000
   18  0.000  0.000  0.000  0.000
   19  0.000  0.000  0.000  0.000
   20  0.000  0.000  0.000  0.000
   21  0.000  0.000  0.000  0.000
   22  0.000  0.000  0.000  0.000
   23  0.000  0.000  0.000  0.000
   24  0.000  0.000  0.000  0.000
   25  0.000  0.000  0.000  0.000
   26  0.000  0.000  0.000  0.000
   27  0.000  0.000  0.000  0.000
   28  0.000  0.000  0.000  0.000
   29  0.000  0.000  0.000  0.000
   30  0.000  0.000  0.000  0.000
   31  0.000  0.000  0.000  0.000
   32  0.000  0.000  0.000  0.000
   33  0.000  0.000  0.000  0.000
   34  0.000  0.000  0.000  0.000
   35  0.000  0.000  0.000  0.000
   36  0.992  0.000  0.000  0.992
   37  0.000  0.000  0.000  0.001
   38  0.000  0.000  0.000  0.000
tot    0.992  0.001  0.000  0.993
 
band     2 # energy  -31.72356311 # occ.  2.00000000
 
ion      s      p      d    tot
    1  0.000  0.000  0.000  0.000
    2  0.000  0.000  0.000  0.000
    3  0.000  0.000  0.000  0.000
    4  0.000  0.000  0.000  0.000
    5  0.000  0.000  0.000  0.000
    6  0.000  0.000  0.000  0.000
    7  0.000  0.000  0.000  0.000
    8  0.000  0.000  0.000  0.000
    9  0.000  0.000  0.000  0.000
   10  0.000  0.000  0.000  0.000
   11  0.000  0.000  0.000  0.000
   12  0.000  0.000  0.000  0.000
   13  0.000  0.000  0.000  0.000
   14  0.000  0.000  0.000  0.000
   15  0.000  0.000  0.000  0.000
   16  0.000  0.000  0.000  0.000
   17  0.000  0.000  0.000  0.000
   18  0.000  0.000  0.000  0.000
   19  0.000  0.000  0.000  0.000
   20  0.000  0.000  0.000  0.000
   21  0.000  0.000  0.000  0.000
   22  0.000  0.000  0.000  0.000
   23  0.000  0.000  0.000  0.000
   24  0.000  0.000  0.000  0.000
   25  0.000  0.000  0.000  0.000
   26  0.000  0.000  0.000  0.000
   27  0.000  0.000  0.000  0.000
   28  0.000  0.000  0.000  0.000
   29  0.000  0.000  0.000  0.000
   30  0.000  0.000  0.000  0.000
   31  0.000  0.000  0.000  0.000
   32  0.000  0.000  0.000  0.000
   33  0.000  0.000  0.000  0.000
   34  0.000  0.000  0.000  0.000
   35  0.000  0.000  0.000  0.000
   36  0.000  0.952  0.000  0.952
   37  0.015  0.006  0.000  0.021
   38  0.000  0.000  0.000  0.000
tot    0.016  0.958  0.001  0.975
 
band     3 # energy  -31.23780228 # occ.  2.00000000
 
ion      s      p      d    tot
    1  0.000  0.000  0.000  0.000
    2  0.000  0.000  0.000  0.000
    3  0.000  0.000  0.000  0.000
    4  0.000  0.000  0.000  0.000
    5  0.000  0.000  0.000  0.000
    6  0.000  0.000  0.000  0.000
    7  0.000  0.000  0.000  0.000
    8  0.000  0.000  0.000  0.000
    9  0.000  0.000  0.000  0.000
   10  0.000  0.000  0.000  0.000
   11  0.000  0.000  0.000  0.000
   12  0.000  0.000  0.000  0.000
   13  0.000  0.000  0.000  0.000
   14  0.000  0.000  0.000  0.000
   15  0.000  0.000  0.000  0.000
   16  0.000  0.000  0.000  0.000
   17  0.000  0.000  0.000  0.000
   18  0.000  0.000  0.000  0.000
   19  0.000  0.000  0.000  0.000
   20  0.000  0.000  0.000  0.000
   21  0.000  0.000  0.000  0.000
   22  0.000  0.000  0.000  0.000
   23  0.000  0.000  0.000  0.000
   24  0.000  0.000  0.000  0.000
   25  0.000  0.000  0.000  0.000
   26  0.000  0.000  0.000  0.000
   27  0.000  0.000  0.000  0.000
   28  0.000  0.000  0.000  0.000
   29  0.000  0.000  0.000  0.000
   30  0.000  0.000  0.000  0.000
   31  0.000  0.000  0.000  0.000
   32  0.000  0.000  0.000  0.000
   33  0.000  0.000  0.000  0.000
   34  0.000  0.000  0.000  0.000
   35  0.000  0.000  0.000  0.000
   36  0.000  0.972  0.000  0.972
   37  0.000  0.000  0.000  0.000
   38  0.000  0.000  0.000  0.000
tot    0.000  0.973  0.001  0.974
 
band     4 # energy  -31.23780034 # occ.  2.00000000
 
ion      s      p      d    tot
    1  0.000  0.000  0.000  0.000
    2  0.000  0.000  0.000  0.000
    3  0.000  0.000  0.000  0.000
    4  0.000  0.000  0.000  0.000
    5  0.000  0.000  0.000  0.000
    6  0.000  0.000  0.000  0.000
    7  0.000  0.000  0.000  0.000
    8  0.000  0.000  0.000  0.000
    9  0.000  0.000  0.000  0.000
   10  0.000  0.000  0.000  0.000
   11  0.000  0.000  0.000  0.000
   12  0.000  0.000  0.000  0.000
   13  0.000  0.000  0.000  0.000
   14  0.000  0.000  0.000  0.000
   15  0.000  0.000  0.000  0.000
   16  0.000  0.000  0.000  0.000
   17  0.000  0.000  0.000  0.000
   18  0.000  0.000  0.000  0.000
   19  0.000  0.000  0.000  0.000
   20  0.000  0.000  0.000  0.000
   21  0.000  0.000  0.000  0.000
   22  0.000  0.000  0.000  0.000
   23  0.000  0.000  0.000  0.000
   24  0.000  0.000  0.000  0.000
   25  0.000  0.000  0.000  0.000
   26  0.000  0.000  0.000  0.000
   27  0.000  0.000  0.000  0.000
   28  0.000  0.000  0.000  0.000
   29  0.000  0.000  0.000  0.000
   30  0.000  0.000  0.000  0.000
   31  0.000  0.000  0.000  0.000
   32  0.000  0.000  0.000  0.000
   33  0.000  0.000  0.000  0.000
   34  0.000  0.000  0.000  0.000
   35  0.000  0.000  0.000  0.000
   36  0.000  0.972  0.000  0.972
   37  0.000  0.000  0.000  0.000
   38  0.000  0.000  0.000  0.000
tot    0.000  0.973  0.001  0.974
 
band     5 # energy  -19.40392351 # occ.  2.00000000
 
ion      s      p      d    tot
    1  0.000  0.000  0.000  0.000
    2  0.000  0.000  0.000  0.000
    3  0.000  0.000  0.000  0.000
    4  0.000  0.000  0.000  0.000
    5  0.000  0.000  0.000  0.000
    6  0.000  0.000  0.000  0.000
    7  0.000  0.000  0.000  0.000
    8  0.000  0.000  0.000  0.000
    9  0.000  0.000  0.000  0.000
   10  0.000  0.000  0.000  0.000
   11  0.000  0.000  0.000  0.000
   12  0.000  0.000  0.000  0.000
   13  0.000  0.000  0.000  0.000
   14  0.000  0.000  0.000  0.000
   15  0.000  0.000  0.000  0.000
   16  0.000  0.000  0.000  0.000
   17  0.000  0.000  0.000  0.000
   18  0.000  0.000  0.000  0.000
   19  0.000  0.000  0.000  0.000
   20  0.000  0.000  0.000  0.000
   21  0.000  0.000  0.000  0.000
   22  0.000  0.000  0.000  0.000
   23  0.000  0.000  0.000  0.000
   24  0.000  0.000  0.000  0.000
   25  0.000  0.000  0.000  0.000
   26  0.000  0.000  0.000  0.000
   27  0.000  0.000  0.000  0.000
   28  0.000  0.000  0.000  0.000
   29  0.000  0.000  0.000  0.000
   30  0.000  0.000  0.000  0.000
   31  0.000  0.000  0.000  0.000
   32  0.000  0.000  0.000  0.000
   33  0.000  0.000  0.000  0.000
   34  0.000  0.000  0.000  0.000
   35  0.000  0.000  0.000  0.000
   36  0.004  0.019  0.012  0.035
   37  0.731  0.018  0.000  0.749
   38  0.117  0.024  0.000  0.141
tot    0.852  0.062  0.012  0.926
 
band     6 # energy   -8.03334792 # occ.  2.00000000
 
ion      s      p      d    tot
    1  0.001  0.000  0.000  0.001
    2  0.001  0.000  0.000  0.001
    3  0.001  0.000  0.000  0.001
    4  0.001  0.000  0.000  0.001
    5  0.001  0.000  0.000  0.001
    6  0.001  0.000  0.000  0.001
    7  0.001  0.000  0.000  0.001
    8  0.001  0.000  0.000  0.001
    9  0.001  0.000  0.000  0.001
   10  0.004  0.000  0.000  0.004
   11  0.004  0.000  0.000  0.004
   12  0.004  0.000  0.000  0.004
   13  0.004  0.000  0.000  0.004
   14  0.004  0.000  0.000  0.004
   15  0.003  0.000  0.000  0.003
   16  0.004  0.000  0.000  0.004
   17  0.003  0.000  0.000  0.003
   18  0.003  0.000  0.000  0.003
   19  0.005  0.000  0.000  0.005
   20  0.012  0.001  0.003  0.016
   21  0.012  0.001  0.003  0.016
   22  0.005  0.000  0.000  0.005
   23  0.012  0.001  0.003  0.016
   24  0.005  0.000  0.000  0.005
   25  0.005  0.000  0.000  0.005
   26  0.005  0.000  0.000  0.005
   27  0.005  0.000  0.000  0.005
   28  0.001  0.000  0.000  0.001
   29  0.002  0.000  0.000  0.002
   30  0.002  0.000  0.000  0.002
   31  0.002  0.000  0.000  0.002
   32  0.002  0.000  0.000  0.002
   33  0.002  0.000  0.000  0.002
   34  0.002  0.000  0.000  0.002
   35  0.001  0.000  0.000  0.001
   36  0.027  0.011  0.084  0.122
   37  0.019  0.413  0.000  0.432
   38  0.137  0.015  0.000  0.151
tot    0.302  0.442  0.095  0.839
 
band     7 # energy   -7.71289621 # occ.  2.00000000
 
ion      s      p      d    tot
    1  0.006  0.000  0.000  0.006
    2  0.006  0.000  0.000  0.007
    3  0.006  0.000  0.000  0.007
    4  0.006  0.000  0.000  0.007
    5  0.006  0.000  0.000  0.007
    6  0.006  0.000  0.000  0.007
    7  0.006  0.000  0.000  0.007
    8  0.006  0.000  0.000  0.007
    9  0.006  0.000  0.000  0.007
   10  0.023  0.000  0.000  0.023
   11  0.024  0.000  0.000  0.024
   12  0.023  0.000  0.000  0.023
   13  0.024  0.000  0.000  0.024
   14  0.024  0.000  0.000  0.024
   15  0.023  0.000  0.000  0.023
   16  0.023  0.000  0.000  0.023
   17  0.023  0.000  0.000  0.023
   18  0.023  0.000  0.000  0.023
   19  0.018  0.000  0.000  0.018
   20  0.016  0.000  0.001  0.017
   21  0.016  0.000  0.001  0.017
   22  0.019  0.000  0.000  0.020
   23  0.016  0.000  0.001  0.017
   24  0.019  0.000  0.000  0.020
   25  0.018  0.000  0.000  0.018
   26  0.018  0.000  0.000  0.018
   27  0.019  0.000  0.000  0.020
   28  0.004  0.000  0.000  0.004
   29  0.003  0.000  0.000  0.003
   30  0.003  0.000  0.000  0.003
   31  0.003  0.000  0.000  0.003
   32  0.003  0.000  0.000  0.003
   33  0.003  0.000  0.000  0.003
   34  0.003  0.000  0.000  0.003
   35  0.004  0.000  0.000  0.004
   36  0.001  0.006  0.024  0.031
   37  0.007  0.107  0.000  0.113
   38  0.035  0.004  0.000  0.038
tot    0.491  0.127  0.029  0.647
 
band     8 # energy   -6.59437743 # occ.  2.00000000
 
ion      s      p      d    tot
    1  0.017  0.000  0.001  0.018
    2  0.016  0.000  0.001  0.018
    3  0.016  0.000  0.001  0.018
    4  0.016  0.000  0.001  0.018
    5  0.016  0.000  0.001  0.017
    6  0.016  0.000  0.001  0.018
    7  0.016  0.000  0.001  0.018
    8  0.016  0.000  0.001  0.018
    9  0.016  0.000  0.001  0.017
   10  0.011  0.001  0.002  0.014
   11  0.010  0.001  0.003  0.014
   12  0.011  0.001  0.002  0.014
   13  0.010  0.001  0.003  0.014
   14  0.010  0.001  0.003  0.014
   15  0.010  0.001  0.002  0.013
   16  0.011  0.001  0.002  0.014
   17  0.010  0.001  0.002  0.013
   18  0.010  0.001  0.002  0.013
   19  0.013  0.001  0.003  0.018
   20  0.014  0.001  0.004  0.018
   21  0.014  0.001  0.004  0.018
   22  0.015  0.001  0.003  0.019
   23  0.014  0.001  0.004  0.018
   24  0.015  0.001  0.003  0.019
   25  0.013  0.001  0.003  0.018
   26  0.013  0.001  0.003  0.018
   27  0.015  0.001  0.003  0.019
   28  0.015  0.000  0.001  0.016
   29  0.015  0.001  0.001  0.016
   30  0.015  0.001  0.001  0.016
   31  0.015  0.001  0.001  0.016
   32  0.015  0.001  0.001  0.016
   33  0.015  0.001  0.001  0.016
   34  0.015  0.001  0.001  0.016
   35  0.015  0.000  0.001  0.016
   36  0.003  0.001  0.004  0.009
   37  0.001  0.006  0.000  0.006
   38  0.002  0.000  0.000  0.002
tot    0.484  0.037  0.073  0.595
 
band     9 # energy   -5.68694772 # occ.  2.00000000
 
ion      s      p      d    tot
    1  0.002  0.000  0.008  0.010
    2  0.007  0.000  0.006  0.013
    3  0.007  0.000  0.006  0.013
    4  0.007  0.000  0.006  0.013
    5  0.005  0.000  0.004  0.009
    6  0.007  0.000  0.006  0.013
    7  0.007  0.000  0.006  0.013
    8  0.007  0.000  0.006  0.013
    9  0.019  0.000  0.003  0.023
   10  0.007  0.001  0.006  0.014
   11  0.005  0.002  0.004  0.010
   12  0.006  0.001  0.006  0.014
   13  0.005  0.002  0.004  0.010
   14  0.005  0.002  0.004  0.010
   15  0.003  0.001  0.004  0.008
   16  0.006  0.001  0.006  0.014
   17  0.003  0.001  0.004  0.008
   18  0.003  0.001  0.004  0.008
   19  0.003  0.001  0.015  0.018
   20  0.020  0.002  0.018  0.040
   21  0.020  0.002  0.018  0.040
   22  0.001  0.001  0.009  0.011
   23  0.020  0.002  0.018  0.040
   24  0.001  0.001  0.009  0.011
   25  0.003  0.001  0.015  0.018
   26  0.003  0.001  0.015  0.018
   27  0.001  0.001  0.009  0.011
   28  0.017  0.000  0.008  0.024
   29  0.017  0.000  0.013  0.030
   30  0.017  0.000  0.013  0.030
   31  0.017  0.000  0.013  0.030
   32  0.017  0.000  0.013  0.030
   33  0.017  0.000  0.013  0.030
   34  0.017  0.000  0.013  0.030
   35  0.029  0.000  0.009  0.038
   36  0.002  0.002  0.006  0.010
   37  0.000  0.002  0.000  0.002
   38  0.001  0.000  0.000  0.001
tot    0.332  0.028  0.321  0.680
 
band    10 # energy   -5.67693446 # occ.  2.00000000
 
ion      s      p      d    tot
    1  0.000  0.001  0.008  0.008
    2  0.003  0.001  0.002  0.006
    3  0.000  0.000  0.003  0.003
    4  0.003  0.001  0.002  0.006
    5  0.000  0.001  0.005  0.006
    6  0.005  0.001  0.003  0.009
    7  0.000  0.000  0.003  0.003
    8  0.005  0.001  0.003  0.009
    9  0.000  0.000  0.001  0.001
   10  0.039  0.002  0.005  0.047
   11  0.011  0.003  0.019  0.032
   12  0.010  0.001  0.025  0.036
   13  0.011  0.003  0.018  0.033
   14  0.044  0.001  0.012  0.056
   15  0.000  0.002  0.007  0.009
   16  0.010  0.001  0.026  0.036
   17  0.000  0.002  0.007  0.009
   18  0.000  0.000  0.010  0.010
   19  0.003  0.003  0.006  0.013
   20  0.069  0.001  0.012  0.082
   21  0.018  0.002  0.034  0.054
   22  0.003  0.001  0.019  0.023
   23  0.017  0.002  0.035  0.053
   24  0.012  0.001  0.006  0.019
   25  0.014  0.000  0.013  0.028
   26  0.004  0.003  0.006  0.013
   27  0.003  0.001  0.020  0.023
   28  0.000  0.000  0.001  0.002
   29  0.006  0.001  0.005  0.012
   30  0.002  0.001  0.003  0.006
   31  0.006  0.001  0.005  0.012
   32  0.001  0.000  0.003  0.004
   33  0.002  0.001  0.003  0.006
   34  0.001  0.000  0.003  0.004
   35  0.000  0.000  0.004  0.004
   36  0.000  0.001  0.008  0.009
   37  0.000  0.001  0.000  0.001
   38  0.000  0.000  0.000  0.000
tot    0.303  0.042  0.344  0.690
 
band    11 # energy   -5.67690420 # occ.  2.00000000
 
ion      s      p      d    tot
    1  0.000  0.001  0.008  0.008
    2  0.003  0.001  0.003  0.006
    3  0.006  0.001  0.003  0.009
    4  0.003  0.001  0.003  0.006
    5  0.000  0.001  0.005  0.006
    6  0.001  0.000  0.002  0.003
    7  0.006  0.001  0.003  0.009
    8  0.001  0.000  0.002  0.003
    9  0.000  0.000  0.001  0.001
   10  0.000  0.000  0.032  0.032
   11  0.033  0.001  0.014  0.048
   12  0.029  0.002  0.012  0.043
   13  0.033  0.002  0.014  0.048
   14  0.000  0.004  0.021  0.025
   15  0.000  0.001  0.009  0.010
   16  0.030  0.002  0.012  0.044
   17  0.000  0.001  0.009  0.010
   18  0.000  0.003  0.006  0.009
   19  0.011  0.001  0.011  0.023
   20  0.000  0.002  0.042  0.044
   21  0.052  0.001  0.019  0.072
   22  0.009  0.001  0.010  0.021
   23  0.052  0.001  0.019  0.073
   24  0.000  0.001  0.024  0.025
   25  0.000  0.004  0.004  0.008
   26  0.010  0.001  0.011  0.023
   27  0.009  0.001  0.010  0.021
   28  0.000  0.000  0.001  0.002
   29  0.000  0.000  0.002  0.003
   30  0.004  0.001  0.004  0.009
   31  0.000  0.000  0.002  0.003
   32  0.005  0.001  0.004  0.010
   33  0.004  0.001  0.004  0.009
   34  0.005  0.001  0.004  0.010
   35  0.000  0.000  0.004  0.004
   36  0.000  0.001  0.008  0.009
   37  0.000  0.001  0.000  0.001
   38  0.000  0.000  0.000  0.000
tot    0.303  0.042  0.344  0.690
 
band    12 # energy   -5.63272928 # occ.  2.00000000
 
ion      s      p      d    tot
    1  0.023  0.000  0.013  0.036
    2  0.014  0.000  0.016  0.030
    3  0.014  0.000  0.016  0.030
    4  0.014  0.000  0.016  0.030
    5  0.011  0.000  0.017  0.028
    6  0.014  0.000  0.016  0.030
    7  0.014  0.000  0.016  0.030
    8  0.014  0.000  0.016  0.030
    9  0.010  0.000  0.015  0.026
   10  0.002  0.000  0.031  0.032
   11  0.010  0.000  0.024  0.034
   12  0.002  0.000  0.031  0.032
   13  0.010  0.000  0.024  0.034
   14  0.010  0.000  0.024  0.034
   15  0.013  0.001  0.021  0.035
   16  0.002  0.000  0.031  0.032
   17  0.013  0.001  0.021  0.035
   18  0.013  0.001  0.021  0.035
   19  0.005  0.000  0.009  0.015
   20  0.004  0.000  0.020  0.024
   21  0.004  0.000  0.020  0.024
   22  0.000  0.000  0.012  0.012
   23  0.004  0.000  0.020  0.024
   24  0.000  0.000  0.012  0.012
   25  0.005  0.000  0.009  0.015
   26  0.005  0.000  0.009  0.015
   27  0.000  0.000  0.012  0.012
   28  0.000  0.000  0.001  0.001
   29  0.001  0.000  0.002  0.003
   30  0.001  0.000  0.002  0.003
   31  0.001  0.000  0.002  0.003
   32  0.001  0.000  0.002  0.003
   33  0.001  0.000  0.002  0.003
   34  0.001  0.000  0.002  0.003
   35  0.003  0.000  0.001  0.004
   36  0.000  0.001  0.001  0.002
   37  0.000  0.001  0.000  0.001
   38  0.000  0.000  0.000  0.000
tot    0.237  0.008  0.503  0.747
 
band    13 # energy   -5.60790159 # occ.  2.00000000
 
ion      s      p      d    tot
    1  0.011  0.001  0.001  0.013
    2  0.000  0.000  0.004  0.004
    3  0.000  0.000  0.004  0.004
    4  0.000  0.000  0.004  0.004
    5  0.000  0.000  0.001  0.001
    6  0.000  0.000  0.004  0.004
    7  0.000  0.000  0.004  0.004
    8  0.000  0.000  0.004  0.004
    9  0.005  0.001  0.001  0.007
   10  0.012  0.000  0.018  0.030
   11  0.001  0.001  0.015  0.017
   12  0.012  0.000  0.018  0.030
   13  0.001  0.001  0.015  0.017
   14  0.001  0.001  0.015  0.017
   15  0.018  0.002  0.004  0.024
   16  0.012  0.000  0.018  0.030
   17  0.018  0.002  0.004  0.024
   18  0.018  0.002  0.004  0.024
   19  0.000  0.001  0.015  0.017
   20  0.002  0.000  0.034  0.036
   21  0.002  0.000  0.034  0.036
   22  0.031  0.003  0.006  0.040
   23  0.002  0.000  0.034  0.036
   24  0.031  0.003  0.006  0.040
   25  0.000  0.001  0.015  0.017
   26  0.000  0.001  0.015  0.017
   27  0.031  0.003  0.006  0.040
   28  0.011  0.000  0.009  0.020
   29  0.009  0.000  0.010  0.019
   30  0.009  0.000  0.010  0.019
   31  0.009  0.000  0.010  0.019
   32  0.009  0.000  0.010  0.019
   33  0.009  0.000  0.010  0.019
   34  0.009  0.000  0.010  0.019
   35  0.000  0.001  0.012  0.013
   36  0.006  0.001  0.005  0.012
   37  0.001  0.002  0.000  0.002
   38  0.000  0.000  0.000  0.000
tot    0.285  0.033  0.387  0.705
 
band    14 # energy   -5.60039271 # occ.  2.00000000
 
ion      s      p      d    tot
    1  0.002  0.001  0.001  0.004
    2  0.001  0.001  0.007  0.008
    3  0.001  0.001  0.007  0.008
    4  0.001  0.001  0.007  0.008
    5  0.023  0.002  0.000  0.025
    6  0.001  0.001  0.007  0.008
    7  0.001  0.001  0.007  0.008
    8  0.001  0.001  0.007  0.008
    9  0.001  0.000  0.004  0.005
   10  0.017  0.003  0.005  0.025
   11  0.025  0.002  0.015  0.041
   12  0.017  0.003  0.005  0.025
   13  0.025  0.002  0.015  0.041
   14  0.024  0.002  0.015  0.041
   15  0.006  0.000  0.027  0.033
   16  0.017  0.003  0.005  0.025
   17  0.006  0.000  0.027  0.033
   18  0.006  0.000  0.027  0.033
   19  0.025  0.002  0.009  0.036
   20  0.011  0.003  0.012  0.026
   21  0.011  0.003  0.012  0.026
   22  0.002  0.000  0.026  0.028
   23  0.011  0.003  0.012  0.026
   24  0.002  0.000  0.026  0.028
   25  0.025  0.002  0.009  0.036
   26  0.025  0.002  0.009  0.036
   27  0.002  0.000  0.026  0.028
   28  0.008  0.001  0.002  0.012
   29  0.000  0.000  0.004  0.005
   30  0.000  0.000  0.004  0.005
   31  0.000  0.000  0.004  0.005
   32  0.000  0.000  0.004  0.005
   33  0.000  0.000  0.004  0.005
   34  0.000  0.000  0.004  0.005
   35  0.003  0.000  0.001  0.004
   36  0.001  0.000  0.001  0.002
   37  0.000  0.000  0.000  0.000
   38  0.000  0.000  0.000  0.000
tot    0.296  0.040  0.358  0.694
 
band    15 # energy   -5.57705077 # occ.  2.00000000
 
ion      s      p      d    tot
    1  0.000  0.001  0.003  0.003
    2  0.005  0.001  0.003  0.009
    3  0.000  0.000  0.004  0.004
    4  0.005  0.001  0.003  0.009
    5  0.000  0.000  0.005  0.006
    6  0.008  0.001  0.004  0.013
    7  0.000  0.000  0.004  0.004
    8  0.007  0.001  0.004  0.013
    9  0.000  0.001  0.011  0.012
   10  0.000  0.005  0.002  0.007
   11  0.010  0.001  0.011  0.023
   12  0.014  0.001  0.013  0.028
   13  0.010  0.001  0.012  0.023
   14  0.000  0.001  0.029  0.030
   15  0.049  0.001  0.014  0.064
   16  0.015  0.001  0.014  0.030
   17  0.046  0.001  0.015  0.063
   18  0.000  0.001  0.039  0.040
   19  0.028  0.002  0.010  0.040
   20  0.000  0.003  0.010  0.012
   21  0.000  0.001  0.015  0.016
   22  0.029  0.002  0.013  0.043
   23  0.000  0.001  0.015  0.016
   24  0.000  0.004  0.019  0.022
   25  0.000  0.000  0.036  0.036
   26  0.026  0.002  0.012  0.040
   27  0.030  0.001  0.012  0.044
   28  0.000  0.000  0.006  0.007
   29  0.004  0.001  0.002  0.007
   30  0.003  0.001  0.002  0.006
   31  0.004  0.001  0.002  0.007
   32  0.000  0.000  0.002  0.002
   33  0.003  0.000  0.002  0.005
   34  0.000  0.000  0.002  0.002
   35  0.000  0.001  0.004  0.005
   36  0.000  0.000  0.000  0.001
   37  0.000  0.000  0.000  0.000
   38  0.000  0.000  0.000  0.000
tot    0.296  0.041  0.355  0.693
 
band    16 # energy   -5.57703917 # occ.  2.00000000
 
ion      s      p      d    tot
    1  0.000  0.001  0.003  0.003
    2  0.004  0.001  0.004  0.009
    3  0.008  0.001  0.004  0.013
    4  0.003  0.001  0.004  0.008
    5  0.000  0.000  0.005  0.006
    6  0.001  0.000  0.003  0.004
    7  0.008  0.001  0.004  0.013
    8  0.001  0.000  0.003  0.005
    9  0.000  0.001  0.011  0.012
   10  0.019  0.000  0.017  0.036
   11  0.003  0.001  0.024  0.028
   12  0.005  0.003  0.006  0.015
   13  0.004  0.001  0.023  0.028
   14  0.013  0.001  0.006  0.021
   15  0.014  0.001  0.031  0.047
   16  0.004  0.004  0.006  0.014
   17  0.017  0.001  0.030  0.049
   18  0.063  0.001  0.007  0.071
   19  0.008  0.001  0.028  0.037
   20  0.000  0.001  0.016  0.017
   21  0.000  0.002  0.012  0.014
   22  0.011  0.003  0.017  0.030
   23  0.000  0.002  0.011  0.014
   24  0.039  0.001  0.011  0.051
   25  0.036  0.002  0.003  0.041
   26  0.010  0.001  0.027  0.037
   27  0.009  0.003  0.017  0.029
   28  0.000  0.000  0.006  0.007
   29  0.000  0.000  0.002  0.003
   30  0.002  0.000  0.002  0.004
   31  0.001  0.000  0.002  0.003
   32  0.005  0.001  0.003  0.008
   33  0.002  0.000  0.002  0.005
   34  0.005  0.001  0.003  0.008
   35  0.000  0.001  0.004  0.005
   36  0.000  0.000  0.000  0.001
   37  0.000  0.000  0.000  0.000
   38  0.000  0.000  0.000  0.000
tot    0.296  0.041  0.355  0.693
 
band    17 # energy   -5.18941217 # occ.  2.00000000
 
ion      s      p      d    tot
    1  0.000  0.001  0.004  0.005
    2  0.001  0.001  0.005  0.006
    3  0.009  0.001  0.004  0.014
    4  0.001  0.001  0.005  0.006
    5  0.000  0.001  0.009  0.011
    6  0.004  0.001  0.003  0.008
    7  0.009  0.001  0.004  0.014
    8  0.004  0.001  0.003  0.008
    9  0.000  0.000  0.007  0.008
   10  0.000  0.001  0.051  0.051
   11  0.018  0.001  0.020  0.038
   12  0.008  0.001  0.018  0.028
   13  0.018  0.001  0.020  0.038
   14  0.000  0.000  0.046  0.046
   15  0.001  0.000  0.018  0.020
   16  0.008  0.001  0.018  0.028
   17  0.001  0.000  0.018  0.020
   18  0.000  0.001  0.011  0.013
   19  0.003  0.000  0.018  0.021
   20  0.000  0.000  0.091  0.091
   21  0.014  0.001  0.028  0.043
   22  0.004  0.001  0.019  0.023
   23  0.014  0.001  0.028  0.043
   24  0.000  0.001  0.031  0.032
   25  0.000  0.001  0.010  0.011
   26  0.003  0.000  0.018  0.021
   27  0.004  0.001  0.019  0.023
   28  0.000  0.000  0.008  0.008
   29  0.004  0.001  0.005  0.010
   30  0.008  0.001  0.006  0.015
   31  0.004  0.001  0.005  0.010
   32  0.001  0.000  0.004  0.005
   33  0.008  0.001  0.006  0.015
   34  0.001  0.000  0.004  0.005
   35  0.000  0.000  0.002  0.002
   36  0.000  0.001  0.007  0.008
   37  0.000  0.001  0.000  0.001
   38  0.000  0.000  0.000  0.000
tot    0.147  0.028  0.574  0.749
 
band    18 # energy   -5.18937855 # occ.  2.00000000
 
ion      s      p      d    tot
    1  0.000  0.001  0.004  0.005
    2  0.008  0.001  0.004  0.013
    3  0.000  0.000  0.004  0.005
    4  0.008  0.001  0.004  0.013
    5  0.000  0.001  0.009  0.011
    6  0.005  0.001  0.005  0.011
    7  0.000  0.000  0.004  0.005
    8  0.005  0.001  0.005  0.011
    9  0.000  0.000  0.007  0.008
   10  0.010  0.002  0.008  0.020
   11  0.006  0.000  0.037  0.043
   12  0.003  0.001  0.040  0.043
   13  0.006  0.000  0.037  0.043
   14  0.023  0.001  0.011  0.035
   15  0.000  0.001  0.014  0.015
   16  0.003  0.001  0.040  0.043
   17  0.000  0.001  0.014  0.015
   18  0.002  0.000  0.021  0.023
   19  0.001  0.001  0.013  0.014
   20  0.019  0.001  0.007  0.027
   21  0.005  0.000  0.070  0.075
   22  0.001  0.001  0.027  0.029
   23  0.005  0.000  0.070  0.075
   24  0.005  0.001  0.015  0.021
   25  0.004  0.000  0.020  0.025
   26  0.001  0.001  0.013  0.014
   27  0.001  0.001  0.027  0.029
   28  0.000  0.000  0.008  0.008
   29  0.004  0.001  0.005  0.010
   30  0.000  0.000  0.004  0.005
   31  0.004  0.001  0.005  0.010
   32  0.008  0.001  0.006  0.015
   33  0.000  0.000  0.004  0.005
   34  0.008  0.001  0.006  0.015
   35  0.000  0.000  0.002  0.002
   36  0.000  0.001  0.007  0.008
   37  0.000  0.001  0.000  0.001
   38  0.000  0.000  0.000  0.000
tot    0.147  0.028  0.574  0.749
 
band    19 # energy   -5.17190782 # occ.  2.00000000
 
ion      s      p      d    tot
    1  0.015  0.002  0.002  0.019
    2  0.000  0.001  0.007  0.008
    3  0.000  0.001  0.007  0.008
    4  0.000  0.001  0.007  0.008
    5  0.000  0.000  0.002  0.002
    6  0.000  0.001  0.007  0.008
    7  0.000  0.001  0.007  0.008
    8  0.000  0.001  0.007  0.008
    9  0.014  0.001  0.000  0.015
   10  0.010  0.001  0.013  0.025
   11  0.003  0.000  0.044  0.047
   12  0.010  0.001  0.013  0.025
   13  0.003  0.000  0.044  0.047
   14  0.003  0.000  0.044  0.047
   15  0.003  0.001  0.021  0.025
   16  0.010  0.001  0.013  0.025
   17  0.003  0.001  0.021  0.025
   18  0.003  0.001  0.021  0.025
   19  0.004  0.001  0.011  0.015
   20  0.001  0.000  0.058  0.058
   21  0.001  0.000  0.058  0.058
   22  0.011  0.001  0.020  0.031
   23  0.001  0.000  0.058  0.058
   24  0.011  0.001  0.020  0.031
   25  0.004  0.001  0.011  0.015
   26  0.004  0.001  0.011  0.015
   27  0.011  0.001  0.020  0.031
   28  0.015  0.001  0.000  0.016
   29  0.000  0.000  0.007  0.007
   30  0.000  0.000  0.007  0.007
   31  0.000  0.000  0.007  0.007
   32  0.000  0.000  0.007  0.007
   33  0.000  0.000  0.007  0.007
   34  0.000  0.000  0.007  0.007
   35  0.005  0.001  0.003  0.009
   36  0.001  0.000  0.001  0.001
   37  0.000  0.000  0.000  0.000
   38  0.000  0.000  0.000  0.000
tot    0.143  0.026  0.589  0.757
 
band    20 # energy   -5.09954059 # occ.  2.00000000
 
ion      s      p      d    tot
    1  0.000  0.001  0.013  0.014
    2  0.009  0.001  0.004  0.014
    3  0.001  0.000  0.005  0.006
    4  0.009  0.001  0.004  0.014
    5  0.000  0.000  0.005  0.006
    6  0.004  0.001  0.005  0.010
    7  0.001  0.000  0.005  0.006
    8  0.004  0.001  0.005  0.010
    9  0.000  0.001  0.006  0.007
   10  0.000  0.001  0.031  0.031
   11  0.000  0.001  0.020  0.021
   12  0.009  0.000  0.021  0.030
   13  0.000  0.001  0.020  0.021
   14  0.000  0.001  0.017  0.018
   15  0.010  0.002  0.020  0.032
   16  0.009  0.000  0.021  0.030
   17  0.010  0.002  0.019  0.031
   18  0.000  0.000  0.060  0.061
   19  0.014  0.001  0.019  0.034
   20  0.000  0.002  0.022  0.024
   21  0.000  0.001  0.026  0.026
   22  0.016  0.001  0.020  0.037
   23  0.000  0.001  0.026  0.026
   24  0.000  0.001  0.030  0.031
   25  0.000  0.000  0.065  0.066
   26  0.014  0.001  0.019  0.034
   27  0.016  0.001  0.020  0.037
   28  0.000  0.001  0.005  0.006
   29  0.006  0.001  0.004  0.011
   30  0.000  0.000  0.006  0.006
   31  0.006  0.001  0.004  0.011
   32  0.005  0.001  0.003  0.009
   33  0.000  0.000  0.006  0.006
   34  0.005  0.001  0.003  0.009
   35  0.000  0.001  0.009  0.010
   36  0.000  0.000  0.002  0.002
   37  0.000  0.000  0.000  0.000
   38  0.000  0.000  0.000  0.000
tot    0.149  0.029  0.570  0.748
 
band    21 # energy   -5.09953429 # occ.  2.00000000
 
ion      s      p      d    tot
    1  0.000  0.001  0.013  0.014
    2  0.000  0.001  0.005  0.006
    3  0.009  0.001  0.004  0.014
    4  0.000  0.001  0.005  0.006
    5  0.000  0.000  0.005  0.006
    6  0.005  0.001  0.004  0.010
    7  0.008  0.001  0.004  0.014
    8  0.005  0.001  0.004  0.010
    9  0.000  0.001  0.006  0.007
   10  0.012  0.000  0.018  0.030
   11  0.000  0.001  0.018  0.019
   12  0.003  0.001  0.028  0.031
   13  0.000  0.001  0.018  0.019
   14  0.000  0.001  0.020  0.022
   15  0.003  0.001  0.047  0.051
   16  0.003  0.001  0.028  0.031