PROCAR new format
# of k-points:   10         # of bands:  252         # of ions:   39

 k-point     1 :    0.00000000 0.00000000 0.00000000     weight = 0.01562500

band     1 # energy  -25.20738334 # occ.  2.00000000
 
ion      s      p      d    tot
    1  0.000  0.000  0.000  0.000
    2  0.000  0.000  0.000  0.000
    3  0.000  0.000  0.000  0.000
    4  0.000  0.000  0.000  0.000
    5  0.000  0.000  0.000  0.000
    6  0.000  0.000  0.000  0.000
    7  0.000  0.000  0.000  0.000
    8  0.000  0.000  0.000  0.000
    9  0.000  0.000  0.000  0.000
   10  0.000  0.000  0.000  0.000
   11  0.000  0.000  0.000  0.000
   12  0.000  0.000  0.000  0.000
   13  0.000  0.000  0.000  0.000
   14  0.000  0.000  0.000  0.000
   15  0.000  0.000  0.000  0.000
   16  0.000  0.000  0.000  0.000
   17  0.000  0.000  0.000  0.000
   18  0.000  0.000  0.000  0.000
   19  0.000  0.000  0.000  0.000
   20  0.000  0.000  0.000  0.000
   21  0.000  0.000  0.000  0.000
   22  0.000  0.000  0.000  0.000
   23  0.000  0.000  0.000  0.000
   24  0.000  0.000  0.000  0.000
   25  0.000  0.000  0.000  0.000
   26  0.000  0.000  0.000  0.000
   27  0.000  0.000  0.000  0.000
   28  0.000  0.000  0.000  0.000
   29  0.000  0.000  0.000  0.000
   30  0.000  0.000  0.000  0.000
   31  0.000  0.000  0.000  0.000
   32  0.000  0.000  0.000  0.000
   33  0.000  0.000  0.000  0.000
   34  0.000  0.000  0.000  0.000
   35  0.000  0.000  0.000  0.000
   36  0.000  0.000  0.000  0.000
   37  0.082  0.060  0.000  0.142
   38  0.723  0.009  0.000  0.732
   39  0.058  0.012  0.000  0.070
tot    0.863  0.081  0.000  0.944
 
band     2 # energy  -15.86287370 # occ.  2.00000000
 
ion      s      p      d    tot
    1  0.000  0.000  0.000  0.000
    2  0.000  0.000  0.000  0.000
    3  0.000  0.000  0.000  0.000
    4  0.000  0.000  0.000  0.000
    5  0.000  0.000  0.000  0.000
    6  0.000  0.000  0.000  0.000
    7  0.000  0.000  0.000  0.000
    8  0.000  0.000  0.000  0.000
    9  0.000  0.000  0.000  0.000
   10  0.000  0.000  0.000  0.000
   11  0.000  0.000  0.000  0.000
   12  0.000  0.000  0.000  0.000
   13  0.000  0.000  0.000  0.000
   14  0.000  0.000  0.000  0.000
   15  0.000  0.000  0.000  0.000
   16  0.000  0.000  0.000  0.000
   17  0.000  0.000  0.000  0.000
   18  0.000  0.000  0.000  0.000
   19  0.000  0.000  0.000  0.000
   20  0.000  0.000  0.000  0.000
   21  0.000  0.000  0.000  0.000
   22  0.000  0.000  0.000  0.000
   23  0.000  0.000  0.000  0.000
   24  0.000  0.000  0.000  0.000
   25  0.000  0.000  0.000  0.000
   26  0.000  0.000  0.000  0.000
   27  0.000  0.000  0.000  0.000
   28  0.000  0.000  0.000  0.000
   29  0.000  0.000  0.000  0.000
   30  0.000  0.000  0.000  0.000
   31  0.000  0.000  0.000  0.000
   32  0.000  0.000  0.000  0.000
   33  0.000  0.000  0.000  0.000
   34  0.000  0.000  0.000  0.000
   35  0.000  0.000  0.000  0.000
   36  0.004  0.003  0.005  0.012
   37  0.164  0.045  0.000  0.209
   38  0.021  0.517  0.000  0.538
   39  0.199  0.032  0.000  0.231
tot    0.388  0.597  0.005  0.991
 
band     3 # energy   -9.78509800 # occ.  2.00000000
 
ion      s      p      d    tot
    1  0.000  0.000  0.000  0.000
    2  0.000  0.000  0.000  0.000
    3  0.000  0.000  0.000  0.000
    4  0.000  0.000  0.000  0.000
    5  0.000  0.000  0.000  0.000
    6  0.000  0.000  0.000  0.000
    7  0.000  0.000  0.000  0.000
    8  0.000  0.000  0.000  0.000
    9  0.000  0.000  0.000  0.000
   10  0.000  0.000  0.000  0.001
   11  0.001  0.000  0.000  0.001
   12  0.000  0.000  0.000  0.001
   13  0.001  0.000  0.000  0.001
   14  0.001  0.000  0.000  0.001
   15  0.000  0.000  0.000  0.000
   16  0.000  0.000  0.000  0.001
   17  0.000  0.000  0.000  0.000
   18  0.000  0.000  0.000  0.000
   19  0.001  0.000  0.000  0.001
   20  0.007  0.002  0.002  0.010
   21  0.007  0.002  0.002  0.010
   22  0.001  0.000  0.000  0.002
   23  0.007  0.002  0.002  0.010
   24  0.001  0.000  0.000  0.002
   25  0.001  0.000  0.000  0.001
   26  0.001  0.000  0.000  0.001
   27  0.001  0.000  0.000  0.002
   28  0.001  0.000  0.000  0.001
   29  0.003  0.000  0.000  0.003
   30  0.003  0.000  0.000  0.003
   31  0.003  0.000  0.000  0.003
   32  0.003  0.000  0.000  0.003
   33  0.003  0.000  0.000  0.003
   34  0.003  0.000  0.000  0.003
   35  0.001  0.000  0.000  0.001
   36  0.170  0.047  0.248  0.465
   37  0.159  0.174  0.000  0.333
   38  0.009  0.050  0.000  0.059
   39  0.014  0.001  0.000  0.015
tot    0.404  0.280  0.254  0.937
 
band     4 # energy   -8.64400178 # occ.  2.00000000
 
ion      s      p      d    tot
    1  0.007  0.001  0.000  0.008
    2  0.007  0.001  0.000  0.008
    3  0.007  0.001  0.000  0.008
    4  0.007  0.001  0.000  0.008
    5  0.007  0.001  0.000  0.008
    6  0.007  0.001  0.000  0.008
    7  0.007  0.001  0.000  0.008
    8  0.007  0.001  0.000  0.008
    9  0.007  0.001  0.000  0.008
   10  0.025  0.000  0.000  0.025
   11  0.025  0.000  0.000  0.025
   12  0.025  0.000  0.000  0.025
   13  0.025  0.000  0.000  0.025
   14  0.024  0.000  0.000  0.025
   15  0.025  0.000  0.000  0.025
   16  0.025  0.000  0.000  0.025
   17  0.025  0.000  0.000  0.025
   18  0.025  0.000  0.000  0.025
   19  0.023  0.000  0.000  0.023
   20  0.019  0.000  0.000  0.020
   21  0.019  0.000  0.000  0.020
   22  0.022  0.000  0.000  0.023
   23  0.019  0.000  0.000  0.020
   24  0.022  0.000  0.000  0.023
   25  0.023  0.000  0.000  0.023
   26  0.023  0.000  0.000  0.023
   27  0.022  0.000  0.000  0.023
   28  0.006  0.001  0.000  0.006
   29  0.005  0.001  0.000  0.006
   30  0.005  0.001  0.000  0.006
   31  0.005  0.001  0.000  0.006
   32  0.005  0.001  0.000  0.006
   33  0.005  0.001  0.000  0.006
   34  0.005  0.001  0.000  0.006
   35  0.006  0.001  0.000  0.006
   36  0.000  0.011  0.029  0.040
   37  0.014  0.013  0.000  0.028
   38  0.001  0.003  0.000  0.004
   39  0.001  0.000  0.000  0.001
tot    0.537  0.044  0.030  0.611
 
band     5 # energy   -8.00085557 # occ.  2.00000000
 
ion      s      p      d    tot
    1  0.000  0.000  0.000  0.000
    2  0.000  0.000  0.000  0.000
    3  0.000  0.000  0.000  0.000
    4  0.000  0.000  0.000  0.000
    5  0.000  0.000  0.000  0.000
    6  0.000  0.000  0.000  0.000
    7  0.000  0.000  0.000  0.000
    8  0.000  0.000  0.000  0.000
    9  0.000  0.000  0.000  0.000
   10  0.000  0.000  0.000  0.000
   11  0.000  0.000  0.000  0.000
   12  0.000  0.000  0.000  0.000
   13  0.000  0.000  0.000  0.000
   14  0.000  0.000  0.000  0.000
   15  0.000  0.000  0.000  0.000
   16  0.000  0.000  0.000  0.000
   17  0.000  0.000  0.000  0.000
   18  0.000  0.000  0.000  0.000
   19  0.000  0.000  0.000  0.000
   20  0.000  0.000  0.000  0.000
   21  0.000  0.000  0.000  0.000
   22  0.000  0.000  0.000  0.000
   23  0.000  0.000  0.000  0.000
   24  0.000  0.000  0.000  0.000
   25  0.000  0.000  0.000  0.000
   26  0.000  0.000  0.000  0.000
   27  0.000  0.000  0.000  0.000
   28  0.000  0.000  0.000  0.000
   29  0.000  0.000  0.000  0.001
   30  0.000  0.000  0.000  0.000
   31  0.000  0.000  0.000  0.001
   32  0.000  0.000  0.000  0.001
   33  0.000  0.000  0.000  0.000
   34  0.000  0.000  0.000  0.001
   35  0.000  0.000  0.000  0.000
   36  0.000  0.003  0.030  0.033
   37  0.000  0.124  0.000  0.124
   38  0.000  0.518  0.000  0.518
   39  0.000  0.007  0.000  0.007
tot    0.001  0.652  0.032  0.686
 
band     6 # energy   -8.00069920 # occ.  2.00000000
 
ion      s      p      d    tot
    1  0.000  0.000  0.000  0.000
    2  0.000  0.000  0.000  0.000
    3  0.000  0.000  0.000  0.000
    4  0.000  0.000  0.000  0.000
    5  0.000  0.000  0.000  0.000
    6  0.000  0.000  0.000  0.000
    7  0.000  0.000  0.000  0.000
    8  0.000  0.000  0.000  0.000
    9  0.000  0.000  0.000  0.000
   10  0.000  0.000  0.000  0.000
   11  0.000  0.000  0.000  0.000
   12  0.000  0.000  0.000  0.000
   13  0.000  0.000  0.000  0.000
   14  0.000  0.000  0.000  0.000
   15  0.000  0.000  0.000  0.000
   16  0.000  0.000  0.000  0.000
   17  0.000  0.000  0.000  0.000
   18  0.000  0.000  0.000  0.000
   19  0.000  0.000  0.000  0.000
   20  0.000  0.000  0.000  0.000
   21  0.000  0.000  0.000  0.000
   22  0.000  0.000  0.000  0.000
   23  0.000  0.000  0.000  0.000
   24  0.000  0.000  0.000  0.000
   25  0.000  0.000  0.000  0.000
   26  0.000  0.000  0.000  0.000
   27  0.000  0.000  0.000  0.000
   28  0.000  0.000  0.000  0.000
   29  0.000  0.000  0.000  0.000
   30  0.000  0.000  0.000  0.001
   31  0.000  0.000  0.000  0.000
   32  0.000  0.000  0.000  0.000
   33  0.000  0.000  0.000  0.001
   34  0.000  0.000  0.000  0.000
   35  0.000  0.000  0.000  0.000
   36  0.000  0.003  0.030  0.033
   37  0.000  0.124  0.000  0.124
   38  0.000  0.518  0.000  0.518
   39  0.000  0.007  0.000  0.007
tot    0.001  0.652  0.032  0.686
 
band     7 # energy   -7.41945036 # occ.  2.00000000
 
ion      s      p      d    tot
    1  0.017  0.001  0.000  0.018
    2  0.016  0.001  0.000  0.018
    3  0.016  0.001  0.000  0.018
    4  0.016  0.001  0.000  0.018
    5  0.016  0.001  0.000  0.018
    6  0.016  0.001  0.000  0.018
    7  0.016  0.001  0.000  0.018
    8  0.016  0.001  0.000  0.018
    9  0.016  0.001  0.000  0.018
   10  0.009  0.002  0.000  0.012
   11  0.010  0.002  0.000  0.012
   12  0.009  0.002  0.000  0.012
   13  0.010  0.002  0.000  0.012
   14  0.010  0.002  0.000  0.012
   15  0.009  0.002  0.001  0.011
   16  0.009  0.002  0.000  0.012
   17  0.009  0.002  0.001  0.011
   18  0.009  0.002  0.001  0.011
   19  0.010  0.002  0.000  0.013
   20  0.007  0.002  0.001  0.010
   21  0.007  0.002  0.001  0.010
   22  0.010  0.002  0.000  0.013
   23  0.007  0.002  0.001  0.010
   24  0.010  0.002  0.000  0.013
   25  0.010  0.002  0.000  0.013
   26  0.010  0.002  0.000  0.013
   27  0.010  0.002  0.000  0.013
   28  0.019  0.001  0.001  0.020
   29  0.019  0.001  0.001  0.021
   30  0.019  0.001  0.001  0.021
   31  0.019  0.001  0.001  0.021
   32  0.019  0.001  0.001  0.021
   33  0.019  0.001  0.001  0.021
   34  0.019  0.001  0.001  0.021
   35  0.019  0.001  0.001  0.020
   36  0.014  0.007  0.041  0.062
   37  0.007  0.006  0.000  0.013
   38  0.000  0.001  0.000  0.001
   39  0.000  0.000  0.000  0.000
tot    0.488  0.064  0.060  0.612
 
band     8 # energy   -5.94273682 # occ.  2.00000000
 
ion      s      p      d    tot
    1  0.015  0.000  0.005  0.020
    2  0.015  0.000  0.005  0.020
    3  0.015  0.000  0.005  0.020
    4  0.015  0.000  0.005  0.020
    5  0.014  0.000  0.005  0.019
    6  0.015  0.000  0.005  0.020
    7  0.015  0.000  0.005  0.020
    8  0.015  0.000  0.005  0.020
    9  0.018  0.000  0.004  0.022
   10  0.003  0.004  0.001  0.007
   11  0.003  0.004  0.001  0.007
   12  0.003  0.004  0.001  0.007
   13  0.003  0.004  0.001  0.007
   14  0.003  0.004  0.001  0.007
   15  0.001  0.003  0.001  0.006
   16  0.003  0.004  0.001  0.007
   17  0.001  0.003  0.001  0.006
   18  0.001  0.003  0.001  0.006
   19  0.007  0.002  0.003  0.013
   20  0.009  0.003  0.007  0.019
   21  0.009  0.003  0.007  0.019
   22  0.005  0.002  0.004  0.011
   23  0.009  0.003  0.007  0.019
   24  0.005  0.002  0.004  0.011
   25  0.007  0.002  0.003  0.013
   26  0.007  0.002  0.003  0.013
   27  0.005  0.002  0.004  0.011
   28  0.010  0.000  0.006  0.016
   29  0.017  0.000  0.009  0.026
   30  0.017  0.000  0.009  0.026
   31  0.017  0.000  0.009  0.026
   32  0.017  0.000  0.009  0.026
   33  0.017  0.000  0.009  0.026
   34  0.017  0.000  0.009  0.026
   35  0.012  0.000  0.005  0.018
   36  0.031  0.001  0.066  0.098
   37  0.000  0.000  0.000  0.000
   38  0.000  0.000  0.000  0.000
   39  0.000  0.000  0.000  0.000
tot    0.377  0.059  0.221  0.657
 
band     9 # energy   -5.79357551 # occ.  2.00000000
 
ion      s      p      d    tot
    1  0.000  0.002  0.004  0.006
    2  0.007  0.002  0.002  0.011
    3  0.001  0.001  0.001  0.003
    4  0.007  0.002  0.002  0.011
    5  0.000  0.002  0.003  0.005
    6  0.003  0.001  0.002  0.006
    7  0.001  0.001  0.001  0.003
    8  0.003  0.001  0.002  0.006
    9  0.000  0.000  0.002  0.002
   10  0.047  0.005  0.003  0.055
   11  0.008  0.008  0.005  0.021
   12  0.011  0.002  0.010  0.023
   13  0.007  0.008  0.005  0.020
   14  0.029  0.001  0.006  0.036
   15  0.000  0.005  0.005  0.010
   16  0.012  0.002  0.010  0.024
   17  0.000  0.005  0.005  0.010
   18  0.002  0.002  0.003  0.007
   19  0.005  0.010  0.002  0.017
   20  0.074  0.003  0.009  0.085
   21  0.018  0.003  0.015  0.036
   22  0.003  0.004  0.009  0.016
   23  0.019  0.003  0.015  0.037
   24  0.012  0.003  0.002  0.018
   25  0.019  0.000  0.006  0.025
   26  0.005  0.010  0.002  0.017
   27  0.003  0.004  0.009  0.016
   28  0.000  0.002  0.003  0.005
   29  0.011  0.003  0.004  0.019
   30  0.003  0.001  0.003  0.007
   31  0.011  0.003  0.004  0.019
   32  0.003  0.002  0.004  0.008
   33  0.003  0.001  0.003  0.007
   34  0.003  0.002  0.004  0.008
   35  0.000  0.000  0.003  0.003
   36  0.000  0.007  0.049  0.056
   37  0.000  0.000  0.000  0.000
   38  0.000  0.003  0.000  0.003
   39  0.000  0.000  0.000  0.000
tot    0.330  0.112  0.218  0.660
 
band    10 # energy   -5.79345905 # occ.  2.00000000
 
ion      s      p      d    tot
    1  0.000  0.002  0.004  0.006
    2  0.000  0.001  0.002  0.003
    3  0.007  0.002  0.002  0.010
    4  0.000  0.001  0.002  0.003
    5  0.000  0.002  0.003  0.005
    6  0.004  0.001  0.002  0.007
    7  0.007  0.002  0.002  0.010
    8  0.004  0.001  0.002  0.007
    9  0.000  0.000  0.002  0.002
   10  0.000  0.001  0.013  0.013
   11  0.022  0.003  0.005  0.031
   12  0.035  0.004  0.005  0.044
   13  0.022  0.003  0.005  0.031
   14  0.000  0.011  0.004  0.015
   15  0.001  0.003  0.004  0.008
   16  0.035  0.004  0.006  0.044
   17  0.001  0.003  0.004  0.008
   18  0.000  0.006  0.006  0.012
   19  0.014  0.003  0.005  0.022
   20  0.000  0.003  0.017  0.020
   21  0.056  0.003  0.011  0.069
   22  0.009  0.004  0.005  0.017
   23  0.055  0.003  0.011  0.068
   24  0.000  0.004  0.011  0.015
   25  0.000  0.013  0.001  0.014
   26  0.014  0.003  0.005  0.022
   27  0.009  0.004  0.005  0.017
   28  0.000  0.002  0.003  0.005
   29  0.000  0.001  0.003  0.004
   30  0.008  0.003  0.005  0.016
   31  0.000  0.001  0.003  0.004
   32  0.009  0.003  0.003  0.015
   33  0.008  0.003  0.005  0.016
   34  0.009  0.003  0.003  0.015
   35  0.000  0.000  0.003  0.003
   36  0.000  0.007  0.050  0.056
   37  0.000  0.000  0.000  0.000
   38  0.000  0.003  0.000  0.003
   39  0.000  0.000  0.000  0.000
tot    0.330  0.112  0.218  0.660
 
band    11 # energy   -5.71845969 # occ.  2.00000000
 
ion      s      p      d    tot
    1  0.000  0.001  0.002  0.003
    2  0.008  0.002  0.002  0.013
    3  0.001  0.001  0.002  0.003
    4  0.008  0.002  0.002  0.013
    5  0.000  0.001  0.003  0.004
    6  0.004  0.001  0.002  0.008
    7  0.001  0.001  0.002  0.003
    8  0.004  0.001  0.002  0.008
    9  0.000  0.003  0.005  0.008
   10  0.000  0.012  0.002  0.013
   11  0.018  0.003  0.005  0.026
   12  0.005  0.003  0.005  0.012
   13  0.018  0.003  0.005  0.026
   14  0.000  0.001  0.013  0.014
   15  0.040  0.003  0.006  0.050
   16  0.004  0.003  0.005  0.012
   17  0.041  0.003  0.006  0.050
   18  0.000  0.006  0.010  0.016
   19  0.033  0.004  0.006  0.042
   20  0.000  0.012  0.002  0.014
   21  0.000  0.004  0.004  0.009
   22  0.039  0.004  0.006  0.049
   23  0.000  0.004  0.004  0.009
   24  0.000  0.010  0.006  0.016
   25  0.000  0.000  0.017  0.017
   26  0.033  0.004  0.006  0.042
   27  0.039  0.004  0.006  0.049
   28  0.000  0.002  0.005  0.007
   29  0.014  0.003  0.003  0.020
   30  0.002  0.002  0.004  0.008
   31  0.014  0.003  0.003  0.020
   32  0.005  0.001  0.003  0.010
   33  0.002  0.002  0.004  0.008
   34  0.005  0.001  0.003  0.010
   35  0.000  0.004  0.005  0.009
   36  0.000  0.001  0.020  0.021
   37  0.000  0.000  0.000  0.000
   38  0.000  0.000  0.000  0.000
   39  0.000  0.000  0.000  0.000
tot    0.341  0.115  0.185  0.641
 
band    12 # energy   -5.71834946 # occ.  2.00000000
 
ion      s      p      d    tot
    1  0.000  0.001  0.002  0.003
    2  0.000  0.001  0.002  0.003
    3  0.008  0.002  0.002  0.012
    4  0.000  0.001  0.002  0.003
    5  0.000  0.001  0.003  0.004
    6  0.005  0.001  0.002  0.008
    7  0.008  0.002  0.002  0.012
    8  0.005  0.001  0.002  0.008
    9  0.000  0.003  0.005  0.008
   10  0.006  0.000  0.005  0.012
   11  0.006  0.002  0.010  0.018
   12  0.001  0.009  0.003  0.013
   13  0.006  0.002  0.010  0.018
   14  0.024  0.004  0.002  0.030
   15  0.013  0.005  0.009  0.027
   16  0.001  0.009  0.003  0.013
   17  0.013  0.005  0.009  0.027
   18  0.054  0.003  0.005  0.061
   19  0.011  0.001  0.013  0.025
   20  0.000  0.001  0.005  0.007
   21  0.000  0.010  0.003  0.012
   22  0.013  0.008  0.006  0.027
   23  0.000  0.010  0.003  0.012
   24  0.052  0.002  0.006  0.059
   25  0.044  0.005  0.002  0.050
   26  0.011  0.001  0.013  0.025
   27  0.013  0.008  0.006  0.027
   28  0.000  0.002  0.005  0.007
   29  0.000  0.001  0.004  0.005
   30  0.012  0.002  0.003  0.017
   31  0.000  0.001  0.004  0.005
   32  0.009  0.003  0.004  0.016
   33  0.012  0.002  0.003  0.017
   34  0.009  0.003  0.004  0.016
   35  0.000  0.004  0.005  0.009
   36  0.000  0.001  0.020  0.021
   37  0.000  0.000  0.000  0.000
   38  0.000  0.000  0.000  0.000
   39  0.000  0.000  0.000  0.000
tot    0.341  0.115  0.185  0.641
 
band    13 # energy   -5.69178529 # occ.  2.00000000
 
ion      s      p      d    tot
    1  0.021  0.003  0.001  0.025
    2  0.000  0.002  0.004  0.006
    3  0.000  0.002  0.004  0.006
    4  0.000  0.002  0.004  0.006
    5  0.000  0.000  0.000  0.001
    6  0.000  0.002  0.004  0.006
    7  0.000  0.002  0.004  0.006
    8  0.000  0.002  0.004  0.006
    9  0.011  0.002  0.001  0.013
   10  0.028  0.005  0.007  0.040
   11  0.003  0.001  0.011  0.015
   12  0.029  0.005  0.007  0.040
   13  0.003  0.001  0.011  0.015
   14  0.003  0.001  0.011  0.015
   15  0.016  0.009  0.003  0.027
   16  0.029  0.005  0.007  0.040
   17  0.016  0.009  0.003  0.027
   18  0.015  0.009  0.003  0.026
   19  0.019  0.009  0.002  0.030
   20  0.000  0.002  0.011  0.013
   21  0.000  0.002  0.011  0.013
   22  0.027  0.003  0.008  0.038
   23  0.000  0.002  0.011  0.013
   24  0.027  0.003  0.008  0.039
   25  0.020  0.009  0.002  0.031
   26  0.019  0.009  0.002  0.030
   27  0.027  0.003  0.008  0.038
   28  0.019  0.002  0.000  0.021
   29  0.000  0.002  0.004  0.006
   30  0.000  0.002  0.004  0.006
   31  0.000  0.002  0.004  0.006
   32  0.000  0.002  0.004  0.006
   33  0.000  0.002  0.004  0.006
   34  0.000  0.002  0.004  0.006
   35  0.013  0.003  0.001  0.017
   36  0.000  0.000  0.000  0.000
   37  0.000  0.000  0.000  0.000
   38  0.000  0.000  0.000  0.000
   39  0.000  0.000  0.000  0.000
tot    0.346  0.115  0.177  0.639
 
band    14 # energy   -5.68217019 # occ.  2.00000000
 
ion      s      p      d    tot
    1  0.002  0.000  0.000  0.003
    2  0.000  0.002  0.004  0.006
    3  0.000  0.002  0.004  0.006
    4  0.000  0.002  0.004  0.006
    5  0.020  0.003  0.001  0.024
    6  0.000  0.002  0.004  0.006
    7  0.000  0.002  0.004  0.006
    8  0.000  0.002  0.004  0.006
    9  0.009  0.002  0.001  0.011
   10  0.001  0.005  0.008  0.014
   11  0.029  0.009  0.002  0.040
   12  0.001  0.005  0.008  0.014
   13  0.029  0.009  0.002  0.040
   14  0.029  0.009  0.002  0.040
   15  0.017  0.001  0.011  0.029
   16  0.001  0.005  0.008  0.014
   17  0.017  0.001  0.011  0.029
   18  0.017  0.001  0.011  0.029
   19  0.011  0.000  0.011  0.022
   20  0.029  0.007  0.004  0.040
   21  0.029  0.007  0.004  0.040
   22  0.006  0.006  0.005  0.017
   23  0.029  0.007  0.004  0.040
   24  0.006  0.006  0.005  0.017
   25  0.011  0.000  0.011  0.022
   26  0.011  0.000  0.011  0.022
   27  0.006  0.006  0.005  0.017
   28  0.005  0.001  0.001  0.006
   29  0.000  0.002  0.005  0.007
   30  0.000  0.002  0.005  0.007
   31  0.000  0.002  0.005  0.007
   32  0.000  0.002  0.005  0.007
   33  0.000  0.002  0.005  0.007
   34  0.000  0.002  0.005  0.007
   35  0.005  0.001  0.000  0.006
   36  0.019  0.014  0.007  0.041
   37  0.004  0.003  0.000  0.006
   38  0.000  0.001  0.000  0.001
   39  0.000  0.000  0.000  0.000
tot    0.343  0.128  0.190  0.660
 
band    15 # energy   -5.07123590 # occ.  2.00000000
 
ion      s      p      d    tot
    1  0.000  0.001  0.008  0.009
    2  0.016  0.003  0.004  0.024
    3  0.003  0.002  0.004  0.009
    4  0.016  0.003  0.004  0.024
    5  0.000  0.001  0.007  0.008
    6  0.005  0.002  0.004  0.011
    7  0.003  0.002  0.004  0.009
    8  0.005  0.002  0.004  0.011
    9  0.000  0.005  0.007  0.012
   10  0.000  0.005  0.009  0.014
   11  0.010  0.002  0.007  0.019
   12  0.002  0.001  0.007  0.010
   13  0.010  0.002  0.007  0.019
   14  0.000  0.001  0.016  0.017
   15  0.020  0.003  0.007  0.029
   16  0.002  0.001  0.007  0.010
   17  0.019  0.003  0.007  0.029
   18  0.000  0.002  0.016  0.018
   19  0.003  0.003  0.008  0.014
   20  0.000  0.003  0.034  0.037
   21  0.000  0.001  0.016  0.017
   22  0.006  0.004  0.009  0.019
   23  0.000  0.001  0.016  0.017
   24  0.000  0.000  0.023  0.024
   25  0.000  0.000  0.005  0.005
   26  0.003  0.003  0.008  0.014
   27  0.006  0.004  0.009  0.019
   28  0.000  0.002  0.006  0.008
   29  0.024  0.003  0.010  0.037
   30  0.002  0.003  0.012  0.016
   31  0.024  0.003  0.010  0.037
   32  0.013  0.001  0.010  0.024
   33  0.002  0.003  0.012  0.016
   34  0.013  0.001  0.010  0.024
   35  0.000  0.005  0.005  0.010
   36  0.000  0.001  0.101  0.102
   37  0.000  0.000  0.000  0.000
   38  0.000  0.002  0.000  0.002
   39  0.000  0.000  0.000  0.000
tot    0.209  0.084  0.431  0.723
 
band    16 # energy   -5.07116945 # occ.  2.00000000
 
ion      s      p      d    tot
    1  0.000  0.001  0.008  0.009
    2  0.000  0.001  0.004  0.005
    3  0.013  0.003  0.004  0.020
    4  0.000  0.001  0.004  0.005
    5  0.000  0.001  0.007  0.008
    6  0.011  0.003  0.004  0.018
    7  0.013  0.003  0.004  0.020
    8  0.012  0.003  0.004  0.018
    9  0.000  0.005  0.007  0.012
   10  0.002  0.000  0.006  0.008
   11  0.003  0.001  0.013  0.018
   12  0.001  0.004  0.008  0.013
   13  0.003  0.001  0.013  0.018
   14  0.013  0.003  0.004  0.020
   15  0.006  0.002  0.013  0.021
   16  0.001  0.004  0.008  0.013
   17  0.007  0.002  0.013  0.021
   18  0.026  0.003  0.004  0.033
   19  0.001  0.001  0.006  0.008
   20  0.000  0.000  0.010  0.010
   21  0.000  0.002  0.028  0.030
   22  0.002  0.002  0.018  0.022
   23  0.000  0.002  0.028  0.030
   24  0.008  0.005  0.004  0.017
   25  0.004  0.004  0.009  0.017
   26  0.001  0.001  0.006  0.008
   27  0.002  0.002  0.019  0.022
   28  0.000  0.002  0.006  0.008
   29  0.002  0.002  0.011  0.015
   30  0.024  0.002  0.009  0.035
   31  0.002  0.002  0.011  0.015
   32  0.013  0.004  0.011  0.027
   33  0.024  0.002  0.009  0.035
   34  0.013  0.004  0.011  0.027
   35  0.000  0.005  0.005  0.010
   36  0.000  0.001  0.101  0.102
   37  0.000  0.000  0.000  0.000
   38  0.000  0.002  0.000  0.002
   39  0.000  0.000  0.000  0.000
tot    0.209  0.084  0.431  0.723
 
band    17 # energy   -5.05669981 # occ.  2.00000000
 
ion      s      p      d    tot
    1  0.001  0.001  0.011  0.014
    2  0.007  0.001  0.010  0.018
    3  0.007  0.001  0.010  0.018
    4  0.007  0.001  0.010  0.018
    5  0.020  0.000  0.007  0.028
    6  0.007  0.001  0.010  0.018
    7  0.007  0.001  0.010  0.018
    8  0.007  0.001  0.010  0.018
    9  0.005  0.001  0.011  0.016
   10  0.012  0.000  0.022  0.034
   11  0.002  0.001  0.022  0.025
   12  0.012  0.000  0.021  0.034
   13  0.002  0.001  0.022  0.025
   14  0.002  0.001  0.022  0.025
   15  0.011  0.000  0.022  0.033
   16  0.012  0.000  0.021  0.034
   17  0.011  0.000  0.022  0.033
   18  0.011  0.000  0.022  0.033
   19  0.007  0.001  0.014  0.022
   20  0.002  0.000  0.024  0.026
   21  0.002  0.000  0.024  0.026
   22  0.004  0.001  0.013  0.017
   23  0.002  0.000  0.024  0.026
   24  0.004  0.001  0.013  0.017
   25  0.007  0.001  0.014  0.022
   26  0.007  0.001  0.014  0.022
   27  0.004  0.001  0.013  0.017
   28  0.001  0.001  0.003  0.005
   29  0.001  0.002  0.008  0.011
   30  0.001  0.002  0.008  0.011
   31  0.001  0.002  0.008  0.011
   32  0.001  0.002  0.008  0.011
   33  0.001  0.002  0.008  0.011
   34  0.001  0.002  0.008  0.011
   35  0.000  0.001  0.003  0.004
   36  0.023  0.000  0.039  0.062
   37  0.000  0.000  0.000  0.000
   38  0.000  0.000  0.000  0.000
   39  0.000  0.000  0.000  0.000
tot    0.215  0.027  0.532  0.774
 
band    18 # energy   -5.01137205 # occ.  2.00000000
 
ion      s      p      d    tot
    1  0.000  0.005  0.010  0.015
    2  0.023  0.004  0.006  0.033
    3  0.005  0.002  0.005  0.012
    4  0.023  0.004  0.006  0.033
    5  0.000  0.005  0.011  0.016
    6  0.007  0.003  0.006  0.015
    7  0.005  0.002  0.005  0.013
    8  0.007  0.003  0.006  0.015
    9  0.000  0.000  0.012  0.012
   10  0.030  0.005  0.007  0.042
   11  0.004  0.004  0.017  0.025
   12  0.007  0.001  0.020  0.029
   13  0.004  0.004  0.017  0.025
   14  0.017  0.002  0.006  0.025
   15  0.000  0.003  0.013  0.017
   16  0.008  0.001  0.020  0.029
   17  0.000  0.003  0.013  0.017
   18  0.002  0.001  0.008  0.011
   19  0.001  0.001  0.017  0.019
   20  0.014  0.008  0.004  0.026
   21  0.003  0.002  0.018  0.023
   22  0.000  0.001  0.009  0.010
   23  0.003  0.002  0.018  0.023
   24  0.001  0.001  0.009  0.011
   25  0.003  0.002  0.003  0.008
   26  0.001  0.001  0.017  0.019
   27  0.000  0.001  0.009  0.010
   28  0.000  0.003  0.005  0.008
   29  0.014  0.003  0.007  0.024
   30  0.004  0.001  0.004  0.009
   31  0.014  0.003  0.006  0.024
   32  0.003  0.002  0.007  0.012
   33  0.004  0.001  0.004  0.009
   34  0.003  0.002  0.007  0.012
   35  0.000  0.000  0.006  0.006
   36  0.000  0.006  0.069  0.075
   37  0.000  0.001  0.000  0.001
   38  0.000  0.004  0.000  0.004
   39  0.000  0.000  0.000  0.000
tot    0.213  0.098  0.408  0.719
 
band    19 # energy   -5.01129433 # occ.  2.00000000
 
ion      s      p      d    tot
    1  0.000  0.005  0.010  0.015
    2  0.000  0.002  0.006  0.007
    3  0.019  0.004  0.006  0.028
    4  0.000  0.002  0.006  0.007
    5  0.000  0.005  0.011  0.016
    6  0.017  0.004  0.006  0.026
    7  0.018  0.004  0.006  0.028
    8  0.016  0.004  0.006  0.025
    9  0.000  0.000  0.012  0.012
   10  0.000  0.000  0.025  0.025
   11  0.013  0.002  0.010  0.025
   12  0.023  0.004  0.011  0.038
   13  0.013  0.002  0.010  0.025
   14  0.000  0.005  0.020  0.025
   15  0.001  0.002  0.010  0.013
   16  0.023  0.004  0.011  0.038
   17  0.001  0.002  0.010  0.013
   18  0.000  0.004  0.015  0.019
   19  0.003  0.001  0.008  0.012
   20  0.000  0.000  0.022  0.022
   21  0.010  0.006  0.009  0.025
   22  0.001  0.001  0.009  0.011
   23  0.010  0.006  0.009  0.025
   24  0.000  0.001  0.009  0.010
   25  0.000  0.001  0.022  0.023
   26  0.003  0.001  0.008  0.012
   27  0.001  0.001  0.009  0.011
   28  0.000  0.003  0.005  0.008
   29  0.000  0.001  0.005  0.006
   30  0.010  0.003  0.007  0.021
   31  0.000  0.001  0.005  0.006
   32  0.011  0.002  0.005  0.018
   33  0.010  0.003  0.007  0.021
   34  0.011  0.002  0.005  0.018
   35  0.000  0.000  0.006  0.006
   36  0.000  0.006  0.069  0.075
   37  0.000  0.001  0.000  0.001
   38  0.000  0.004  0.000  0.004
   39  0.000  0.000  0.000  0.000
tot    0.214  0.098  0.408  0.719
 
band    20 # energy   -4.93423212 # occ.  2.00000000
 
ion      s      p      d    tot
    1  0.047  0.004  0.000  0.050
    2  0.000  0.003  0.010  0.013
    3  0.000  0.003  0.010  0.013
    4  0.000  0.003  0.010  0.013
    5  0.003  0.001  0.002  0.006
    6  0.000  0.003  0.010  0.013
    7  0.000  0.003  0.010  0.013
    8  0.000  0.003  0.010  0.013
    9  0.010  0.002  0.001  0.013
   10  0.006  0.004  0.015  0.025
   11  0.007  0.001  0.012  0.020
   12  0.006  0.004  0.015  0.025
   13  0.007  0.001  0.012  0.020
   14  0.007  0.001  0.012  0.020
   15  0.003  0.002  0.018  0.023
   16  0.006  0.004  0.015  0.025
   17  0.003  0.002  0.018  0.023
   18  0.003  0.002  0.018  0.023
   19  0.006  0.004  0.015  0.025
   20  0.002  0.001  0.018  0.021
   21  0.002  0.001  0.018  0.021
   22  0.010  0.002  0.012  0.023
   23  0.002  0.001  0.018  0.021
   24  0.010  0.002  0.012  0.023
   25  0.006  0.004  0.015  0.025
   26  0.006  0.004  0.015  0.025
   27  0.010  0.002  0.012  0.023
   28  0.048  0.003  0.000  0.051
   29  0.000  0.003  0.010  0.013
   30  0.000  0.003  0.010  0.013
   31  0.000  0.003  0.010  0.013
   32  0.000  0.003  0.010  0.013
   33  0.000  0.003  0.010  0.013
   34  0.000  0.003  0.010  0.013
   35  0.008  0.002  0.002  0.012
   36  0.006  0.004  0.001  0.011
   37  0.001  0.000  0.000  0.001
   38  0.000  0.000  0.000  0.000
   39  0.000  0.000  0.000  0.000