PROCAR new format
# of k-points:   10         # of bands:  252         # of ions:   38

 k-point     1 :    0.00000000 0.00000000 0.00000000     weight = 0.01562500

band     1 # energy  -19.18712054 # occ.  2.00000000
 
ion      s      p      d    tot
    1  0.000  0.000  0.000  0.000
    2  0.000  0.000  0.000  0.000
    3  0.000  0.000  0.000  0.000
    4  0.000  0.000  0.000  0.000
    5  0.000  0.000  0.000  0.000
    6  0.000  0.000  0.000  0.000
    7  0.000  0.000  0.000  0.000
    8  0.000  0.000  0.000  0.000
    9  0.000  0.000  0.000  0.000
   10  0.000  0.000  0.000  0.000
   11  0.000  0.000  0.000  0.000
   12  0.000  0.000  0.000  0.000
   13  0.000  0.000  0.000  0.000
   14  0.000  0.000  0.000  0.000
   15  0.000  0.000  0.000  0.000
   16  0.000  0.000  0.000  0.000
   17  0.000  0.000  0.000  0.000
   18  0.000  0.000  0.000  0.000
   19  0.000  0.000  0.000  0.000
   20  0.000  0.000  0.000  0.000
   21  0.000  0.000  0.000  0.000
   22  0.000  0.000  0.000  0.000
   23  0.000  0.000  0.000  0.000
   24  0.000  0.000  0.000  0.000
   25  0.000  0.000  0.000  0.000
   26  0.000  0.000  0.000  0.000
   27  0.000  0.000  0.000  0.000
   28  0.000  0.000  0.000  0.000
   29  0.000  0.000  0.000  0.000
   30  0.000  0.000  0.000  0.000
   31  0.000  0.000  0.000  0.000
   32  0.000  0.000  0.000  0.000
   33  0.000  0.000  0.000  0.000
   34  0.000  0.000  0.000  0.000
   35  0.000  0.000  0.000  0.000
   36  0.009  0.012  0.011  0.032
   37  0.738  0.017  0.000  0.754
   38  0.118  0.024  0.000  0.143
tot    0.866  0.053  0.011  0.930
 
band     2 # energy   -8.51933018 # occ.  2.00000000
 
ion      s      p      d    tot
    1  0.006  0.001  0.000  0.007
    2  0.006  0.001  0.000  0.007
    3  0.006  0.001  0.000  0.007
    4  0.006  0.001  0.000  0.007
    5  0.006  0.001  0.000  0.007
    6  0.006  0.001  0.000  0.007
    7  0.006  0.001  0.000  0.007
    8  0.006  0.001  0.000  0.007
    9  0.006  0.001  0.000  0.007
   10  0.023  0.000  0.000  0.023
   11  0.023  0.000  0.000  0.023
   12  0.023  0.000  0.000  0.023
   13  0.023  0.000  0.000  0.023
   14  0.023  0.000  0.000  0.023
   15  0.023  0.000  0.000  0.023
   16  0.023  0.000  0.000  0.023
   17  0.023  0.000  0.000  0.023
   18  0.023  0.000  0.000  0.023
   19  0.024  0.000  0.000  0.024
   20  0.025  0.000  0.000  0.025
   21  0.025  0.000  0.000  0.025
   22  0.024  0.000  0.000  0.024
   23  0.025  0.000  0.000  0.025
   24  0.024  0.000  0.000  0.024
   25  0.024  0.000  0.000  0.024
   26  0.024  0.000  0.000  0.024
   27  0.024  0.000  0.000  0.024
   28  0.007  0.001  0.000  0.007
   29  0.007  0.001  0.000  0.008
   30  0.007  0.001  0.000  0.008
   31  0.007  0.001  0.000  0.008
   32  0.007  0.001  0.000  0.008
   33  0.007  0.001  0.000  0.008
   34  0.007  0.001  0.000  0.008
   35  0.007  0.001  0.000  0.007
   36  0.015  0.000  0.002  0.017
   37  0.000  0.019  0.000  0.019
   38  0.007  0.001  0.000  0.008
tot    0.558  0.034  0.003  0.595
 
band     3 # energy   -7.80399532 # occ.  2.00000000
 
ion      s      p      d    tot
    1  0.003  0.000  0.000  0.003
    2  0.003  0.000  0.000  0.003
    3  0.003  0.000  0.000  0.003
    4  0.003  0.000  0.000  0.003
    5  0.003  0.000  0.000  0.003
    6  0.003  0.000  0.000  0.003
    7  0.003  0.000  0.000  0.003
    8  0.003  0.000  0.000  0.003
    9  0.003  0.000  0.000  0.003
   10  0.004  0.000  0.000  0.004
   11  0.004  0.000  0.000  0.004
   12  0.004  0.000  0.000  0.004
   13  0.004  0.000  0.000  0.004
   14  0.004  0.000  0.000  0.004
   15  0.005  0.000  0.000  0.005
   16  0.004  0.000  0.000  0.004
   17  0.005  0.000  0.000  0.005
   18  0.005  0.000  0.000  0.005
   19  0.000  0.000  0.000  0.001
   20  0.000  0.001  0.000  0.002
   21  0.000  0.001  0.000  0.002
   22  0.000  0.000  0.000  0.001
   23  0.000  0.001  0.000  0.002
   24  0.000  0.000  0.000  0.001
   25  0.000  0.000  0.000  0.001
   26  0.000  0.000  0.000  0.001
   27  0.000  0.000  0.000  0.001
   28  0.000  0.000  0.000  0.001
   29  0.002  0.000  0.000  0.003
   30  0.002  0.000  0.000  0.003
   31  0.002  0.000  0.000  0.003
   32  0.002  0.000  0.000  0.003
   33  0.002  0.000  0.000  0.003
   34  0.002  0.000  0.000  0.003
   35  0.000  0.000  0.000  0.001
   36  0.066  0.031  0.066  0.163
   37  0.020  0.439  0.000  0.460
   38  0.150  0.015  0.000  0.165
tot    0.312  0.496  0.072  0.880
 
band     4 # energy   -7.09414183 # occ.  2.00000000
 
ion      s      p      d    tot
    1  0.017  0.001  0.001  0.018
    2  0.017  0.001  0.001  0.018
    3  0.017  0.001  0.001  0.018
    4  0.017  0.001  0.001  0.018
    5  0.017  0.001  0.001  0.018
    6  0.017  0.001  0.001  0.018
    7  0.017  0.001  0.001  0.018
    8  0.017  0.001  0.001  0.018
    9  0.017  0.001  0.001  0.018
   10  0.007  0.002  0.000  0.010
   11  0.008  0.002  0.000  0.010
   12  0.007  0.002  0.000  0.010
   13  0.008  0.002  0.000  0.010
   14  0.008  0.002  0.000  0.010
   15  0.007  0.003  0.001  0.010
   16  0.007  0.002  0.000  0.010
   17  0.007  0.003  0.001  0.010
   18  0.007  0.003  0.001  0.010
   19  0.014  0.002  0.001  0.016
   20  0.009  0.001  0.001  0.011
   21  0.009  0.001  0.001  0.011
   22  0.013  0.002  0.001  0.016
   23  0.009  0.001  0.001  0.011
   24  0.013  0.002  0.001  0.016
   25  0.014  0.002  0.001  0.016
   26  0.014  0.002  0.001  0.016
   27  0.013  0.002  0.001  0.016
   28  0.018  0.001  0.000  0.019
   29  0.014  0.001  0.000  0.016
   30  0.014  0.001  0.000  0.016
   31  0.014  0.001  0.000  0.016
   32  0.014  0.001  0.000  0.016
   33  0.014  0.001  0.000  0.016
   34  0.014  0.001  0.000  0.016
   35  0.018  0.001  0.000  0.019
   36  0.001  0.010  0.017  0.028
   37  0.005  0.054  0.000  0.059
   38  0.017  0.002  0.000  0.019
tot    0.468  0.117  0.036  0.621
 
band     5 # energy   -5.52624048 # occ.  2.00000000
 
ion      s      p      d    tot
    1  0.016  0.000  0.005  0.021
    2  0.012  0.001  0.006  0.018
    3  0.012  0.001  0.006  0.018
    4  0.012  0.001  0.006  0.018
    5  0.001  0.001  0.007  0.010
    6  0.012  0.001  0.006  0.018
    7  0.012  0.001  0.006  0.018
    8  0.012  0.001  0.006  0.018
    9  0.027  0.000  0.003  0.030
   10  0.002  0.003  0.005  0.010
   11  0.022  0.006  0.001  0.029
   12  0.002  0.003  0.005  0.010
   13  0.022  0.006  0.001  0.029
   14  0.022  0.006  0.001  0.029
   15  0.000  0.002  0.007  0.009
   16  0.002  0.003  0.005  0.010
   17  0.000  0.002  0.007  0.009
   18  0.000  0.002  0.007  0.009
   19  0.000  0.002  0.006  0.008
   20  0.023  0.006  0.001  0.030
   21  0.023  0.006  0.001  0.030
   22  0.000  0.004  0.004  0.008
   23  0.023  0.006  0.001  0.030
   24  0.000  0.004  0.004  0.008
   25  0.000  0.002  0.006  0.008
   26  0.000  0.002  0.006  0.008
   27  0.000  0.004  0.004  0.008
   28  0.021  0.000  0.003  0.024
   29  0.012  0.001  0.006  0.018
   30  0.012  0.001  0.006  0.018
   31  0.012  0.001  0.006  0.018
   32  0.012  0.001  0.006  0.018
   33  0.012  0.001  0.006  0.018
   34  0.012  0.001  0.006  0.018
   35  0.026  0.000  0.004  0.029
   36  0.000  0.001  0.009  0.010
   37  0.000  0.000  0.000  0.000
   38  0.000  0.000  0.000  0.000
tot    0.374  0.082  0.173  0.628
 
band     6 # energy   -5.50019341 # occ.  2.00000000
 
ion      s      p      d    tot
    1  0.000  0.001  0.004  0.005
    2  0.008  0.002  0.002  0.012
    3  0.000  0.001  0.002  0.003
    4  0.006  0.002  0.002  0.010
    5  0.000  0.003  0.005  0.009
    6  0.007  0.002  0.002  0.012
    7  0.000  0.001  0.002  0.003
    8  0.009  0.002  0.002  0.014
    9  0.000  0.001  0.002  0.003
   10  0.034  0.005  0.002  0.041
   11  0.019  0.006  0.008  0.033
   12  0.006  0.001  0.013  0.021
   13  0.010  0.007  0.009  0.026
   14  0.055  0.002  0.006  0.063
   15  0.001  0.008  0.004  0.012
   16  0.012  0.002  0.011  0.025
   17  0.000  0.010  0.003  0.013
   18  0.002  0.001  0.006  0.009
   19  0.001  0.008  0.004  0.013
   20  0.058  0.002  0.006  0.066
   21  0.010  0.007  0.009  0.026
   22  0.006  0.001  0.014  0.021
   23  0.019  0.006  0.008  0.034
   24  0.035  0.005  0.002  0.042
   25  0.003  0.001  0.006  0.009
   26  0.000  0.010  0.003  0.014
   27  0.012  0.002  0.012  0.026
   28  0.000  0.001  0.002  0.003
   29  0.010  0.002  0.003  0.015
   30  0.000  0.001  0.002  0.003
   31  0.008  0.002  0.003  0.013
   32  0.007  0.002  0.002  0.011
   33  0.000  0.001  0.002  0.004
   34  0.009  0.002  0.002  0.013
   35  0.000  0.001  0.005  0.006
   36  0.000  0.005  0.004  0.009
   37  0.000  0.000  0.000  0.000
   38  0.000  0.000  0.000  0.000
tot    0.348  0.118  0.176  0.641
 
band     7 # energy   -5.50017313 # occ.  2.00000000
 
ion      s      p      d    tot
    1  0.000  0.001  0.004  0.005
    2  0.002  0.001  0.002  0.006
    3  0.010  0.002  0.002  0.014
    4  0.004  0.002  0.002  0.008
    5  0.000  0.003  0.005  0.009
    6  0.003  0.001  0.002  0.006
    7  0.010  0.002  0.002  0.015
    8  0.001  0.001  0.002  0.004
    9  0.000  0.001  0.002  0.003
   10  0.000  0.000  0.016  0.016
   11  0.037  0.004  0.007  0.048
   12  0.029  0.004  0.005  0.037
   13  0.046  0.003  0.006  0.056
   14  0.000  0.008  0.009  0.018
   15  0.002  0.004  0.005  0.011
   16  0.023  0.003  0.007  0.033
   17  0.002  0.003  0.005  0.010
   18  0.000  0.012  0.003  0.014
   19  0.002  0.004  0.005  0.011
   20  0.000  0.008  0.009  0.018
   21  0.048  0.003  0.007  0.058
   22  0.030  0.004  0.005  0.038
   23  0.039  0.004  0.007  0.050
   24  0.000  0.000  0.016  0.017
   25  0.000  0.012  0.003  0.015
   26  0.002  0.003  0.005  0.010
   27  0.024  0.003  0.007  0.034
   28  0.000  0.001  0.002  0.003
   29  0.001  0.001  0.002  0.005
   30  0.011  0.003  0.003  0.017
   31  0.003  0.001  0.002  0.006
   32  0.005  0.002  0.003  0.009
   33  0.011  0.003  0.003  0.016
   34  0.003  0.001  0.002  0.007
   35  0.000  0.001  0.005  0.006
   36  0.000  0.005  0.004  0.009
   37  0.000  0.000  0.000  0.000
   38  0.000  0.000  0.000  0.000
tot    0.348  0.118  0.176  0.641
 
band     8 # energy   -5.49360703 # occ.  2.00000000
 
ion      s      p      d    tot
    1  0.021  0.003  0.001  0.024
    2  0.000  0.002  0.004  0.006
    3  0.000  0.002  0.004  0.006
    4  0.000  0.002  0.004  0.006
    5  0.000  0.000  0.000  0.001
    6  0.000  0.002  0.004  0.006
    7  0.000  0.002  0.004  0.006
    8  0.000  0.002  0.004  0.006
    9  0.010  0.002  0.001  0.013
   10  0.029  0.005  0.007  0.040
   11  0.003  0.001  0.011  0.015
   12  0.028  0.005  0.007  0.039
   13  0.003  0.001  0.011  0.015
   14  0.003  0.001  0.011  0.015
   15  0.016  0.009  0.003  0.027
   16  0.028  0.005  0.007  0.039
   17  0.016  0.009  0.003  0.027
   18  0.016  0.009  0.003  0.027
   19  0.020  0.009  0.002  0.031
   20  0.000  0.002  0.010  0.012
   21  0.000  0.002  0.010  0.012
   22  0.027  0.003  0.008  0.039
   23  0.000  0.002  0.010  0.012
   24  0.027  0.003  0.009  0.039
   25  0.019  0.009  0.002  0.031
   26  0.020  0.009  0.002  0.031
   27  0.027  0.003  0.008  0.039
   28  0.019  0.003  0.000  0.022
   29  0.000  0.002  0.004  0.006
   30  0.000  0.002  0.004  0.006
   31  0.000  0.002  0.004  0.006
   32  0.000  0.002  0.004  0.006
   33  0.000  0.002  0.004  0.006
   34  0.000  0.002  0.004  0.006
   35  0.013  0.003  0.002  0.017
   36  0.000  0.000  0.000  0.000
   37  0.000  0.000  0.000  0.000
   38  0.000  0.000  0.000  0.000
tot    0.346  0.116  0.177  0.639
 
band     9 # energy   -5.48749453 # occ.  2.00000000
 
ion      s      p      d    tot
    1  0.000  0.003  0.004  0.006
    2  0.008  0.002  0.002  0.012
    3  0.000  0.001  0.002  0.003
    4  0.006  0.002  0.002  0.010
    5  0.000  0.000  0.003  0.003
    6  0.008  0.002  0.003  0.012
    7  0.000  0.001  0.002  0.003
    8  0.009  0.002  0.003  0.014
    9  0.000  0.003  0.006  0.009
   10  0.000  0.013  0.003  0.016
   11  0.004  0.004  0.005  0.013
   12  0.023  0.003  0.006  0.032
   13  0.005  0.003  0.004  0.013
   14  0.000  0.006  0.009  0.015
   15  0.040  0.004  0.008  0.051
   16  0.018  0.005  0.005  0.029
   17  0.051  0.004  0.006  0.060
   18  0.001  0.002  0.016  0.019
   19  0.040  0.004  0.008  0.051
   20  0.000  0.005  0.009  0.015
   21  0.006  0.003  0.004  0.013
   22  0.023  0.003  0.006  0.032
   23  0.004  0.004  0.005  0.014
   24  0.000  0.013  0.003  0.016
   25  0.001  0.002  0.016  0.018
   26  0.050  0.004  0.005  0.060
   27  0.018  0.005  0.005  0.028
   28  0.000  0.003  0.006  0.008
   29  0.009  0.002  0.003  0.014
   30  0.000  0.001  0.002  0.003
   31  0.007  0.002  0.003  0.012
   32  0.006  0.002  0.002  0.010
   33  0.000  0.001  0.002  0.004
   34  0.008  0.002  0.002  0.012
   35  0.000  0.002  0.004  0.006
   36  0.000  0.000  0.002  0.002
   37  0.000  0.000  0.000  0.000
   38  0.000  0.000  0.000  0.000
tot    0.346  0.116  0.177  0.639
 
band    10 # energy   -5.48748154 # occ.  2.00000000
 
ion      s      p      d    tot
    1  0.000  0.003  0.004  0.006
    2  0.002  0.001  0.002  0.006
    3  0.010  0.002  0.002  0.015
    4  0.004  0.002  0.002  0.008
    5  0.000  0.000  0.003  0.003
    6  0.003  0.001  0.002  0.006
    7  0.010  0.003  0.003  0.016
    8  0.001  0.001  0.002  0.004
    9  0.000  0.003  0.006  0.009
   10  0.027  0.001  0.007  0.035
   11  0.002  0.005  0.007  0.014
   12  0.005  0.011  0.003  0.019
   13  0.001  0.005  0.008  0.015
   14  0.006  0.003  0.003  0.013
   15  0.021  0.003  0.012  0.036
   16  0.010  0.009  0.004  0.023
   17  0.010  0.002  0.014  0.027
   18  0.060  0.005  0.004  0.068
   19  0.021  0.003  0.012  0.035
   20  0.006  0.003  0.003  0.013
   21  0.001  0.005  0.008  0.015
   22  0.005  0.011  0.003  0.019
   23  0.002  0.005  0.007  0.014
   24  0.028  0.001  0.007  0.035
   25  0.060  0.004  0.003  0.068
   26  0.010  0.002  0.014  0.026
   27  0.009  0.009  0.004  0.022
   28  0.000  0.003  0.006  0.008
   29  0.001  0.001  0.002  0.004
   30  0.010  0.002  0.002  0.015
   31  0.003  0.001  0.002  0.006
   32  0.004  0.002  0.002  0.008
   33  0.010  0.002  0.002  0.014
   34  0.002  0.001  0.002  0.006
   35  0.000  0.002  0.004  0.006
   36  0.000  0.000  0.002  0.002
   37  0.000  0.000  0.000  0.000
   38  0.000  0.000  0.000  0.000
tot    0.346  0.116  0.177  0.639
 
band    11 # energy   -5.41590425 # occ.  2.00000000
 
ion      s      p      d    tot
    1  0.000  0.001  0.003  0.004
    2  0.005  0.002  0.006  0.013
    3  0.005  0.002  0.006  0.013
    4  0.005  0.002  0.006  0.013
    5  0.043  0.002  0.000  0.045
    6  0.005  0.002  0.006  0.013
    7  0.005  0.002  0.006  0.013
    8  0.005  0.002  0.006  0.013
    9  0.000  0.002  0.006  0.007
   10  0.007  0.005  0.006  0.019
   11  0.013  0.007  0.006  0.025
   12  0.007  0.005  0.006  0.019
   13  0.013  0.007  0.006  0.025
   14  0.013  0.007  0.006  0.026
   15  0.024  0.002  0.010  0.035
   16  0.007  0.005  0.006  0.019
   17  0.024  0.002  0.010  0.035
   18  0.024  0.002  0.010  0.035
   19  0.011  0.003  0.007  0.021
   20  0.012  0.004  0.005  0.022
   21  0.012  0.004  0.005  0.022
   22  0.005  0.006  0.005  0.016
   23  0.012  0.004  0.005  0.022
   24  0.005  0.006  0.005  0.016
   25  0.011  0.003  0.007  0.021
   26  0.011  0.003  0.007  0.021
   27  0.005  0.006  0.005  0.016
   28  0.001  0.001  0.005  0.006
   29  0.006  0.001  0.004  0.010
   30  0.006  0.001  0.004  0.010
   31  0.006  0.001  0.004  0.010
   32  0.006  0.001  0.004  0.010
   33  0.006  0.001  0.004  0.010
   34  0.006  0.001  0.004  0.010
   35  0.001  0.000  0.003  0.004
   36  0.014  0.006  0.006  0.026
   37  0.001  0.006  0.000  0.008
   38  0.002  0.000  0.000  0.002
tot    0.346  0.108  0.197  0.651
 
band    12 # energy   -4.72703673 # occ.  2.00000000
 
ion      s      p      d    tot
    1  0.000  0.002  0.010  0.012
    2  0.008  0.003  0.005  0.016
    3  0.019  0.004  0.005  0.029
    4  0.001  0.002  0.005  0.008
    5  0.000  0.006  0.009  0.015
    6  0.003  0.002  0.005  0.010
    7  0.021  0.004  0.005  0.030
    8  0.012  0.003  0.005  0.019
    9  0.000  0.001  0.012  0.014
   10  0.001  0.001  0.016  0.017
   11  0.019  0.004  0.007  0.029
   12  0.007  0.002  0.012  0.022
   13  0.011  0.003  0.015  0.029
   14  0.001  0.002  0.025  0.028
   15  0.001  0.000  0.009  0.010
   16  0.012  0.004  0.009  0.025
   17  0.000  0.002  0.013  0.015
   18  0.000  0.004  0.018  0.022
   19  0.001  0.000  0.008  0.010
   20  0.001  0.001  0.026  0.028
   21  0.010  0.003  0.015  0.029
   22  0.005  0.002  0.012  0.020
   23  0.017  0.005  0.007  0.029
   24  0.001  0.001  0.014  0.015
   25  0.000  0.004  0.021  0.024
   26  0.001  0.002  0.014  0.017
   27  0.009  0.004  0.010  0.023
   28  0.000  0.002  0.012  0.014
   29  0.011  0.003  0.005  0.018
   30  0.022  0.004  0.005  0.031
   31  0.002  0.002  0.005  0.009
   32  0.002  0.002  0.005  0.009
   33  0.022  0.004  0.005  0.031
   34  0.011  0.003  0.005  0.019
   35  0.000  0.001  0.010  0.012
   36  0.000  0.009  0.002  0.011
   37  0.000  0.004  0.000  0.004
   38  0.000  0.000  0.000  0.000
tot    0.232  0.101  0.370  0.703
 
band    13 # energy   -4.72703305 # occ.  2.00000000
 
ion      s      p      d    tot
    1  0.000  0.002  0.010  0.012
    2  0.013  0.003  0.005  0.021
    3  0.002  0.002  0.005  0.009
    4  0.020  0.004  0.005  0.029
    5  0.000  0.006  0.009  0.015
    6  0.018  0.004  0.005  0.027
    7  0.000  0.002  0.005  0.007
    8  0.010  0.003  0.005  0.018
    9  0.000  0.001  0.012  0.014
   10  0.012  0.004  0.009  0.025
   11  0.002  0.002  0.025  0.028
   12  0.006  0.002  0.013  0.021
   13  0.009  0.003  0.016  0.029
   14  0.019  0.004  0.006  0.029
   15  0.000  0.004  0.018  0.022
   16  0.001  0.001  0.016  0.018
   17  0.000  0.002  0.014  0.016
   18  0.001  0.000  0.009  0.010
   19  0.000  0.003  0.020  0.024
   20  0.018  0.005  0.006  0.029
   21  0.009  0.003  0.017  0.029
   22  0.005  0.002  0.012  0.019
   23  0.002  0.001  0.025  0.028
   24  0.009  0.004  0.010  0.023
   25  0.002  0.000  0.008  0.010
   26  0.001  0.002  0.015  0.017
   27  0.001  0.001  0.014  0.016
   28  0.000  0.002  0.012  0.014
   29  0.013  0.003  0.005  0.021
   30  0.001  0.002  0.005  0.009
   31  0.022  0.004  0.005  0.030
   32  0.021  0.004  0.005  0.030
   33  0.001  0.002  0.005  0.008
   34  0.012  0.003  0.005  0.020
   35  0.000  0.001  0.010  0.012
   36  0.000  0.009  0.002  0.011
   37  0.000  0.004  0.000  0.004
   38  0.000  0.000  0.000  0.000
tot    0.231  0.101  0.370  0.703
 
band    14 # energy   -4.72453871 # occ.  2.00000000
 
ion      s      p      d    tot
    1  0.034  0.003  0.000  0.038
    2  0.000  0.003  0.010  0.014
    3  0.000  0.003  0.010  0.014
    4  0.000  0.003  0.010  0.014
    5  0.000  0.000  0.000  0.000
    6  0.000  0.003  0.010  0.014
    7  0.000  0.003  0.010  0.014
    8  0.000  0.003  0.010  0.014
    9  0.031  0.004  0.001  0.035
   10  0.009  0.004  0.010  0.023
   11  0.001  0.000  0.015  0.016
   12  0.009  0.004  0.011  0.023
   13  0.001  0.000  0.015  0.016
   14  0.001  0.000  0.015  0.016
   15  0.007  0.004  0.018  0.028
   16  0.009  0.004  0.011  0.023
   17  0.007  0.004  0.018  0.028
   18  0.007  0.003  0.018  0.028
   19  0.005  0.004  0.018  0.027
   20  0.000  0.000  0.015  0.015
   21  0.000  0.000  0.015  0.015
   22  0.011  0.003  0.010  0.025
   23  0.000  0.000  0.015  0.015
   24  0.012  0.003  0.010  0.025
   25  0.005  0.004  0.018  0.026
   26  0.005  0.004  0.018  0.027
   27  0.011  0.003  0.010  0.025
   28  0.035  0.003  0.000  0.039
   29  0.000  0.003  0.010  0.013
   30  0.000  0.003  0.010  0.013
   31  0.000  0.003  0.010  0.013
   32  0.000  0.003  0.010  0.013
   33  0.000  0.003  0.010  0.013
   34  0.000  0.003  0.010  0.013
   35  0.028  0.004  0.001  0.033
   36  0.000  0.000  0.000  0.000
   37  0.000  0.000  0.000  0.000
   38  0.000  0.000  0.000  0.000
tot    0.228  0.093  0.383  0.704
 
band    15 # energy   -4.71779087 # occ.  2.00000000
 
ion      s      p      d    tot
    1  0.007  0.000  0.008  0.015
    2  0.004  0.001  0.008  0.013
    3  0.004  0.001  0.008  0.013
    4  0.004  0.001  0.008  0.013
    5  0.000  0.002  0.009  0.010
    6  0.004  0.001  0.008  0.013
    7  0.004  0.001  0.008  0.013
    8  0.004  0.001  0.008  0.013
    9  0.012  0.000  0.006  0.018
   10  0.005  0.000  0.024  0.029
   11  0.011  0.001  0.021  0.032
   12  0.005  0.000  0.024  0.029
   13  0.011  0.001  0.021  0.032
   14  0.011  0.001  0.021  0.032
   15  0.002  0.000  0.021  0.023
   16  0.005  0.000  0.024  0.029
   17  0.002  0.000  0.021  0.023
   18  0.002  0.000  0.021  0.023
   19  0.004  0.000  0.021  0.025
   20  0.012  0.001  0.023  0.036
   21  0.012  0.001  0.023  0.036
   22  0.003  0.000  0.025  0.029
   23  0.012  0.001  0.023  0.036
   24  0.003  0.000  0.025  0.029
   25  0.003  0.000  0.021  0.025
   26  0.004  0.000  0.021  0.025
   27  0.003  0.000  0.025  0.029
   28  0.007  0.000  0.007  0.014
   29  0.004  0.001  0.009  0.014
   30  0.005  0.001  0.009  0.015
   31  0.004  0.001  0.009  0.014
   32  0.005  0.001  0.009  0.014
   33  0.005  0.001  0.009  0.015
   34  0.005  0.001  0.009  0.014
   35  0.014  0.000  0.008  0.021
   36  0.000  0.002  0.007  0.010
   37  0.000  0.000  0.000  0.000
   38  0.000  0.000  0.000  0.000
tot    0.199  0.018  0.558  0.775
 
band    16 # energy   -4.70859693 # occ.  2.00000000
 
ion      s      p      d    tot
    1  0.000  0.004  0.012  0.016
    2  0.004  0.002  0.005  0.012
    3  0.021  0.004  0.006  0.031
    4  0.004  0.002  0.005  0.011
    5  0.000  0.000  0.012  0.012
    6  0.007  0.002  0.005  0.015
    7  0.022  0.004  0.006  0.031
    8  0.008  0.002  0.005  0.015
    9  0.000  0.005  0.008  0.013
   10  0.009  0.002  0.006  0.016
   11  0.001  0.002  0.013  0.016
   12  0.002  0.003  0.022  0.027
   13  0.001  0.002  0.013  0.016
   14  0.002  0.001  0.010  0.014
   15  0.005  0.001  0.019  0.026
   16  0.002  0.003  0.023  0.028
   17  0.005  0.002  0.019  0.026
   18  0.021  0.006  0.007  0.033
   19  0.005  0.001  0.019  0.025
   20  0.001  0.001  0.010  0.012
   21  0.000  0.002  0.014  0.017
   22  0.003  0.003  0.021  0.027
   23  0.000  0.002  0.014  0.017
   24  0.012  0.002  0.005  0.020
   25  0.021  0.005  0.007  0.033
   26  0.005  0.001  0.018  0.025
   27  0.003  0.003  0.022  0.027
   28  0.000  0.004  0.008  0.012
   29  0.005  0.002  0.005  0.012
   30  0.020  0.004  0.005  0.029
   31  0.005  0.002  0.005  0.012
   32  0.005  0.002  0.005  0.013
   33  0.020  0.004  0.005  0.029
   34  0.005  0.002  0.005  0.013
   35  0.000  0.005  0.010  0.015
   36  0.000  0.000  0.007  0.007
   37  0.000  0.000  0.000  0.000
   38  0.000  0.000  0.000  0.000
tot    0.226  0.094  0.383  0.703
 
band    17 # energy   -4.70858504 # occ.  2.00000000
 
ion      s      p      d    tot
    1  0.000  0.004  0.012  0.016
    2  0.018  0.003  0.005  0.026
    3  0.000  0.002  0.005  0.007
    4  0.018  0.003  0.005  0.027
    5  0.000  0.000  0.012  0.012
    6  0.015  0.003  0.006  0.024
    7  0.000  0.002  0.005  0.007
    8  0.014  0.003  0.006  0.023
    9  0.000  0.005  0.008  0.013
   10  0.000  0.003  0.028  0.031
   11  0.002  0.002  0.011  0.015
   12  0.007  0.002  0.011  0.020
   13  0.002  0.002  0.011  0.015
   14  0.000  0.002  0.015  0.017
   15  0.016  0.005  0.011  0.031
   16  0.007  0.002  0.011  0.020
   17  0.015  0.004  0.011  0.031
   18  0.000  0.000  0.023  0.023
   19  0.016  0.004  0.010  0.031
   20  0.000  0.003  0.016  0.018
   21  0.001  0.001  0.012  0.014
   22  0.009  0.002  0.011  0.022
   23  0.001  0.001  0.011  0.014
   24  0.000  0.003  0.027  0.030
   25  0.000  0.000  0.022  0.022
   26  0.016  0.004  0.011  0.031
   27  0.009  0.002  0.011  0.022
   28  0.000  0.004  0.008  0.012
   29  0.015  0.003  0.005  0.024
   30  0.000  0.002  0.005  0.007
   31  0.016  0.003  0.005  0.024
   32  0.015  0.003  0.005  0.023
   33  0.000  0.002  0.005  0.007
   34  0.015  0.003  0.005  0.023
   35  0.000  0.005  0.011  0.015
   36  0.000  0.000  0.007  0.007
   37  0.000  0.000  0.000  0.000
   38  0.000  0.000  0.000  0.000
tot    0.226  0.094  0.383  0.703
 
band    18 # energy   -4.60448233 # occ.  2.00000000
 
ion      s      p      d    tot
    1  0.011  0.002  0.001  0.013
    2  0.000  0.003  0.011  0.014
    3  0.000  0.003  0.011  0.014
    4  0.000  0.003  0.011  0.014
    5  0.044  0.003  0.000  0.048
    6  0.000  0.003  0.011  0.014
    7  0.000  0.003  0.011  0.014
    8  0.000  0.003  0.011  0.014
    9  0.005  0.001  0.001  0.007
   10  0.002  0.001  0.023  0.026
   11  0.004  0.004  0.019  0.027
   12  0.002  0.001  0.023  0.026
   13  0.004  0.004  0.019  0.027
   14  0.004  0.004  0.019  0.027
   15  0.005  0.001  0.010  0.017
   16  0.002  0.001  0.023  0.026
   17  0.005  0.001  0.010  0.017
   18  0.005  0.001  0.010  0.017
   19  0.011  0.001  0.020  0.032
   20  0.008  0.004  0.010  0.022
   21  0.009  0.004  0.010  0.022
   22  0.003  0.001  0.019  0.024
   23  0.009  0.004  0.010  0.022
   24  0.003  0.001  0.019  0.024
   25  0.011  0.001  0.020  0.032
   26  0.011  0.001  0.020  0.032
   27  0.003  0.001  0.019  0.024
   28  0.002  0.002  0.006  0.009
   29  0.002  0.002  0.010  0.014
   30  0.002  0.002  0.010  0.014
   31  0.002  0.002  0.010  0.014
   32  0.002  0.002  0.010  0.014
   33  0.002  0.002  0.010  0.014
   34  0.002  0.002  0.010  0.014
   35  0.003  0.002  0.003  0.007
   36  0.028  0.009  0.006  0.044
   37  0.001  0.005  0.000  0.006
   38  0.002  0.000  0.000  0.002
tot    0.203  0.089  0.448  0.741
 
band    19 # energy   -4.06843940 # occ.  2.00000000
 
ion      s      p      d    tot
    1  0.000  0.002  0.001  0.003
    2  0.013  0.001  0.008  0.022
    3  0.008  0.001  0.008  0.016
    4  0.013  0.001  0.008  0.022
    5  0.000  0.002  0.020  0.021
    6  0.001  0.001  0.008  0.009
    7  0.008  0.001  0.008  0.016
    8  0.001  0.001  0.008  0.009
    9  0.000  0.000  0.026  0.026
   10  0.001  0.007  0.018  0.026
   11  0.000  0.000  0.039  0.040
   12  0.000  0.002  0.010  0.012
   13  0.000  0.000  0.039  0.040
   14  0.001  0.002  0.003  0.006
   15  0.000  0.000  0.025  0.026
   16  0.000  0.002  0.010  0.012
   17  0.000  0.000  0.025  0.026
   18  0.000  0.001  0.012  0.013
   19  0.000  0.000  0.038  0.039
   20  0.002  0.006  0.020  0.029
   21  0.001  0.001  0.013  0.015
   22  0.000  0.001  0.027  0.027
   23  0.001  0.001  0.013  0.015
   24  0.000  0.002  0.012  0.014
   25  0.001  0.001  0.004  0.006
   26  0.000  0.000  0.038  0.039
   27  0.000  0.001  0.027  0.027
   28  0.000  0.002  0.024  0.025
   29  0.015  0.001  0.011  0.027
   30  0.000  0.001  0.011  0.012
   31  0.015  0.001  0.011  0.027
   32  0.012  0.001  0.008  0.021
   33  0.000  0.001  0.011  0.012
   34  0.012  0.001  0.008  0.021
   35  0.000  0.000  0.028  0.028
   36  0.000  0.006  0.010  0.015
   37  0.000  0.035  0.000  0.035
   38  0.000  0.001  0.000  0.001
tot    0.103  0.087  0.590  0.781
 
band    20 # energy   -4.06838869 # occ.  2.00000000
 
ion      s      p      d    tot
    1  0.000  0.002  0.001  0.003
    2  0.001  0.001  0.008  0.010
    3  0.006  0.001  0.008  0.016
    4  0.001  0.001  0.008  0.010
    5  0.000  0.002  0.020  0.021
    6  0.013  0.001  0.008  0.023
    7  0.006  0.001  0.008  0.016
    8  0.013  0.001  0.008  0.023
    9  0.000  0.000  0.026  0.026
   10  0.000  0.000  0.007  0.007
   11  0.000  0.001  0.015  0.017
   12  0.001  0.005  0.015  0.021
   13  0.000  0.001  0.015  0.017
   14  0.000  0.000  0.051  0.051
   15  0.000  0.001  0.016  0.017
   16  0.001  0.005  0.015  0.021
   17  0.000  0.001  0.016  0.017
   18  0.000  0.000  0.030  0.030
   19  0.001  0.001  0.016  0.017
   20  0.000  0.000  0.011  0.011
   21  0.002  0.004  0.018  0.024
   22  0.000  0.001  0.017  0.018
   23  0.002  0.004  0.018  0.024
   24  0.000  0.000  0.032  0.032
   25  0.000  0.000  0.050  0.050
   26  0.001  0.001  0.016  0.017
   27  0.000  0.001  0.017  0.018
   28  0.000  0.002  0.024  0.025
   29  0.003  0.001  0.009  0.013
   30  0.018  0.001  0.009  0.028
   31  0.003  0.001  0.009  0.013
   32  0.006  0.001  0.011  0.019
   33  0.018  0.001  0.009  0.028
   34  0.006  0.001  0.011  0.019
   35  0.000  0.000  0.028  0.028
   36  0.000  0.006  0.010  0.015
   37  0.000  0.035  0.000  0.035
   38  0.000  0.001  0.000  0.001
tot    0.103  0.087  0.590  0.781
 
band    21 # energy   -4.02314964 # occ.  2.00000000
 
ion      s      p      d    tot
    1  0.001  0.000  0.001  0.002
    2  0.000  0.001  0.018  0.020
    3  0.000  0.001  0.018  0.020
    4  0.000  0.001  0.018  0.020
    5  0.017  0.001  0.000  0.018
    6  0.000  0.001  0.018  0.020
    7  0.000  0.001  0.018  0.020
    8  0.000  0.001  0.018  0.020
    9  0.028  0.001  0.002  0.031
   10  0.001  0.001  0.009  0.010
   11  0.000  0.001  0.021  0.022
   12  0.001  0.001  0.009  0.010
   13  0.000  0.001  0.021  0.022
   14  0.000  0.001  0.021  0.022
   15  0.001  0.004  0.040  0.044
   16  0.001  0.001  0.009  0.010