PROCAR new format
# of k-points:   10         # of bands:  252         # of ions:   37

 k-point     1 :    0.00000000 0.00000000 0.00000000     weight = 0.01562500

band     1 # energy   -8.20224376 # occ.  2.00000000
 
ion      s      p      d    tot
    1  0.006  0.001  0.000  0.007
    2  0.006  0.000  0.000  0.006
    3  0.006  0.000  0.000  0.006
    4  0.006  0.000  0.000  0.006
    5  0.006  0.001  0.000  0.007
    6  0.006  0.000  0.000  0.006
    7  0.006  0.000  0.000  0.006
    8  0.006  0.000  0.000  0.006
    9  0.006  0.000  0.000  0.006
   10  0.025  0.000  0.000  0.026
   11  0.026  0.000  0.000  0.027
   12  0.025  0.000  0.000  0.026
   13  0.026  0.000  0.000  0.027
   14  0.026  0.000  0.000  0.027
   15  0.024  0.000  0.000  0.025
   16  0.025  0.000  0.000  0.026
   17  0.024  0.000  0.000  0.025
   18  0.024  0.000  0.000  0.025
   19  0.023  0.000  0.000  0.024
   20  0.029  0.000  0.000  0.030
   21  0.029  0.000  0.000  0.030
   22  0.024  0.000  0.000  0.024
   23  0.029  0.000  0.000  0.030
   24  0.024  0.000  0.000  0.024
   25  0.023  0.000  0.000  0.024
   26  0.023  0.000  0.000  0.024
   27  0.024  0.000  0.000  0.024
   28  0.005  0.000  0.000  0.005
   29  0.006  0.000  0.000  0.006
   30  0.006  0.000  0.000  0.006
   31  0.006  0.000  0.000  0.006
   32  0.006  0.000  0.000  0.006
   33  0.006  0.000  0.000  0.006
   34  0.006  0.000  0.000  0.006
   35  0.005  0.000  0.000  0.005
   36  0.011  0.001  0.000  0.013
   37  0.000  0.000  0.000  0.000
tot    0.568  0.012  0.004  0.583
 
band     2 # energy   -7.06014560 # occ.  2.00000000
 
ion      s      p      d    tot
    1  0.016  0.000  0.001  0.017
    2  0.016  0.000  0.001  0.017
    3  0.016  0.000  0.001  0.017
    4  0.016  0.000  0.001  0.017
    5  0.016  0.000  0.001  0.017
    6  0.016  0.000  0.001  0.017
    7  0.016  0.000  0.001  0.017
    8  0.016  0.000  0.001  0.017
    9  0.016  0.001  0.001  0.018
   10  0.012  0.001  0.003  0.016
   11  0.011  0.001  0.003  0.015
   12  0.012  0.001  0.003  0.016
   13  0.011  0.001  0.003  0.015
   14  0.011  0.001  0.003  0.015
   15  0.012  0.001  0.002  0.016
   16  0.012  0.001  0.003  0.016
   17  0.012  0.001  0.002  0.016
   18  0.012  0.001  0.002  0.016
   19  0.010  0.001  0.003  0.013
   20  0.015  0.002  0.003  0.020
   21  0.015  0.002  0.003  0.020
   22  0.010  0.001  0.003  0.014
   23  0.015  0.002  0.003  0.020
   24  0.010  0.001  0.003  0.014
   25  0.010  0.001  0.003  0.013
   26  0.010  0.001  0.003  0.013
   27  0.010  0.001  0.003  0.014
   28  0.014  0.000  0.001  0.015
   29  0.016  0.000  0.001  0.018
   30  0.016  0.000  0.001  0.018
   31  0.016  0.000  0.001  0.018
   32  0.016  0.000  0.001  0.018
   33  0.016  0.000  0.001  0.018
   34  0.016  0.000  0.001  0.018
   35  0.014  0.000  0.001  0.015
   36  0.027  0.001  0.000  0.028
   37  0.001  0.000  0.000  0.001
tot    0.506  0.032  0.065  0.603
 
band     3 # energy   -6.10722134 # occ.  2.00000000
 
ion      s      p      d    tot
    1  0.005  0.000  0.005  0.010
    2  0.007  0.000  0.004  0.012
    3  0.007  0.000  0.004  0.012
    4  0.007  0.000  0.004  0.012
    5  0.008  0.000  0.004  0.012
    6  0.007  0.000  0.004  0.012
    7  0.007  0.000  0.004  0.012
    8  0.007  0.000  0.004  0.012
    9  0.010  0.000  0.004  0.014
   10  0.002  0.001  0.000  0.003
   11  0.001  0.001  0.001  0.002
   12  0.002  0.001  0.000  0.003
   13  0.001  0.001  0.001  0.002
   14  0.001  0.001  0.001  0.002
   15  0.000  0.001  0.001  0.001
   16  0.002  0.001  0.000  0.003
   17  0.000  0.001  0.001  0.001
   18  0.000  0.001  0.001  0.001
   19  0.008  0.001  0.012  0.021
   20  0.010  0.001  0.022  0.033
   21  0.009  0.001  0.022  0.033
   22  0.002  0.001  0.013  0.016
   23  0.009  0.001  0.022  0.033
   24  0.002  0.001  0.013  0.016
   25  0.008  0.001  0.012  0.021
   26  0.008  0.001  0.012  0.021
   27  0.002  0.001  0.013  0.016
   28  0.017  0.000  0.015  0.033
   29  0.024  0.000  0.019  0.042
   30  0.024  0.000  0.019  0.042
   31  0.024  0.000  0.019  0.042
   32  0.024  0.000  0.019  0.042
   33  0.024  0.000  0.019  0.042
   34  0.024  0.000  0.019  0.042
   35  0.026  0.000  0.016  0.042
   36  0.020  0.001  0.014  0.035
   37  0.000  0.000  0.000  0.000
tot    0.339  0.018  0.343  0.701
 
band     4 # energy   -6.07758658 # occ.  2.00000000
 
ion      s      p      d    tot
    1  0.008  0.001  0.000  0.009
    2  0.000  0.000  0.004  0.005
    3  0.000  0.000  0.004  0.005
    4  0.000  0.000  0.004  0.005
    5  0.003  0.000  0.000  0.004
    6  0.000  0.000  0.004  0.005
    7  0.000  0.000  0.004  0.005
    8  0.000  0.000  0.004  0.005
    9  0.007  0.001  0.002  0.011
   10  0.005  0.000  0.026  0.031
   11  0.005  0.002  0.010  0.018
   12  0.005  0.000  0.026  0.030
   13  0.005  0.002  0.010  0.018
   14  0.005  0.002  0.010  0.017
   15  0.027  0.002  0.006  0.035
   16  0.005  0.000  0.026  0.030
   17  0.027  0.002  0.006  0.035
   18  0.027  0.002  0.006  0.035
   19  0.002  0.001  0.025  0.027
   20  0.022  0.001  0.029  0.052
   21  0.021  0.001  0.029  0.051
   22  0.025  0.003  0.002  0.030
   23  0.021  0.001  0.029  0.051
   24  0.025  0.003  0.002  0.030
   25  0.002  0.001  0.024  0.027
   26  0.002  0.001  0.025  0.027
   27  0.025  0.003  0.002  0.030
   28  0.001  0.000  0.002  0.003
   29  0.000  0.001  0.006  0.007
   30  0.000  0.001  0.006  0.006
   31  0.000  0.001  0.006  0.007
   32  0.000  0.001  0.006  0.007
   33  0.000  0.001  0.006  0.006
   34  0.000  0.001  0.006  0.007
   35  0.005  0.001  0.001  0.007
   36  0.027  0.004  0.002  0.033
   37  0.001  0.000  0.000  0.001
tot    0.313  0.042  0.358  0.714
 
band     5 # energy   -6.06920657 # occ.  2.00000000
 
ion      s      p      d    tot
    1  0.000  0.000  0.008  0.008
    2  0.003  0.001  0.002  0.006
    3  0.000  0.000  0.003  0.004
    4  0.003  0.001  0.002  0.006
    5  0.000  0.001  0.006  0.007
    6  0.006  0.001  0.003  0.010
    7  0.000  0.000  0.003  0.004
    8  0.006  0.001  0.003  0.010
    9  0.000  0.000  0.001  0.001
   10  0.037  0.002  0.005  0.044
   11  0.011  0.003  0.019  0.034
   12  0.010  0.001  0.026  0.036
   13  0.012  0.003  0.019  0.034
   14  0.046  0.001  0.012  0.059
   15  0.000  0.002  0.007  0.009
   16  0.009  0.001  0.026  0.036
   17  0.000  0.002  0.007  0.009
   18  0.000  0.000  0.011  0.011
   19  0.003  0.003  0.006  0.012
   20  0.066  0.001  0.011  0.078
   21  0.017  0.002  0.034  0.053
   22  0.004  0.001  0.020  0.025
   23  0.017  0.002  0.034  0.053
   24  0.014  0.002  0.006  0.021
   25  0.013  0.000  0.014  0.027
   26  0.003  0.003  0.006  0.012
   27  0.004  0.001  0.020  0.025
   28  0.000  0.000  0.001  0.002
   29  0.007  0.001  0.004  0.012
   30  0.002  0.001  0.003  0.006
   31  0.007  0.001  0.004  0.012
   32  0.001  0.000  0.003  0.004
   33  0.002  0.001  0.003  0.006
   34  0.001  0.000  0.003  0.004
   35  0.000  0.000  0.004  0.004
   36  0.000  0.004  0.007  0.011
   37  0.000  0.000  0.000  0.000
tot    0.305  0.044  0.345  0.695
 
band     6 # energy   -6.06917012 # occ.  2.00000000
 
ion      s      p      d    tot
    1  0.000  0.000  0.008  0.008
    2  0.003  0.001  0.003  0.007
    3  0.006  0.001  0.003  0.010
    4  0.003  0.001  0.003  0.007
    5  0.000  0.001  0.006  0.007
    6  0.000  0.000  0.002  0.003
    7  0.006  0.001  0.003  0.010
    8  0.000  0.000  0.002  0.003
    9  0.000  0.000  0.001  0.001
   10  0.000  0.000  0.033  0.033
   11  0.035  0.001  0.014  0.050
   12  0.028  0.002  0.012  0.042
   13  0.034  0.001  0.014  0.050
   14  0.000  0.004  0.022  0.026
   15  0.000  0.001  0.009  0.011
   16  0.028  0.002  0.012  0.042
   17  0.000  0.001  0.009  0.011
   18  0.000  0.003  0.005  0.008
   19  0.010  0.001  0.011  0.022
   20  0.000  0.002  0.042  0.044
   21  0.050  0.001  0.018  0.070
   22  0.010  0.001  0.011  0.022
   23  0.050  0.001  0.018  0.070
   24  0.000  0.001  0.025  0.026
   25  0.000  0.004  0.003  0.007
   26  0.010  0.001  0.011  0.022
   27  0.010  0.001  0.010  0.022
   28  0.000  0.000  0.001  0.002
   29  0.000  0.000  0.002  0.003
   30  0.005  0.001  0.004  0.009
   31  0.000  0.000  0.002  0.003
   32  0.005  0.001  0.004  0.010
   33  0.005  0.001  0.004  0.009
   34  0.005  0.001  0.004  0.010
   35  0.000  0.000  0.004  0.004
   36  0.000  0.004  0.007  0.011
   37  0.000  0.000  0.000  0.000
tot    0.305  0.044  0.345  0.695
 
band     7 # energy   -6.03420284 # occ.  2.00000000
 
ion      s      p      d    tot
    1  0.018  0.000  0.016  0.034
    2  0.015  0.000  0.016  0.031
    3  0.015  0.000  0.016  0.031
    4  0.015  0.000  0.016  0.031
    5  0.010  0.000  0.018  0.028
    6  0.015  0.000  0.016  0.031
    7  0.015  0.000  0.016  0.031
    8  0.015  0.000  0.016  0.031
    9  0.017  0.000  0.014  0.031
   10  0.004  0.000  0.029  0.033
   11  0.014  0.000  0.024  0.038
   12  0.004  0.000  0.029  0.033
   13  0.014  0.000  0.024  0.038
   14  0.014  0.000  0.024  0.038
   15  0.005  0.000  0.026  0.032
   16  0.004  0.000  0.029  0.033
   17  0.005  0.000  0.026  0.032
   18  0.005  0.000  0.026  0.032
   19  0.005  0.000  0.009  0.014
   20  0.001  0.000  0.019  0.020
   21  0.001  0.000  0.019  0.020
   22  0.001  0.000  0.011  0.012
   23  0.001  0.000  0.019  0.020
   24  0.001  0.000  0.011  0.012
   25  0.005  0.000  0.009  0.014
   26  0.005  0.000  0.009  0.014
   27  0.001  0.000  0.011  0.012
   28  0.000  0.000  0.002  0.002
   29  0.001  0.000  0.002  0.003
   30  0.001  0.000  0.002  0.003
   31  0.001  0.000  0.002  0.003
   32  0.001  0.000  0.002  0.003
   33  0.001  0.000  0.002  0.003
   34  0.001  0.000  0.002  0.003
   35  0.001  0.000  0.001  0.003
   36  0.001  0.000  0.002  0.003
   37  0.000  0.000  0.000  0.000
tot    0.234  0.005  0.513  0.752
 
band     8 # energy   -6.01528736 # occ.  2.00000000
 
ion      s      p      d    tot
    1  0.007  0.001  0.001  0.009
    2  0.000  0.001  0.006  0.007
    3  0.000  0.001  0.006  0.007
    4  0.000  0.001  0.006  0.007
    5  0.017  0.002  0.001  0.019
    6  0.000  0.001  0.006  0.007
    7  0.000  0.001  0.006  0.007
    8  0.000  0.001  0.006  0.007
    9  0.000  0.000  0.002  0.002
   10  0.026  0.003  0.001  0.030
   11  0.019  0.001  0.023  0.042
   12  0.026  0.003  0.001  0.030
   13  0.019  0.001  0.023  0.042
   14  0.019  0.001  0.023  0.042
   15  0.000  0.001  0.022  0.023
   16  0.026  0.003  0.001  0.030
   17  0.000  0.001  0.022  0.023
   18  0.000  0.001  0.022  0.023
   19  0.022  0.002  0.006  0.031
   20  0.006  0.002  0.020  0.029
   21  0.006  0.002  0.020  0.029
   22  0.011  0.000  0.025  0.035
   23  0.006  0.002  0.020  0.029
   24  0.010  0.000  0.025  0.035
   25  0.022  0.002  0.006  0.031
   26  0.022  0.002  0.006  0.031
   27  0.011  0.000  0.025  0.035
   28  0.015  0.001  0.000  0.016
   29  0.000  0.000  0.005  0.005
   30  0.000  0.000  0.005  0.005
   31  0.000  0.000  0.005  0.005
   32  0.000  0.000  0.005  0.005
   33  0.000  0.000  0.005  0.005
   34  0.000  0.000  0.005  0.005
   35  0.002  0.001  0.004  0.007
   36  0.000  0.000  0.000  0.000
   37  0.000  0.000  0.000  0.000
tot    0.294  0.039  0.363  0.697
 
band     9 # energy   -5.98001257 # occ.  2.00000000
 
ion      s      p      d    tot
    1  0.000  0.001  0.003  0.004
    2  0.004  0.001  0.003  0.008
    3  0.000  0.000  0.004  0.004
    4  0.005  0.001  0.003  0.009
    5  0.000  0.000  0.005  0.005
    6  0.008  0.001  0.004  0.013
    7  0.000  0.000  0.004  0.004
    8  0.007  0.001  0.004  0.013
    9  0.000  0.001  0.010  0.012
   10  0.000  0.005  0.003  0.008
   11  0.009  0.001  0.012  0.022
   12  0.016  0.001  0.013  0.031
   13  0.008  0.001  0.012  0.022
   14  0.000  0.001  0.027  0.029
   15  0.047  0.001  0.014  0.063
   16  0.016  0.001  0.014  0.031
   17  0.046  0.001  0.015  0.062
   18  0.000  0.001  0.039  0.041
   19  0.030  0.002  0.011  0.042
   20  0.000  0.003  0.011  0.013
   21  0.000  0.001  0.014  0.015
   22  0.028  0.001  0.012  0.042
   23  0.000  0.001  0.014  0.015
   24  0.000  0.004  0.017  0.021
   25  0.000  0.000  0.037  0.037
   26  0.029  0.002  0.012  0.042
   27  0.029  0.001  0.012  0.043
   28  0.000  0.000  0.007  0.007
   29  0.005  0.001  0.002  0.008
   30  0.002  0.000  0.003  0.006
   31  0.004  0.001  0.002  0.008
   32  0.000  0.000  0.002  0.002
   33  0.002  0.000  0.003  0.005
   34  0.000  0.000  0.002  0.002
   35  0.000  0.001  0.004  0.005
   36  0.000  0.000  0.001  0.001
   37  0.000  0.000  0.000  0.000
tot    0.297  0.041  0.354  0.693
 
band    10 # energy   -5.97999316 # occ.  2.00000000
 
ion      s      p      d    tot
    1  0.000  0.001  0.003  0.004
    2  0.004  0.001  0.004  0.009
    3  0.008  0.001  0.004  0.013
    4  0.004  0.001  0.004  0.008
    5  0.000  0.000  0.005  0.005
    6  0.001  0.000  0.003  0.004
    7  0.008  0.001  0.004  0.013
    8  0.001  0.000  0.003  0.004
    9  0.000  0.001  0.010  0.012
   10  0.021  0.000  0.017  0.038
   11  0.003  0.001  0.023  0.026
   12  0.006  0.003  0.007  0.016
   13  0.003  0.001  0.022  0.026
   14  0.011  0.001  0.007  0.019
   15  0.015  0.001  0.031  0.048
   16  0.005  0.004  0.006  0.015
   17  0.016  0.001  0.031  0.048
   18  0.062  0.002  0.006  0.070
   19  0.009  0.001  0.029  0.039
   20  0.000  0.001  0.015  0.016
   21  0.000  0.002  0.012  0.014
   22  0.010  0.003  0.015  0.028
   23  0.000  0.002  0.012  0.014
   24  0.038  0.001  0.011  0.050
   25  0.039  0.002  0.003  0.044
   26  0.010  0.001  0.028  0.039
   27  0.009  0.003  0.016  0.028
   28  0.000  0.000  0.007  0.007
   29  0.000  0.000  0.002  0.003
   30  0.002  0.000  0.002  0.005
   31  0.000  0.000  0.002  0.003
   32  0.004  0.001  0.003  0.008
   33  0.002  0.001  0.002  0.005
   34  0.005  0.001  0.003  0.008
   35  0.000  0.001  0.004  0.005
   36  0.000  0.000  0.001  0.001
   37  0.000  0.000  0.000  0.000
tot    0.297  0.041  0.354  0.693
 
band    11 # energy   -5.58900965 # occ.  2.00000000
 
ion      s      p      d    tot
    1  0.000  0.001  0.004  0.004
    2  0.001  0.001  0.005  0.006
    3  0.009  0.001  0.004  0.014
    4  0.001  0.001  0.005  0.006
    5  0.000  0.001  0.010  0.011
    6  0.004  0.001  0.003  0.008
    7  0.009  0.001  0.004  0.014
    8  0.004  0.001  0.003  0.008
    9  0.000  0.000  0.007  0.007
   10  0.000  0.001  0.050  0.051
   11  0.017  0.001  0.020  0.038
   12  0.008  0.001  0.018  0.027
   13  0.017  0.001  0.020  0.038
   14  0.000  0.000  0.046  0.046
   15  0.001  0.000  0.018  0.020
   16  0.008  0.001  0.018  0.027
   17  0.001  0.000  0.018  0.020
   18  0.000  0.001  0.011  0.012
   19  0.004  0.000  0.018  0.022
   20  0.000  0.000  0.089  0.089
   21  0.015  0.001  0.028  0.043
   22  0.003  0.001  0.019  0.023
   23  0.015  0.001  0.028  0.043
   24  0.000  0.001  0.030  0.031
   25  0.000  0.001  0.011  0.012
   26  0.004  0.000  0.019  0.022
   27  0.003  0.001  0.019  0.023
   28  0.000  0.000  0.009  0.009
   29  0.004  0.001  0.006  0.010
   30  0.009  0.001  0.005  0.015
   31  0.004  0.001  0.006  0.010
   32  0.001  0.001  0.004  0.006
   33  0.009  0.001  0.005  0.015
   34  0.001  0.001  0.004  0.006
   35  0.000  0.000  0.003  0.003
   36  0.000  0.004  0.006  0.011
   37  0.000  0.000  0.000  0.000
tot    0.151  0.031  0.571  0.753
 
band    12 # energy   -5.58896657 # occ.  2.00000000
 
ion      s      p      d    tot
    1  0.000  0.001  0.004  0.004
    2  0.008  0.001  0.004  0.013
    3  0.000  0.000  0.004  0.005
    4  0.008  0.001  0.004  0.013
    5  0.000  0.001  0.010  0.011
    6  0.005  0.001  0.005  0.011
    7  0.000  0.000  0.004  0.005
    8  0.005  0.001  0.005  0.011
    9  0.000  0.000  0.007  0.007
   10  0.010  0.002  0.008  0.020
   11  0.006  0.000  0.037  0.043
   12  0.003  0.001  0.040  0.043
   13  0.006  0.000  0.037  0.043
   14  0.023  0.001  0.011  0.035
   15  0.000  0.001  0.013  0.015
   16  0.003  0.001  0.040  0.043
   17  0.000  0.001  0.013  0.015
   18  0.002  0.000  0.021  0.023
   19  0.001  0.001  0.014  0.016
   20  0.020  0.001  0.007  0.028
   21  0.005  0.000  0.069  0.074
   22  0.001  0.001  0.026  0.028
   23  0.005  0.000  0.069  0.074
   24  0.004  0.001  0.015  0.020
   25  0.005  0.000  0.021  0.026
   26  0.001  0.001  0.014  0.015
   27  0.001  0.001  0.026  0.028
   28  0.000  0.000  0.009  0.009
   29  0.006  0.001  0.004  0.011
   30  0.000  0.000  0.005  0.005
   31  0.006  0.001  0.004  0.011
   32  0.008  0.001  0.006  0.015
   33  0.000  0.000  0.005  0.005
   34  0.008  0.001  0.006  0.015
   35  0.000  0.000  0.003  0.003
   36  0.000  0.004  0.006  0.011
   37  0.000  0.000  0.000  0.000
tot    0.151  0.031  0.571  0.753
 
band    13 # energy   -5.57405586 # occ.  2.00000000
 
ion      s      p      d    tot
    1  0.014  0.002  0.002  0.017
    2  0.000  0.001  0.007  0.007
    3  0.000  0.001  0.007  0.007
    4  0.000  0.001  0.007  0.007
    5  0.000  0.000  0.002  0.002
    6  0.000  0.001  0.007  0.007
    7  0.000  0.001  0.007  0.007
    8  0.000  0.001  0.007  0.007
    9  0.013  0.001  0.000  0.014
   10  0.010  0.001  0.012  0.024
   11  0.003  0.000  0.043  0.047
   12  0.010  0.001  0.012  0.024
   13  0.003  0.000  0.043  0.047
   14  0.003  0.000  0.043  0.047
   15  0.003  0.001  0.021  0.024
   16  0.010  0.001  0.012  0.024
   17  0.003  0.001  0.021  0.024
   18  0.003  0.001  0.021  0.024
   19  0.004  0.001  0.011  0.016
   20  0.001  0.000  0.060  0.060
   21  0.001  0.000  0.059  0.060
   22  0.011  0.001  0.019  0.031
   23  0.001  0.000  0.059  0.060
   24  0.011  0.001  0.019  0.031
   25  0.004  0.001  0.011  0.016
   26  0.004  0.001  0.011  0.016
   27  0.011  0.001  0.019  0.031
   28  0.016  0.001  0.000  0.017
   29  0.000  0.000  0.008  0.008
   30  0.000  0.000  0.008  0.008
   31  0.000  0.000  0.008  0.008
   32  0.000  0.000  0.008  0.008
   33  0.000  0.000  0.008  0.008
   34  0.000  0.000  0.008  0.008
   35  0.004  0.001  0.003  0.008
   36  0.002  0.000  0.001  0.003
   37  0.000  0.000  0.000  0.000
tot    0.142  0.025  0.592  0.759
 
band    14 # energy   -5.55800065 # occ.  2.00000000
 
ion      s      p      d    tot
    1  0.002  0.000  0.001  0.003
    2  0.000  0.001  0.008  0.009
    3  0.000  0.001  0.008  0.009
    4  0.000  0.001  0.008  0.009
    5  0.018  0.002  0.000  0.019
    6  0.000  0.001  0.008  0.009
    7  0.000  0.001  0.008  0.009
    8  0.000  0.001  0.008  0.009
    9  0.008  0.001  0.002  0.011
   10  0.001  0.000  0.043  0.044
   11  0.007  0.002  0.007  0.016
   12  0.001  0.000  0.043  0.044
   13  0.007  0.002  0.007  0.016
   14  0.007  0.002  0.007  0.016
   15  0.014  0.001  0.021  0.036
   16  0.001  0.000  0.043  0.044
   17  0.014  0.001  0.021  0.036
   18  0.014  0.001  0.021  0.036
   19  0.009  0.001  0.028  0.038
   20  0.007  0.002  0.017  0.026
   21  0.007  0.002  0.017  0.026
   22  0.000  0.000  0.031  0.032
   23  0.007  0.002  0.017  0.026
   24  0.000  0.000  0.031  0.032
   25  0.009  0.001  0.028  0.039
   26  0.009  0.001  0.028  0.038
   27  0.000  0.000  0.031  0.032
   28  0.004  0.001  0.002  0.006
   29  0.000  0.001  0.008  0.008
   30  0.000  0.001  0.008  0.008
   31  0.000  0.001  0.008  0.008
   32  0.000  0.001  0.008  0.008
   33  0.000  0.001  0.008  0.008
   34  0.000  0.001  0.008  0.008
   35  0.006  0.000  0.000  0.007
   36  0.026  0.004  0.002  0.032
   37  0.001  0.000  0.000  0.001
tot    0.177  0.037  0.542  0.757
 
band    15 # energy   -5.50140103 # occ.  2.00000000
 
ion      s      p      d    tot
    1  0.000  0.001  0.013  0.014
    2  0.009  0.001  0.004  0.014
    3  0.001  0.000  0.005  0.006
    4  0.009  0.001  0.004  0.014
    5  0.000  0.000  0.005  0.005
    6  0.004  0.001  0.005  0.010
    7  0.001  0.000  0.005  0.006
    8  0.004  0.001  0.005  0.010
    9  0.000  0.001  0.006  0.007
   10  0.000  0.001  0.029  0.030
   11  0.000  0.001  0.020  0.021
   12  0.009  0.000  0.021  0.030
   13  0.000  0.001  0.020  0.021
   14  0.000  0.001  0.018  0.019
   15  0.011  0.002  0.020  0.032
   16  0.009  0.000  0.021  0.030
   17  0.011  0.002  0.019  0.032
   18  0.000  0.000  0.061  0.061
   19  0.013  0.001  0.019  0.033
   20  0.000  0.002  0.020  0.022
   21  0.000  0.001  0.025  0.026
   22  0.016  0.001  0.020  0.037
   23  0.000  0.001  0.025  0.026
   24  0.000  0.000  0.032  0.032
   25  0.000  0.000  0.065  0.066
   26  0.013  0.001  0.019  0.033
   27  0.016  0.001  0.020  0.037
   28  0.000  0.001  0.005  0.006
   29  0.006  0.001  0.004  0.011
   30  0.000  0.000  0.006  0.006
   31  0.006  0.001  0.004  0.011
   32  0.005  0.001  0.003  0.009
   33  0.000  0.000  0.006  0.006
   34  0.005  0.001  0.003  0.009
   35  0.000  0.001  0.009  0.010
   36  0.000  0.000  0.003  0.003
   37  0.000  0.000  0.000  0.000
tot    0.150  0.029  0.569  0.748
 
band    16 # energy   -5.50137764 # occ.  2.00000000
 
ion      s      p      d    tot
    1  0.000  0.001  0.013  0.014
    2  0.000  0.001  0.005  0.006
    3  0.009  0.001  0.004  0.014
    4  0.000  0.001  0.005  0.006
    5  0.000  0.000  0.005  0.005
    6  0.005  0.001  0.004  0.010
    7  0.008  0.001  0.004  0.014
    8  0.005  0.001  0.004  0.010
    9  0.000  0.001  0.006  0.007
   10  0.011  0.000  0.018  0.030
   11  0.000  0.001  0.019  0.020
   12  0.003  0.001  0.027  0.030
   13  0.000  0.001  0.019  0.020
   14  0.000  0.001  0.020  0.021
   15  0.004  0.001  0.047  0.052
   16  0.003  0.001  0.027  0.030
   17  0.004  0.001  0.047  0.052
   18  0.015  0.002  0.006  0.022
   19  0.004  0.001  0.050  0.055
   20  0.000  0.000  0.026  0.027
   21  0.000  0.001  0.022  0.023
   22  0.005  0.001  0.028  0.034
   23  0.000  0.001  0.022  0.023
   24  0.022  0.001  0.016  0.038
   25  0.017  0.001  0.004  0.023
   26  0.004  0.001  0.050  0.055
   27  0.005  0.001  0.028  0.034
   28  0.000  0.001  0.005  0.006
   29  0.001  0.000  0.005  0.007
   30  0.008  0.001  0.003  0.012
   31  0.001  0.000  0.005  0.007
   32  0.002  0.001  0.005  0.009
   33  0.008  0.001  0.003  0.012
   34  0.002  0.001  0.005  0.009
   35  0.000  0.001  0.009  0.010
   36  0.000  0.000  0.003  0.003
   37  0.000  0.000  0.000  0.000
tot    0.150  0.029  0.569  0.748
 
band    17 # energy   -5.20985024 # occ.  2.00000000
 
ion      s      p      d    tot
    1  0.000  0.000  0.017  0.017
    2  0.002  0.001  0.006  0.010
    3  0.002  0.000  0.010  0.012
    4  0.002  0.001  0.006  0.010
    5  0.000  0.001  0.016  0.017
    6  0.008  0.001  0.008  0.016
    7  0.002  0.000  0.010  0.012
    8  0.008  0.001  0.008  0.016
    9  0.000  0.001  0.004  0.005
   10  0.000  0.000  0.021  0.021
   11  0.000  0.000  0.047  0.047
   12  0.000  0.000  0.013  0.013
   13  0.000  0.000  0.047  0.047
   14  0.001  0.000  0.048  0.049
   15  0.000  0.000  0.009  0.009
   16  0.000  0.000  0.013  0.013
   17  0.000  0.000  0.009  0.009
   18  0.001  0.000  0.017  0.018
   19  0.000  0.000  0.009  0.010
   20  0.001  0.000  0.092  0.094
   21  0.000  0.000  0.061  0.062
   22  0.000  0.000  0.022  0.022
   23  0.000  0.000  0.061  0.062
   24  0.001  0.000  0.017  0.019
   25  0.000  0.000  0.016  0.017
   26  0.000  0.000  0.009  0.010
   27  0.000  0.000  0.022  0.022
   28  0.000  0.001  0.005  0.006
   29  0.012  0.001  0.020  0.033
   30  0.002  0.000  0.014  0.016
   31  0.012  0.001  0.020  0.033
   32  0.004  0.001  0.009  0.014
   33  0.002  0.000  0.014  0.016
   34  0.004  0.001  0.009  0.014
   35  0.000  0.000  0.026  0.026
   36  0.000  0.004  0.010  0.015
   37  0.000  0.000  0.000  0.000
tot    0.065  0.018  0.746  0.830
 
band    18 # energy   -5.20982379 # occ.  2.00000000
 
ion      s      p      d    tot
    1  0.000  0.000  0.017  0.017
    2  0.006  0.000  0.010  0.016
    3  0.006  0.001  0.006  0.013
    4  0.006  0.000  0.010  0.016
    5  0.000  0.001  0.016  0.017
    6  0.000  0.000  0.008  0.009
    7  0.006  0.001  0.006  0.013
    8  0.000  0.000  0.008  0.009
    9  0.000  0.001  0.004  0.005
   10  0.000  0.000  0.011  0.011
   11  0.001  0.000  0.047  0.048
   12  0.000  0.000  0.018  0.018
   13  0.001  0.000  0.047  0.048
   14  0.000  0.000  0.046  0.047
   15  0.000  0.000  0.014  0.015
   16  0.000  0.000  0.018  0.018
   17  0.000  0.000  0.014  0.015
   18  0.000  0.000  0.006  0.006
   19  0.000  0.000  0.014  0.014
   20  0.000  0.001  0.052  0.052
   21  0.001  0.000  0.082  0.083
   22  0.001  0.000  0.019  0.020
   23  0.001  0.000  0.081  0.083
   24  0.000  0.000  0.023  0.023
   25  0.000  0.000  0.007  0.007
   26  0.000  0.000  0.014  0.014
   27  0.001  0.000  0.019  0.020
   28  0.000  0.001  0.005  0.006
   29  0.000  0.000  0.009  0.009
   30  0.010  0.001  0.015  0.026
   31  0.000  0.000  0.009  0.009
   32  0.008  0.001  0.020  0.028
   33  0.010  0.001  0.015  0.026
   34  0.008  0.001  0.020  0.028
   35  0.000  0.000  0.026  0.026
   36  0.000  0.004  0.010  0.015
   37  0.000  0.000  0.000  0.000
tot    0.065  0.018  0.746  0.830
 
band    19 # energy   -5.20549283 # occ.  2.00000000
 
ion      s      p      d    tot
    1  0.010  0.000  0.006  0.015
    2  0.000  0.001  0.013  0.014
    3  0.000  0.001  0.013  0.014
    4  0.000  0.001  0.013  0.014
    5  0.002  0.000  0.004  0.006
    6  0.000  0.001  0.013  0.014
    7  0.000  0.001  0.013  0.014
    8  0.000  0.001  0.013  0.014
    9  0.019  0.001  0.001  0.020
   10  0.001  0.000  0.020  0.021
   11  0.000  0.000  0.029  0.029
   12  0.001  0.000  0.020  0.021
   13  0.000  0.000  0.029  0.029
   14  0.000  0.000  0.029  0.029
   15  0.000  0.000  0.027  0.028
   16  0.001  0.000  0.020  0.021
   17  0.000  0.000  0.027  0.028
   18  0.000  0.000  0.028  0.028
   19  0.000  0.000  0.025  0.025
   20  0.001  0.000  0.043  0.044
   21  0.001  0.000  0.044  0.044
   22  0.000  0.000  0.027  0.028
   23  0.001  0.000  0.044  0.044
   24  0.000  0.000  0.027  0.028
   25  0.000  0.000  0.025  0.025
   26  0.000  0.000  0.025  0.025
   27  0.000  0.000  0.027  0.028
   28  0.000  0.000  0.006  0.006
   29  0.000  0.001  0.021  0.022
   30  0.000  0.001  0.021  0.022
   31  0.000  0.001  0.021  0.022
   32  0.000  0.001  0.021  0.022
   33  0.000  0.001  0.021  0.022
   34  0.000  0.001  0.021  0.022
   35  0.021  0.001  0.001  0.024
   36  0.010  0.000  0.007  0.017
   37  0.000  0.000  0.000  0.000
tot    0.067  0.016  0.744  0.827
 
band    20 # energy   -5.19324616 # occ.  2.00000000
 
ion      s      p      d    tot
    1  0.000  0.000  0.001  0.001
    2  0.000  0.000  0.012  0.013
    3  0.000  0.000  0.012  0.012
    4  0.000  0.000  0.012  0.013
    5  0.008  0.000  0.006  0.014
    6  0.000  0.000  0.012  0.012
    7  0.000  0.000  0.012  0.012
    8  0.000  0.000  0.012  0.012
    9  0.006  0.000  0.008  0.014
   10  0.000  0.000  0.015  0.015
   11  0.000  0.000  0.024  0.024
   12  0.000  0.000  0.015  0.015
   13  0.000  0.000  0.024  0.024
   14  0.000  0.000  0.024  0.024
   15  0.000  0.000  0.026  0.027
   16  0.000  0.000  0.015  0.015
   17  0.000  0.000  0.026  0.027
   18  0.000  0.000  0.026  0.027
   19  0.000  0.000  0.028  0.028
   20  0.000  0.000  0.037  0.038
   21  0.000  0.000  0.038  0.038
   22  0.001  0.000  0.026  0.027
   23  0.000  0.000  0.038  0.038
   24  0.001  0.000  0.026  0.027
   25  0.000  0.000  0.028  0.028
   26  0.000  0.000  0.028  0.028
   27  0.001  0.000  0.026  0.027
   28  0.028  0.000  0.010  0.039
   29  0.000  0.001  0.029  0.030
   30  0.000  0.001  0.030  0.030
   31  0.000  0.001  0.029  0.030
   32  0.000  0.001  0.029  0.030
   33  0.000  0.001  0.030  0.030
   34  0.000  0.001  0.029  0.030
   35  0.007  0.000  0.007  0.014
   36  0.010  0.001  0.001  0.013
   37  0.001  0.000  0.000  0.001
tot    0.067  0.012  0.749  0.829
 
band    21 # energy   -5.14463776 # occ.  2.00000000
 
ion      s      p      d    tot
    1  0.000  0.002  0.009  0.011
    2  0.012  0.001  0.018  0.031
    3  0.010  0.001  0.012  0.023
    4  0.012  0.001  0.018  0.031
    5  0.000  0.001  0.025  0.026
    6  0.000  0.000  0.015  0.015
    7  0.010  0.001  0.012  0.023
    8  0.000  0.000  0.014  0.015
    9  0.000  0.000  0.039  0.040
   10  0.001  0.001  0.042  0.044
   11  0.000  0.000  0.016  0.016
   12  0.000  0.000  0.026  0.026
   13  0.000  0.000  0.016  0.016
   14  0.000  0.000  0.012  0.012
   15  0.000  0.001  0.031  0.031
   16  0.000  0.000  0.026  0.026
   17  0.000  0.001  0.031  0.031
   18  0.000  0.001  0.031  0.032
   19  0.000  0.000  0.022  0.023
   20  0.000  0.000  0.016  0.016
   21  0.000  0.000  0.015  0.015
   22  0.000  0.000  0.019  0.019
   23  0.000  0.000  0.015  0.015
   24  0.001  0.000  0.029  0.031
   25  0.000  0.000  0.026  0.027
   26  0.000  0.000  0.022  0.023
   27  0.000  0.000  0.019  0.019
   28  0.000  0.000  0.029  0.029
   29  0.000  0.000  0.013  0.014
   30  0.010  0.001  0.009  0.020
   31  0.000  0.000  0.013  0.014
   32  0.009  0.001  0.019  0.029
   33  0.010  0.001  0.009  0.020
   34  0.010  0.001  0.019  0.029
   35  0.000  0.001  0.004  0.005
   36  0.000  0.001  0.011  0.012