PROCAR new format
# of k-points:   10         # of bands:  252         # of ions:   37

 k-point     1 :    0.00000000 0.00000000 0.00000000     weight = 0.01562500

band     1 # energy   -9.42988786 # occ.  2.00000000
 
ion      s      p      d    tot
    1  0.004  0.001  0.000  0.005
    2  0.004  0.001  0.000  0.005
    3  0.004  0.001  0.000  0.005
    4  0.004  0.001  0.000  0.005
    5  0.004  0.001  0.000  0.005
    6  0.004  0.001  0.000  0.005
    7  0.004  0.001  0.000  0.005
    8  0.004  0.001  0.000  0.005
    9  0.004  0.001  0.000  0.005
   10  0.018  0.000  0.000  0.018
   11  0.018  0.000  0.000  0.018
   12  0.018  0.000  0.000  0.018
   13  0.018  0.000  0.000  0.018
   14  0.018  0.000  0.000  0.018
   15  0.017  0.000  0.000  0.017
   16  0.018  0.000  0.000  0.018
   17  0.017  0.000  0.000  0.017
   18  0.017  0.000  0.000  0.017
   19  0.020  0.000  0.000  0.021
   20  0.025  0.000  0.000  0.025
   21  0.025  0.000  0.000  0.025
   22  0.020  0.000  0.000  0.020
   23  0.025  0.000  0.000  0.025
   24  0.020  0.000  0.000  0.020
   25  0.020  0.000  0.000  0.021
   26  0.020  0.000  0.000  0.021
   27  0.020  0.000  0.000  0.020
   28  0.007  0.001  0.000  0.007
   29  0.008  0.000  0.000  0.008
   30  0.008  0.000  0.000  0.008
   31  0.008  0.000  0.000  0.008
   32  0.008  0.000  0.000  0.008
   33  0.008  0.000  0.000  0.008
   34  0.008  0.000  0.000  0.008
   35  0.006  0.001  0.000  0.007
   36  0.042  0.004  0.028  0.073
   37  0.078  0.003  0.000  0.081
tot    0.575  0.018  0.029  0.622
 
band     2 # energy   -8.95421403 # occ.  2.00000000
 
ion      s      p      d    tot
    1  0.004  0.000  0.000  0.004
    2  0.004  0.000  0.000  0.004
    3  0.004  0.000  0.000  0.004
    4  0.004  0.000  0.000  0.004
    5  0.004  0.000  0.000  0.004
    6  0.004  0.000  0.000  0.004
    7  0.004  0.000  0.000  0.004
    8  0.004  0.000  0.000  0.004
    9  0.004  0.000  0.000  0.004
   10  0.009  0.000  0.000  0.009
   11  0.008  0.000  0.000  0.008
   12  0.009  0.000  0.000  0.009
   13  0.008  0.000  0.000  0.008
   14  0.008  0.000  0.000  0.008
   15  0.009  0.000  0.000  0.010
   16  0.009  0.000  0.000  0.009
   17  0.009  0.000  0.000  0.010
   18  0.009  0.000  0.000  0.010
   19  0.004  0.000  0.000  0.004
   20  0.000  0.002  0.001  0.003
   21  0.000  0.002  0.001  0.003
   22  0.003  0.000  0.000  0.004
   23  0.000  0.002  0.001  0.003
   24  0.003  0.000  0.000  0.004
   25  0.004  0.000  0.000  0.004
   26  0.004  0.000  0.000  0.004
   27  0.003  0.000  0.000  0.004
   28  0.000  0.000  0.000  0.000
   29  0.000  0.000  0.000  0.001
   30  0.000  0.000  0.000  0.001
   31  0.000  0.000  0.000  0.001
   32  0.000  0.000  0.000  0.001
   33  0.000  0.000  0.000  0.001
   34  0.000  0.000  0.000  0.001
   35  0.000  0.000  0.000  0.000
   36  0.062  0.041  0.130  0.233
   37  0.343  0.011  0.000  0.353
tot    0.541  0.064  0.135  0.741
 
band     3 # energy   -7.98112428 # occ.  2.00000000
 
ion      s      p      d    tot
    1  0.017  0.001  0.001  0.018
    2  0.017  0.001  0.001  0.018
    3  0.017  0.001  0.001  0.018
    4  0.017  0.001  0.001  0.018
    5  0.017  0.001  0.001  0.018
    6  0.017  0.001  0.001  0.018
    7  0.017  0.001  0.001  0.018
    8  0.017  0.001  0.001  0.018
    9  0.016  0.001  0.001  0.018
   10  0.008  0.002  0.000  0.011
   11  0.009  0.002  0.000  0.011
   12  0.008  0.002  0.000  0.011
   13  0.009  0.002  0.000  0.011
   14  0.009  0.002  0.000  0.011
   15  0.007  0.002  0.001  0.010
   16  0.008  0.002  0.000  0.011
   17  0.007  0.002  0.001  0.010
   18  0.007  0.002  0.001  0.010
   19  0.013  0.002  0.001  0.016
   20  0.007  0.002  0.001  0.010
   21  0.007  0.002  0.001  0.010
   22  0.013  0.002  0.001  0.015
   23  0.007  0.002  0.001  0.010
   24  0.013  0.002  0.001  0.015
   25  0.013  0.002  0.001  0.016
   26  0.013  0.002  0.001  0.016
   27  0.013  0.002  0.001  0.015
   28  0.021  0.001  0.000  0.023
   29  0.017  0.001  0.001  0.019
   30  0.017  0.001  0.001  0.019
   31  0.017  0.001  0.001  0.019
   32  0.017  0.001  0.001  0.019
   33  0.017  0.001  0.001  0.019
   34  0.017  0.001  0.001  0.019
   35  0.021  0.001  0.000  0.022
   36  0.002  0.008  0.024  0.034
   37  0.029  0.001  0.000  0.030
tot    0.496  0.061  0.045  0.602
 
band     4 # energy   -6.48911791 # occ.  2.00000000
 
ion      s      p      d    tot
    1  0.015  0.000  0.005  0.020
    2  0.014  0.000  0.005  0.019
    3  0.014  0.000  0.005  0.019
    4  0.014  0.000  0.005  0.019
    5  0.005  0.000  0.006  0.012
    6  0.014  0.000  0.005  0.019
    7  0.014  0.000  0.005  0.019
    8  0.014  0.000  0.005  0.019
    9  0.023  0.000  0.003  0.027
   10  0.002  0.003  0.002  0.008
   11  0.011  0.005  0.001  0.017
   12  0.002  0.003  0.002  0.008
   13  0.011  0.005  0.001  0.017
   14  0.011  0.005  0.001  0.017
   15  0.000  0.002  0.003  0.006
   16  0.002  0.003  0.002  0.008
   17  0.000  0.002  0.003  0.006
   18  0.000  0.002  0.003  0.006
   19  0.001  0.003  0.006  0.009
   20  0.021  0.004  0.004  0.029
   21  0.021  0.004  0.004  0.029
   22  0.000  0.004  0.004  0.008
   23  0.021  0.004  0.004  0.029
   24  0.000  0.004  0.004  0.008
   25  0.001  0.003  0.006  0.009
   26  0.001  0.003  0.006  0.009
   27  0.000  0.004  0.004  0.008
   28  0.021  0.000  0.005  0.027
   29  0.016  0.000  0.007  0.024
   30  0.016  0.000  0.007  0.024
   31  0.016  0.000  0.007  0.024
   32  0.016  0.000  0.007  0.024
   33  0.016  0.000  0.007  0.024
   34  0.016  0.000  0.007  0.024
   35  0.027  0.000  0.005  0.032
   36  0.002  0.002  0.023  0.027
   37  0.000  0.001  0.000  0.001
tot    0.381  0.071  0.183  0.635
 
band     5 # energy   -6.38775651 # occ.  2.00000000
 
ion      s      p      d    tot
    1  0.000  0.003  0.005  0.008
    2  0.009  0.002  0.002  0.013
    3  0.003  0.001  0.002  0.006
    4  0.009  0.002  0.002  0.013
    5  0.000  0.002  0.003  0.005
    6  0.002  0.001  0.002  0.005
    7  0.003  0.001  0.002  0.006
    8  0.002  0.001  0.002  0.005
    9  0.000  0.000  0.003  0.003
   10  0.058  0.004  0.004  0.066
   11  0.004  0.010  0.003  0.017
   12  0.015  0.003  0.011  0.029
   13  0.004  0.010  0.003  0.017
   14  0.018  0.000  0.006  0.024
   15  0.003  0.003  0.008  0.015
   16  0.014  0.003  0.011  0.029
   17  0.003  0.003  0.008  0.015
   18  0.011  0.003  0.003  0.017
   19  0.009  0.010  0.005  0.023
   20  0.061  0.004  0.005  0.070
   21  0.015  0.002  0.016  0.032
   22  0.000  0.006  0.006  0.013
   23  0.015  0.002  0.016  0.032
   24  0.002  0.002  0.004  0.008
   25  0.037  0.001  0.007  0.045
   26  0.009  0.010  0.005  0.023
   27  0.000  0.006  0.006  0.013
   28  0.000  0.003  0.004  0.008
   29  0.011  0.003  0.003  0.017
   30  0.006  0.002  0.003  0.011
   31  0.011  0.003  0.003  0.017
   32  0.001  0.001  0.003  0.005
   33  0.006  0.002  0.003  0.011
   34  0.000  0.001  0.003  0.005
   35  0.000  0.000  0.003  0.003
   36  0.000  0.003  0.014  0.017
   37  0.000  0.000  0.000  0.000
tot    0.344  0.113  0.189  0.646
 
band     6 # energy   -6.38764912 # occ.  2.00000000
 
ion      s      p      d    tot
    1  0.000  0.003  0.005  0.008
    2  0.000  0.001  0.002  0.003
    3  0.006  0.002  0.002  0.010
    4  0.000  0.001  0.002  0.003
    5  0.000  0.002  0.003  0.005
    6  0.007  0.002  0.002  0.011
    7  0.006  0.002  0.002  0.010
    8  0.007  0.002  0.002  0.011
    9  0.000  0.000  0.003  0.003
   10  0.000  0.003  0.013  0.016
   11  0.013  0.003  0.005  0.022
   12  0.044  0.004  0.006  0.054
   13  0.013  0.003  0.005  0.022
   14  0.000  0.013  0.002  0.015
   15  0.009  0.003  0.004  0.016
   16  0.044  0.004  0.006  0.054
   17  0.009  0.003  0.005  0.016
   18  0.000  0.003  0.010  0.014
   19  0.028  0.004  0.006  0.038
   20  0.000  0.001  0.019  0.020
   21  0.046  0.003  0.008  0.057
   22  0.001  0.003  0.005  0.010
   23  0.046  0.003  0.008  0.058
   24  0.000  0.008  0.007  0.015
   25  0.000  0.012  0.004  0.016
   26  0.028  0.004  0.006  0.038
   27  0.001  0.003  0.005  0.010
   28  0.000  0.003  0.004  0.008
   29  0.001  0.001  0.003  0.005
   30  0.005  0.002  0.004  0.011
   31  0.001  0.001  0.003  0.005
   32  0.011  0.003  0.003  0.017
   33  0.005  0.002  0.004  0.011
   34  0.011  0.003  0.003  0.017
   35  0.000  0.000  0.003  0.003
   36  0.000  0.003  0.014  0.017
   37  0.000  0.000  0.000  0.000
tot    0.344  0.113  0.189  0.646
 
band     7 # energy   -6.35152482 # occ.  2.00000000
 
ion      s      p      d    tot
    1  0.000  0.000  0.002  0.002
    2  0.009  0.002  0.002  0.014
    3  0.003  0.001  0.002  0.006
    4  0.009  0.002  0.002  0.014
    5  0.000  0.001  0.005  0.006
    6  0.002  0.001  0.002  0.005
    7  0.003  0.001  0.002  0.006
    8  0.002  0.001  0.002  0.005
    9  0.000  0.003  0.005  0.008
   10  0.000  0.010  0.004  0.014
   11  0.032  0.003  0.005  0.041
   12  0.000  0.003  0.005  0.008
   13  0.031  0.003  0.006  0.040
   14  0.000  0.000  0.016  0.016
   15  0.035  0.003  0.006  0.044
   16  0.000  0.003  0.005  0.008
   17  0.034  0.004  0.006  0.044
   18  0.000  0.009  0.007  0.016
   19  0.020  0.004  0.005  0.029
   20  0.000  0.014  0.001  0.015
   21  0.006  0.004  0.005  0.015
   22  0.046  0.004  0.006  0.056
   23  0.006  0.004  0.005  0.015
   24  0.000  0.006  0.011  0.017
   25  0.000  0.001  0.015  0.016
   26  0.020  0.004  0.005  0.029
   27  0.047  0.004  0.006  0.057
   28  0.000  0.001  0.005  0.006
   29  0.012  0.003  0.003  0.018
   30  0.005  0.002  0.004  0.010
   31  0.012  0.003  0.003  0.018
   32  0.002  0.001  0.003  0.006
   33  0.005  0.002  0.004  0.010
   34  0.002  0.001  0.003  0.006
   35  0.000  0.004  0.006  0.010
   36  0.000  0.002  0.007  0.009
   37  0.000  0.000  0.000  0.000
tot    0.343  0.116  0.180  0.639
 
band     8 # energy   -6.35143060 # occ.  2.00000000
 
ion      s      p      d    tot
    1  0.000  0.000  0.002  0.002
    2  0.000  0.001  0.002  0.003
    3  0.006  0.002  0.002  0.011
    4  0.000  0.001  0.002  0.003
    5  0.000  0.001  0.005  0.006
    6  0.008  0.002  0.002  0.012
    7  0.007  0.002  0.002  0.011
    8  0.008  0.002  0.002  0.012
    9  0.000  0.003  0.005  0.008
   10  0.000  0.001  0.005  0.006
   11  0.010  0.001  0.012  0.024
   12  0.000  0.007  0.004  0.012
   13  0.011  0.001  0.012  0.024
   14  0.042  0.005  0.002  0.048
   15  0.011  0.008  0.006  0.025
   16  0.000  0.008  0.004  0.012
   17  0.012  0.007  0.006  0.025
   18  0.046  0.002  0.006  0.054
   19  0.007  0.002  0.012  0.021
   20  0.008  0.000  0.007  0.015
   21  0.002  0.011  0.002  0.015
   22  0.016  0.005  0.009  0.031
   23  0.002  0.011  0.002  0.015
   24  0.062  0.003  0.005  0.069
   25  0.027  0.004  0.002  0.033
   26  0.007  0.002  0.012  0.021
   27  0.015  0.005  0.010  0.030
   28  0.000  0.001  0.005  0.006
   29  0.000  0.001  0.003  0.005
   30  0.008  0.002  0.003  0.012
   31  0.000  0.001  0.003  0.005
   32  0.011  0.003  0.003  0.017
   33  0.008  0.002  0.003  0.012
   34  0.011  0.003  0.003  0.017
   35  0.000  0.004  0.006  0.010
   36  0.000  0.002  0.007  0.009
   37  0.000  0.000  0.000  0.000
tot    0.343  0.116  0.180  0.639
 
band     9 # energy   -6.34700818 # occ.  2.00000000
 
ion      s      p      d    tot
    1  0.020  0.003  0.001  0.024
    2  0.000  0.002  0.004  0.006
    3  0.000  0.002  0.004  0.006
    4  0.000  0.002  0.004  0.006
    5  0.002  0.000  0.000  0.003
    6  0.000  0.002  0.004  0.006
    7  0.000  0.002  0.004  0.006
    8  0.000  0.002  0.004  0.006
    9  0.008  0.001  0.000  0.010
   10  0.030  0.006  0.005  0.041
   11  0.006  0.000  0.011  0.017
   12  0.030  0.006  0.005  0.041
   13  0.006  0.000  0.011  0.017
   14  0.006  0.000  0.011  0.018
   15  0.011  0.008  0.004  0.022
   16  0.030  0.006  0.005  0.041
   17  0.010  0.008  0.004  0.022
   18  0.010  0.008  0.004  0.021
   19  0.023  0.009  0.002  0.034
   20  0.000  0.003  0.011  0.013
   21  0.000  0.003  0.011  0.014
   22  0.024  0.002  0.009  0.035
   23  0.000  0.003  0.011  0.014
   24  0.025  0.002  0.009  0.036
   25  0.024  0.009  0.002  0.035
   26  0.023  0.009  0.002  0.034
   27  0.024  0.002  0.009  0.035
   28  0.020  0.003  0.000  0.023
   29  0.000  0.002  0.005  0.006
   30  0.000  0.002  0.005  0.006
   31  0.000  0.002  0.005  0.006
   32  0.000  0.002  0.005  0.006
   33  0.000  0.002  0.005  0.006
   34  0.000  0.002  0.005  0.006
   35  0.014  0.002  0.001  0.017
   36  0.000  0.000  0.000  0.000
   37  0.000  0.000  0.000  0.000
tot    0.344  0.114  0.181  0.639
 
band    10 # energy   -6.24253754 # occ.  2.00000000
 
ion      s      p      d    tot
    1  0.000  0.000  0.001  0.001
    2  0.002  0.002  0.006  0.010
    3  0.002  0.002  0.006  0.010
    4  0.002  0.002  0.006  0.010
    5  0.039  0.003  0.000  0.042
    6  0.002  0.002  0.006  0.010
    7  0.002  0.002  0.006  0.010
    8  0.002  0.002  0.006  0.010
    9  0.004  0.002  0.004  0.011
   10  0.003  0.004  0.009  0.016
   11  0.019  0.009  0.004  0.032
   12  0.003  0.004  0.009  0.016
   13  0.019  0.009  0.004  0.032
   14  0.019  0.009  0.004  0.032
   15  0.030  0.002  0.011  0.042
   16  0.003  0.004  0.009  0.016
   17  0.030  0.002  0.011  0.042
   18  0.030  0.002  0.011  0.042
   19  0.007  0.002  0.008  0.017
   20  0.016  0.004  0.008  0.027
   21  0.016  0.004  0.007  0.028
   22  0.009  0.007  0.004  0.019
   23  0.016  0.004  0.007  0.028
   24  0.009  0.007  0.004  0.019
   25  0.007  0.002  0.008  0.017
   26  0.007  0.002  0.008  0.017
   27  0.009  0.007  0.004  0.019
   28  0.001  0.000  0.003  0.005
   29  0.003  0.001  0.004  0.007
   30  0.003  0.001  0.004  0.007
   31  0.003  0.001  0.004  0.007
   32  0.003  0.001  0.004  0.007
   33  0.003  0.001  0.004  0.007
   34  0.003  0.001  0.004  0.007
   35  0.000  0.001  0.002  0.003
   36  0.011  0.005  0.004  0.020
   37  0.005  0.000  0.000  0.005
tot    0.341  0.109  0.204  0.654
 
band    11 # energy   -5.65088359 # occ.  2.00000000
 
ion      s      p      d    tot
    1  0.000  0.003  0.010  0.013
    2  0.018  0.003  0.005  0.026
    3  0.001  0.002  0.005  0.007
    4  0.018  0.003  0.005  0.026
    5  0.000  0.000  0.010  0.010
    6  0.010  0.003  0.005  0.018
    7  0.001  0.002  0.005  0.007
    8  0.010  0.003  0.005  0.018
    9  0.000  0.005  0.008  0.013
   10  0.000  0.005  0.016  0.020
   11  0.005  0.002  0.009  0.016
   12  0.005  0.002  0.009  0.016
   13  0.005  0.002  0.009  0.016
   14  0.000  0.002  0.015  0.017
   15  0.020  0.004  0.009  0.032
   16  0.005  0.002  0.009  0.016
   17  0.020  0.004  0.008  0.032
   18  0.000  0.001  0.021  0.022
   19  0.008  0.004  0.010  0.022
   20  0.000  0.003  0.021  0.023
   21  0.000  0.001  0.013  0.014
   22  0.008  0.003  0.009  0.020
   23  0.000  0.001  0.013  0.014
   24  0.000  0.001  0.029  0.030
   25  0.000  0.000  0.012  0.012
   26  0.008  0.004  0.010  0.022
   27  0.008  0.003  0.009  0.020
   28  0.000  0.004  0.009  0.012
   29  0.023  0.003  0.008  0.035
   30  0.001  0.002  0.009  0.012
   31  0.023  0.003  0.008  0.035
   32  0.016  0.002  0.009  0.027
   33  0.001  0.002  0.009  0.012
   34  0.016  0.002  0.009  0.027
   35  0.000  0.006  0.009  0.015
   36  0.000  0.000  0.028  0.029
   37  0.000  0.000  0.000  0.000
tot    0.230  0.092  0.383  0.705
 
band    12 # energy   -5.65084921 # occ.  2.00000000
 
ion      s      p      d    tot
    1  0.000  0.003  0.010  0.013
    2  0.002  0.002  0.005  0.008
    3  0.019  0.004  0.005  0.027
    4  0.002  0.002  0.005  0.008
    5  0.000  0.000  0.010  0.010
    6  0.009  0.002  0.005  0.016
    7  0.019  0.004  0.005  0.027
    8  0.009  0.002  0.005  0.016
    9  0.000  0.005  0.008  0.013
   10  0.007  0.001  0.006  0.014
   11  0.002  0.002  0.013  0.016
   12  0.002  0.004  0.013  0.019
   13  0.002  0.002  0.013  0.016
   14  0.007  0.002  0.007  0.015
   15  0.007  0.002  0.017  0.025
   16  0.002  0.004  0.013  0.019
   17  0.007  0.002  0.017  0.025
   18  0.027  0.004  0.004  0.036
   19  0.003  0.002  0.011  0.015
   20  0.000  0.000  0.011  0.011
   21  0.000  0.002  0.018  0.020
   22  0.003  0.002  0.022  0.027
   23  0.000  0.002  0.018  0.020
   24  0.011  0.004  0.003  0.017
   25  0.010  0.006  0.009  0.025
   26  0.003  0.002  0.011  0.015
   27  0.003  0.002  0.022  0.027
   28  0.000  0.004  0.009  0.012
   29  0.003  0.002  0.009  0.014
   30  0.026  0.003  0.008  0.037
   31  0.003  0.002  0.009  0.015
   32  0.010  0.003  0.009  0.022
   33  0.026  0.003  0.008  0.037
   34  0.010  0.003  0.009  0.022
   35  0.000  0.006  0.009  0.015
   36  0.000  0.000  0.028  0.029
   37  0.000  0.000  0.000  0.000
tot    0.230  0.092  0.383  0.705
 
band    13 # energy   -5.64259722 # occ.  2.00000000
 
ion      s      p      d    tot
    1  0.006  0.000  0.010  0.017
    2  0.006  0.001  0.010  0.016
    3  0.006  0.001  0.010  0.016
    4  0.006  0.001  0.010  0.016
    5  0.001  0.001  0.010  0.012
    6  0.006  0.001  0.010  0.016
    7  0.006  0.001  0.010  0.016
    8  0.006  0.001  0.010  0.016
    9  0.015  0.000  0.008  0.023
   10  0.008  0.000  0.025  0.033
   11  0.011  0.000  0.022  0.033
   12  0.008  0.000  0.025  0.033
   13  0.011  0.000  0.022  0.033
   14  0.011  0.000  0.022  0.033
   15  0.003  0.000  0.022  0.025
   16  0.008  0.000  0.025  0.033
   17  0.003  0.000  0.022  0.025
   18  0.003  0.000  0.022  0.025
   19  0.005  0.000  0.018  0.023
   20  0.009  0.001  0.027  0.037
   21  0.009  0.001  0.027  0.037
   22  0.003  0.000  0.019  0.022
   23  0.009  0.001  0.027  0.037
   24  0.003  0.000  0.019  0.022
   25  0.005  0.000  0.018  0.023
   26  0.005  0.000  0.018  0.023
   27  0.003  0.000  0.019  0.022
   28  0.002  0.000  0.006  0.009
   29  0.003  0.000  0.007  0.011
   30  0.003  0.000  0.007  0.011
   31  0.003  0.000  0.007  0.011
   32  0.003  0.000  0.007  0.011
   33  0.003  0.000  0.007  0.011
   34  0.003  0.000  0.007  0.011
   35  0.007  0.000  0.006  0.013
   36  0.000  0.002  0.013  0.016
   37  0.001  0.001  0.000  0.001
tot    0.204  0.016  0.557  0.777
 
band    14 # energy   -5.59869250 # occ.  2.00000000
 
ion      s      p      d    tot
    1  0.000  0.003  0.009  0.013
    2  0.021  0.004  0.005  0.030
    3  0.002  0.002  0.005  0.008
    4  0.020  0.004  0.005  0.030
    5  0.000  0.006  0.010  0.016
    6  0.010  0.003  0.006  0.019
    7  0.002  0.002  0.005  0.009
    8  0.011  0.003  0.006  0.019
    9  0.000  0.000  0.012  0.013
   10  0.019  0.005  0.008  0.032
   11  0.005  0.003  0.021  0.028
   12  0.005  0.001  0.017  0.023
   13  0.004  0.003  0.021  0.028
   14  0.018  0.003  0.005  0.027
   15  0.000  0.003  0.014  0.017
   16  0.005  0.001  0.017  0.023
   17  0.000  0.003  0.014  0.017
   18  0.000  0.000  0.009  0.009
   19  0.001  0.002  0.019  0.022
   20  0.020  0.006  0.005  0.030
   21  0.005  0.002  0.025  0.031
   22  0.001  0.002  0.012  0.015
   23  0.005  0.002  0.024  0.031
   24  0.006  0.003  0.010  0.019
   25  0.004  0.001  0.006  0.010
   26  0.001  0.002  0.019  0.023
   27  0.002  0.002  0.012  0.015
   28  0.000  0.003  0.012  0.014
   29  0.017  0.003  0.007  0.027
   30  0.001  0.001  0.005  0.007
   31  0.016  0.003  0.007  0.027
   32  0.010  0.003  0.007  0.019
   33  0.001  0.001  0.005  0.008
   34  0.010  0.003  0.007  0.020
   35  0.000  0.000  0.011  0.011
   36  0.000  0.007  0.014  0.021
   37  0.000  0.000  0.000  0.000
tot    0.220  0.094  0.397  0.711
 
band    15 # energy   -5.59863751 # occ.  2.00000000
 
ion      s      p      d    tot
    1  0.000  0.003  0.009  0.013
    2  0.001  0.002  0.005  0.008
    3  0.020  0.004  0.006  0.030
    4  0.001  0.002  0.005  0.009
    5  0.000  0.006  0.010  0.016
    6  0.012  0.003  0.005  0.020
    7  0.020  0.004  0.006  0.030
    8  0.011  0.003  0.005  0.019
    9  0.000  0.000  0.012  0.013
   10  0.000  0.000  0.020  0.020
   11  0.014  0.003  0.011  0.027
   12  0.015  0.004  0.011  0.029
   13  0.014  0.003  0.010  0.027
   14  0.000  0.003  0.026  0.029
   15  0.000  0.001  0.011  0.012
   16  0.014  0.004  0.011  0.029
   17  0.000  0.001  0.011  0.012
   18  0.000  0.004  0.016  0.020
   19  0.003  0.001  0.010  0.014
   20  0.000  0.001  0.031  0.032
   21  0.015  0.005  0.011  0.031
   22  0.004  0.002  0.011  0.017
   23  0.015  0.004  0.012  0.031
   24  0.000  0.001  0.012  0.013
   25  0.000  0.003  0.024  0.027
   26  0.003  0.001  0.010  0.014
   27  0.004  0.002  0.011  0.017
   28  0.000  0.003  0.012  0.014
   29  0.002  0.001  0.006  0.009
   30  0.017  0.004  0.007  0.028
   31  0.002  0.001  0.006  0.009
   32  0.008  0.002  0.006  0.017
   33  0.017  0.004  0.007  0.028
   34  0.008  0.002  0.006  0.016
   35  0.000  0.000  0.011  0.011
   36  0.000  0.007  0.014  0.021
   37  0.000  0.000  0.000  0.000
tot    0.220  0.094  0.397  0.711
 
band    16 # energy   -5.59719475 # occ.  2.00000000
 
ion      s      p      d    tot
    1  0.034  0.003  0.000  0.037
    2  0.000  0.003  0.010  0.013
    3  0.000  0.003  0.010  0.013
    4  0.000  0.003  0.010  0.013
    5  0.000  0.000  0.000  0.001
    6  0.000  0.003  0.010  0.013
    7  0.000  0.003  0.010  0.013
    8  0.000  0.003  0.010  0.013
    9  0.028  0.004  0.001  0.033
   10  0.009  0.003  0.010  0.022
   11  0.001  0.000  0.015  0.016
   12  0.009  0.003  0.010  0.022
   13  0.001  0.000  0.015  0.016
   14  0.001  0.000  0.015  0.016
   15  0.008  0.004  0.016  0.027
   16  0.008  0.003  0.010  0.022
   17  0.008  0.004  0.016  0.027
   18  0.008  0.004  0.016  0.027
   19  0.004  0.003  0.019  0.026
   20  0.000  0.000  0.015  0.015
   21  0.000  0.000  0.015  0.015
   22  0.011  0.003  0.009  0.024
   23  0.000  0.000  0.015  0.015
   24  0.011  0.003  0.009  0.024
   25  0.004  0.003  0.019  0.026
   26  0.004  0.003  0.019  0.026
   27  0.011  0.003  0.009  0.024
   28  0.038  0.003  0.000  0.041
   29  0.000  0.003  0.012  0.015
   30  0.000  0.003  0.012  0.015
   31  0.000  0.003  0.012  0.015
   32  0.000  0.003  0.012  0.015
   33  0.000  0.003  0.012  0.015
   34  0.000  0.003  0.012  0.015
   35  0.028  0.003  0.001  0.033
   36  0.000  0.000  0.000  0.000
   37  0.000  0.000  0.000  0.000
tot    0.227  0.091  0.386  0.704
 
band    17 # energy   -5.40164625 # occ.  2.00000000
 
ion      s      p      d    tot
    1  0.015  0.002  0.000  0.017
    2  0.000  0.003  0.012  0.015
    3  0.000  0.003  0.012  0.015
    4  0.000  0.003  0.012  0.015
    5  0.044  0.004  0.000  0.048
    6  0.000  0.003  0.012  0.015
    7  0.000  0.003  0.012  0.015
    8  0.000  0.003  0.012  0.015
    9  0.005  0.001  0.001  0.006
   10  0.001  0.001  0.028  0.030
   11  0.004  0.004  0.022  0.029
   12  0.001  0.001  0.028  0.030
   13  0.004  0.004  0.022  0.029
   14  0.004  0.004  0.022  0.029
   15  0.003  0.001  0.008  0.012
   16  0.001  0.001  0.028  0.030
   17  0.003  0.001  0.008  0.012
   18  0.003  0.001  0.008  0.012
   19  0.010  0.001  0.023  0.034
   20  0.012  0.003  0.005  0.020
   21  0.012  0.003  0.005  0.020
   22  0.002  0.002  0.018  0.022
   23  0.012  0.003  0.005  0.020
   24  0.002  0.002  0.018  0.022
   25  0.010  0.001  0.023  0.034
   26  0.010  0.001  0.023  0.034
   27  0.002  0.002  0.018  0.022
   28  0.002  0.002  0.006  0.009
   29  0.001  0.002  0.012  0.014
   30  0.001  0.002  0.012  0.014
   31  0.001  0.002  0.012  0.014
   32  0.001  0.002  0.012  0.014
   33  0.001  0.002  0.012  0.014
   34  0.001  0.002  0.012  0.014
   35  0.003  0.001  0.002  0.006
   36  0.025  0.009  0.003  0.037
   37  0.005  0.000  0.000  0.005
tot    0.201  0.083  0.466  0.750
 
band    18 # energy   -5.00402140 # occ.  2.00000000
 
ion      s      p      d    tot
    1  0.000  0.001  0.028  0.029
    2  0.015  0.001  0.008  0.024
    3  0.007  0.001  0.007  0.015
    4  0.015  0.001  0.008  0.024
    5  0.000  0.001  0.013  0.014
    6  0.002  0.001  0.008  0.010
    7  0.006  0.001  0.007  0.015
    8  0.002  0.001  0.008  0.010
    9  0.000  0.003  0.004  0.007
   10  0.000  0.000  0.060  0.060
   11  0.000  0.003  0.016  0.019
   12  0.000  0.000  0.019  0.019
   13  0.000  0.003  0.015  0.019
   14  0.000  0.000  0.006  0.006
   15  0.000  0.005  0.015  0.020
   16  0.000  0.000  0.018  0.019
   17  0.000  0.005  0.015  0.020
   18  0.000  0.000  0.027  0.028
   19  0.004  0.003  0.013  0.020
   20  0.000  0.000  0.065  0.065
   21  0.000  0.000  0.027  0.027
   22  0.003  0.002  0.016  0.020
   23  0.000  0.000  0.026  0.026
   24  0.000  0.000  0.018  0.018
   25  0.000  0.000  0.018  0.018
   26  0.004  0.003  0.013  0.020
   27  0.003  0.002  0.016  0.020
   28  0.000  0.001  0.006  0.007
   29  0.009  0.000  0.020  0.029
   30  0.000  0.001  0.016  0.017
   31  0.009  0.000  0.020  0.029
   32  0.011  0.000  0.018  0.030
   33  0.000  0.001  0.016  0.017
   34  0.011  0.000  0.018  0.029
   35  0.000  0.001  0.010  0.011
   36  0.000  0.000  0.046  0.046
   37  0.000  0.000  0.000  0.000
tot    0.101  0.045  0.664  0.809
 
band    19 # energy   -5.00395424 # occ.  2.00000000
 
ion      s      p      d    tot
    1  0.000  0.001  0.028  0.029
    2  0.000  0.001  0.008  0.009
    3  0.009  0.001  0.008  0.018
    4  0.001  0.001  0.008  0.009
    5  0.000  0.001  0.013  0.014
    6  0.014  0.001  0.008  0.023
    7  0.009  0.001  0.008  0.018
    8  0.014  0.001  0.008  0.023
    9  0.000  0.003  0.004  0.007
   10  0.000  0.000  0.005  0.005
   11  0.000  0.001  0.009  0.010
   12  0.000  0.000  0.046  0.046
   13  0.000  0.001  0.009  0.010
   14  0.000  0.004  0.019  0.023
   15  0.000  0.002  0.023  0.025
   16  0.000  0.000  0.046  0.046
   17  0.000  0.002  0.023  0.025
   18  0.000  0.006  0.011  0.018
   19  0.001  0.001  0.016  0.019
   20  0.000  0.000  0.014  0.014
   21  0.000  0.000  0.052  0.052
   22  0.001  0.001  0.017  0.019
   23  0.000  0.000  0.052  0.052
   24  0.004  0.002  0.015  0.021
   25  0.005  0.004  0.012  0.021
   26  0.001  0.001  0.016  0.019
   27  0.001  0.001  0.017  0.019
   28  0.000  0.001  0.006  0.007
   29  0.005  0.001  0.016  0.021
   30  0.013  0.000  0.020  0.034
   31  0.005  0.001  0.016  0.021
   32  0.002  0.001  0.018  0.021
   33  0.013  0.000  0.020  0.034
   34  0.002  0.001  0.019  0.021
   35  0.000  0.001  0.010  0.011
   36  0.000  0.000  0.046  0.046
   37  0.000  0.000  0.000  0.000
tot    0.101  0.045  0.664  0.809
 
band    20 # energy   -4.91620460 # occ.  2.00000000
 
ion      s      p      d    tot
    1  0.001  0.000  0.001  0.002
    2  0.000  0.001  0.016  0.017
    3  0.000  0.001  0.016  0.017
    4  0.000  0.001  0.016  0.017
    5  0.014  0.001  0.000  0.015
    6  0.000  0.001  0.016  0.017
    7  0.000  0.001  0.016  0.017
    8  0.000  0.001  0.016  0.017
    9  0.025  0.001  0.001  0.027
   10  0.000  0.001  0.006  0.008
   11  0.000  0.001  0.021  0.021
   12  0.000  0.001  0.006  0.008
   13  0.000  0.001  0.021  0.021
   14  0.000  0.001  0.021  0.021
   15  0.000  0.003  0.034  0.038
   16  0.000  0.001  0.006  0.008
   17  0.000  0.003  0.034  0.038
   18  0.000  0.003  0.034  0.038
   19  0.000  0.001  0.021  0.023
   20  0.000  0.001  0.014  0.015
   21  0.000  0.001  0.014  0.015
   22  0.001  0.003  0.036  0.040
   23  0.000  0.001  0.014  0.015
   24  0.001  0.003  0.036  0.040
   25  0.000  0.001  0.021  0.023
   26  0.000  0.001  0.021  0.023
   27  0.001  0.003  0.036  0.040
   28  0.019  0.000  0.001  0.020
   29  0.000  0.001  0.027  0.028
   30  0.000  0.001  0.027  0.028
   31  0.000  0.001  0.027  0.028
   32  0.000  0.001  0.027  0.028
   33  0.000  0.001  0.027  0.028
   34  0.000  0.001  0.027  0.028
   35  0.029  0.001  0.005  0.034
   36  0.000  0.000  0.001  0.002
   37  0.000  0.000  0.000  0.000
tot    0.096  0.048  0.660  0.804
 
band    21 # energy   -4.90330363 # occ.  2.00000000
 
ion      s      p      d    tot
    1  0.000  0.002  0.002  0.004
    2  0.014  0.001  0.009  0.024
    3  0.007  0.001  0.008  0.016
    4  0.014  0.001  0.009  0.024
    5  0.000  0.002  0.018  0.020
    6  0.001  0.001  0.009  0.011
    7  0.007  0.001  0.008  0.016
    8  0.001  0.001  0.009  0.011
    9  0.000  0.000  0.030  0.030
   10  0.001  0.007  0.021  0.028
   11  0.000  0.001  0.038  0.039
   12  0.000  0.002  0.009  0.011
   13  0.000  0.001  0.039  0.039
   14  0.001  0.003  0.004  0.007
   15  0.000  0.000  0.029  0.030
   16  0.000  0.002  0.009  0.011
   17  0.000  0.000  0.029  0.030
   18  0.000  0.001  0.010  0.011
   19  0.000  0.000  0.044  0.044
   20  0.002  0.006  0.023  0.031
   21  0.001  0.002  0.016  0.018
   22  0.000  0.001  0.023  0.024
   23  0.001  0.002  0.016  0.019
   24  0.000  0.003  0.015  0.018
   25  0.000  0.001  0.003  0.005
   26  0.000  0.000  0.044  0.045
   27  0.000  0.001  0.023  0.024
   28  0.000  0.001  0.037  0.039
   29  0.012  0.001  0.014  0.028
   30  0.000  0.001  0.012  0.013
   31  0.012  0.001  0.014  0.028
   32  0.012  0.001  0.013  0.026
   33  0.000  0.001  0.012  0.013
   34  0.012  0.001  0.013  0.026
   35  0.000  0.000  0.033  0.033
   36  0.000  0.003  0.000  0.004