 vasp.6.2.0 18Jan21 (build Jun 12 2021 23:27:24) complex                        
  
 executed on             LinuxIFC date 2022.05.30  17:20:47
 running on   28 total cores
 distrk:  each k-point on   28 cores,    1 groups
 distr:  one band on NCORE=   1 cores,   28 groups


--------------------------------------------------------------------------------------------------------


 INCAR:
   ISMEAR = -5
   SIGMA = 0.1
   ISPIN = 1
   EDIFF = 1.d-5
   EDIFFG = -0.01
   NSW = 0
   NELM = 150
   ENCUT = 500
   ISIF = 2
   IBRION = 2
   LREAL = Auto
   ALGO = Fast
   ICHARG = 11
   LORBIT = 10
   LCHARG = .F.
   LWAVE = .F.

 POTCAR:    PAW_PBE Ag 02Apr2005                  
 POTCAR:    PAW_PBE Ru 04Feb2005                  
 POTCAR:    PAW_PBE C 08Apr2002                   
 -----------------------------------------------------------------------------
|                                                                             |
|           W    W    AA    RRRRR   N    N  II  N    N   GGGG   !!!           |
|           W    W   A  A   R    R  NN   N  II  NN   N  G    G  !!!           |
|           W    W  A    A  R    R  N N  N  II  N N  N  G       !!!           |
|           W WW W  AAAAAA  RRRRR   N  N N  II  N  N N  G  GGG   !            |
|           WW  WW  A    A  R   R   N   NN  II  N   NN  G    G                |
|           W    W  A    A  R    R  N    N  II  N    N   GGGG   !!!           |
|                                                                             |
|     For optimal performance we recommend to set                             |
|       NCORE = 2 up to number-of-cores-per-socket                            |
|     NCORE specifies how many cores store one orbital (NPAR=cpu/NCORE).      |
|     This setting can greatly improve the performance of VASP for DFT.       |
|     The default, NCORE=1 might be grossly inefficient on modern             |
|     multi-core architectures or massively parallel machines. Do your        |
|     own testing! More info at https://www.vasp.at/wiki/index.php/NCORE      |
|     Unfortunately you need to use the default for GW and RPA                |
|     calculations (for HF NCORE is supported but not extensively tested      |
|     yet).                                                                   |
|                                                                             |
 -----------------------------------------------------------------------------

 POTCAR:    PAW_PBE Ag 02Apr2005                  
   VRHFIN =Ag : s1 d10                                                                              
   LEXCH  = PE                                                                                      
   EATOM  =  1037.2675 eV,   76.2370 Ry                                                             
                                                                                                    
   TITEL  = PAW_PBE Ag 02Apr2005                                                                    
   LULTRA =        F    use ultrasoft PP ?                                                          
   IUNSCR =        1    unscreen: 0-lin 1-nonlin 2-no                                               
   RPACOR =    2.000    partial core radius                                                         
   POMASS =  107.868; ZVAL   =   11.000    mass and valenz                                          
   RCORE  =    2.500    outmost cutoff radius                                                       
   RWIGS  =    2.840; RWIGS  =    1.503    wigner-seitz radius (au A)                               
   ENMAX  =  249.844; ENMIN  =  187.383 eV                                                          
   ICORE  =        3    local potential                                                             
   LCOR   =        T    correct aug charges                                                         
   LPAW   =        T    paw PP                                                                      
   EAUG   =  412.496                                                                                
   DEXC   =    0.000                                                                                
   RMAX   =    2.560    core radius for proj-oper                                                   
   RAUG   =    1.300    factor for augmentation sphere                                              
   RDEP   =    2.576    radius for radial grids                                                     
   RDEPT  =    2.072    core radius for aug-charge                                                  
                                                                                                    
   Atomic configuration                                                                             
   12 entries                                                                                       
     n  l   j            E        occ.                                                              
     1  0  0.50    -25324.9161   2.0000                                                             
     2  0  0.50     -3728.5341   2.0000                                                             
     2  1  1.50     -3344.0404   6.0000                                                             
     3  0  0.50      -683.5581   2.0000                                                             
     3  1  1.50      -557.3225   6.0000                                                             
     3  2  2.50      -358.3853  10.0000                                                             
     4  0  0.50       -95.0341   2.0000                                                             
     4  1  1.50       -58.5511   6.0000                                                             
     4  2  2.50        -7.4440  10.0000                                                             
     5  0  0.50        -4.4045   1.0000                                                             
     5  1  0.50        -1.3606   0.0000                                                             
     4  3  2.50        -1.3606   0.0000                                                             
   Description                                                                                      
     l       E           TYP  RCUT    TYP  RCUT                                                     
     2     -7.4439781     23  2.400                                                                 
     2     -8.8045607     23  2.400                                                                 
     0     -4.4044681     23  2.400                                                                 
     0      1.9520038     23  2.400                                                                 
     1     -1.3605826     23  2.500                                                                 
     1     27.2116520     23  2.500                                                                 
     3     -4.0817478     23  2.400                                                                 
  local pseudopotential read in
  partial core-charges read in
  partial kinetic energy density read in
  atomic valenz-charges read in
  non local Contribution for L=           2  read in
    real space projection operators read in
  non local Contribution for L=           2  read in
    real space projection operators read in
  non local Contribution for L=           0  read in
    real space projection operators read in
  non local Contribution for L=           0  read in
    real space projection operators read in
  non local Contribution for L=           1  read in
    real space projection operators read in
  non local Contribution for L=           1  read in
    real space projection operators read in
    PAW grid and wavefunctions read in
 
   number of l-projection  operators is LMAX  =           6
   number of lm-projection operators is LMMAX =          18
 
 POTCAR:    PAW_PBE Ru 04Feb2005                  
   VRHFIN =Ru: s1 d7                                                                                
   LEXCH  = PE                                                                                      
   EATOM  =   454.8837 eV,   33.4330 Ry                                                             
                                                                                                    
   TITEL  = PAW_PBE Ru 04Feb2005                                                                    
   LULTRA =        F    use ultrasoft PP ?                                                          
   IUNSCR =        1    unscreen: 0-lin 1-nonlin 2-no                                               
   RPACOR =    2.170    partial core radius                                                         
   POMASS =  101.070; ZVAL   =    8.000    mass and valenz                                          
   RCORE  =    2.700    outmost cutoff radius                                                       
   RWIGS  =    2.650; RWIGS  =    1.402    wigner-seitz radius (au A)                               
   ENMAX  =  213.271; ENMIN  =  159.953 eV                                                          
   ICORE  =        3    local potential                                                             
   LCOR   =        T    correct aug charges                                                         
   LPAW   =        T    paw PP                                                                      
   EAUG   =  333.494                                                                                
   DEXC   =    0.000                                                                                
   RMAX   =    2.758    core radius for proj-oper                                                   
   RAUG   =    1.300    factor for augmentation sphere                                              
   RDEP   =    2.865    radius for radial grids                                                     
   RDEPT  =    2.250    core radius for aug-charge                                                  
                                                                                                    
   Atomic configuration                                                                             
   12 entries                                                                                       
     n  l   j            E        occ.                                                              
     1  0  0.50    -21933.2693   2.0000                                                             
     2  0  0.50     -3153.4097   2.0000                                                             
     2  1  1.50     -2823.9548   6.0000                                                             
     3  0  0.50      -555.3323   2.0000                                                             
     3  1  1.50      -447.1024   6.0000                                                             
     3  2  2.50      -273.0570  10.0000                                                             
     4  0  0.50       -76.3589   2.0000                                                             
     4  1  1.50       -46.4050   6.0000                                                             
     4  2  2.50        -5.2029   7.0000                                                             
     5  0  0.50        -4.2392   1.0000                                                             
     5  1  0.50        -1.3606   0.0000                                                             
     4  3  2.50        -1.3606   0.0000                                                             
   Description                                                                                      
     l       E           TYP  RCUT    TYP  RCUT                                                     
     2     -5.2028939     23  2.600                                                                 
     2     -6.5634765     23  2.600                                                                 
     0     -4.2392259     23  2.700                                                                 
     0     27.2116520     23  2.700                                                                 
     1     -4.0817478     23  2.700                                                                 
     1     27.2116520     23  2.700                                                                 
     3     -5.4423304     23  2.600                                                                 
  local pseudopotential read in
  partial core-charges read in
  partial kinetic energy density read in
  atomic valenz-charges read in
  non local Contribution for L=           2  read in
    real space projection operators read in
  non local Contribution for L=           2  read in
    real space projection operators read in
  non local Contribution for L=           0  read in
    real space projection operators read in
  non local Contribution for L=           0  read in
    real space projection operators read in
  non local Contribution for L=           1  read in
    real space projection operators read in
  non local Contribution for L=           1  read in
    real space projection operators read in
    PAW grid and wavefunctions read in
 
   number of l-projection  operators is LMAX  =           6
   number of lm-projection operators is LMMAX =          18
 
 POTCAR:    PAW_PBE C 08Apr2002                   
   VRHFIN =C: s2p2                                                                                  
   LEXCH  = PE                                                                                      
   EATOM  =   147.1560 eV,   10.8157 Ry                                                             
                                                                                                    
   TITEL  = PAW_PBE C 08Apr2002                                                                     
   LULTRA =        F    use ultrasoft PP ?                                                          
   IUNSCR =        1    unscreen: 0-lin 1-nonlin 2-no                                               
   RPACOR =    1.200    partial core radius                                                         
   POMASS =   12.011; ZVAL   =    4.000    mass and valenz                                          
   RCORE  =    1.500    outmost cutoff radius                                                       
   RWIGS  =    1.630; RWIGS  =    0.863    wigner-seitz radius (au A)                               
   ENMAX  =  400.000; ENMIN  =  300.000 eV                                                          
   ICORE  =        2    local potential                                                             
   LCOR   =        T    correct aug charges                                                         
   LPAW   =        T    paw PP                                                                      
   EAUG   =  644.873                                                                                
   DEXC   =    0.000                                                                                
   RMAX   =    1.529    core radius for proj-oper                                                   
   RAUG   =    1.300    factor for augmentation sphere                                              
   RDEP   =    1.501    radius for radial grids                                                     
   RDEPT  =    1.300    core radius for aug-charge                                                  
                                                                                                    
   Atomic configuration                                                                             
    4 entries                                                                                       
     n  l   j            E        occ.                                                              
     1  0  0.50      -273.3789   2.0000                                                             
     2  0  0.50       -13.7508   2.0000                                                             
     2  1  0.50        -5.2854   2.0000                                                             
     3  2  1.50        -5.4423   0.0000                                                             
   Description                                                                                      
     l       E           TYP  RCUT    TYP  RCUT                                                     
     0    -13.7508458     23  1.200                                                                 
     0     -8.2022199     23  1.200                                                                 
     1     -5.2854383     23  1.500                                                                 
     1     34.0145650     23  1.500                                                                 
     2     -5.4423304      7  1.500                                                                 
  local pseudopotential read in
  partial core-charges read in
  partial kinetic energy density read in
  atomic valenz-charges read in
  non local Contribution for L=           0  read in
    real space projection operators read in
  non local Contribution for L=           0  read in
    real space projection operators read in
  non local Contribution for L=           1  read in
    real space projection operators read in
  non local Contribution for L=           1  read in
    real space projection operators read in
    PAW grid and wavefunctions read in
 
   number of l-projection  operators is LMAX  =           4
   number of lm-projection operators is LMMAX =           8
 
 Optimization of the real space projectors (new method)

 maximal supplied QI-value         = 15.12
 optimisation between [QCUT,QGAM] = [ 11.34, 22.83] = [ 36.00,145.93] Ry 
 Optimized for a Real-space Cutoff    1.43 Angstroem

   l    n(q)    QCUT    max X(q) W(low)/X(q) W(high)/X(q)  e(spline) 
   2      9    11.338    53.897    0.16E-03    0.20E-03    0.28E-06
   2      9    11.338    52.416    0.16E-03    0.20E-03    0.29E-06
   0     10    11.338   122.045    0.31E-04    0.76E-04    0.15E-06
   0     10    11.338    73.629    0.30E-04    0.72E-04    0.15E-06
   1      9    11.338    15.255    0.20E-03    0.19E-04    0.17E-06
   1      9    11.338     9.562    0.16E-03    0.15E-04    0.14E-06
 Optimization of the real space projectors (new method)

 maximal supplied QI-value         = 13.98
 optimisation between [QCUT,QGAM] = [ 11.33, 22.79] = [ 35.93,145.49] Ry 
 Optimized for a Real-space Cutoff    1.52 Angstroem

   l    n(q)    QCUT    max X(q) W(low)/X(q) W(high)/X(q)  e(spline) 
   2      9    11.327    61.733    0.26E-03    0.14E-03    0.16E-06
   2      9    11.327    59.886    0.26E-03    0.14E-03    0.17E-06
   0     10    11.327    23.358    0.19E-03    0.14E-04    0.46E-06
   0     10    11.327    11.320    0.15E-03    0.11E-04    0.37E-06
   1     10    11.327    14.765    0.49E-04    0.26E-03    0.24E-06
   1     10    11.327     8.283    0.37E-04    0.20E-03    0.18E-06
 Optimization of the real space projectors (new method)

 maximal supplied QI-value         = 25.13
 optimisation between [QCUT,QGAM] = [ 11.31, 22.87] = [ 35.82,146.48] Ry 
 Optimized for a Real-space Cutoff    1.00 Angstroem

   l    n(q)    QCUT    max X(q) W(low)/X(q) W(high)/X(q)  e(spline) 
   0      7    11.310   115.676    0.43E-03    0.13E-02    0.19E-06
   0      7    11.310    87.132    0.43E-03    0.13E-02    0.18E-06
   1      6    11.310     4.429    0.42E-03    0.74E-03    0.11E-06
   1      6    11.310     2.733    0.34E-03    0.55E-03    0.92E-07
  PAW_PBE Ag 02Apr2005                  :
 energy of atom  1       EATOM=-1037.2675
 kinetic energy error for atom=    0.0052 (will be added to EATOM!!)
  PAW_PBE Ru 04Feb2005                  :
 energy of atom  2       EATOM= -454.8837
 kinetic energy error for atom=    0.0015 (will be added to EATOM!!)
  PAW_PBE C 08Apr2002                   :
 energy of atom  3       EATOM= -147.1560
 kinetic energy error for atom=    0.0076 (will be added to EATOM!!)
 
 
 POSCAR: Ag-Ru-C
  positions in direct lattice
  velocities in cartesian coordinates
 exchange correlation table for  LEXCH =        8
   RHO(1)=    0.500       N(1)  =     2000
   RHO(2)=  100.500       N(2)  =     4000

 VTST: version 3.2, (02/03/18)

 CHAIN: initializing optimizer
 
 OPT: Using VASP Conjugate-Gradient optimizer
 CHAIN: Read ICHAIN            0
 
 POSCAR: Ag-Ru-C
  positions in direct lattice
  velocities in cartesian coordinates
 


--------------------------------------------------------------------------------------------------------


 ion  position               nearest neighbor table
   1  0.000  0.000  0.217-   2 2.93   8 2.93   7 2.93   6 2.93   4 2.93  12 2.93  16 2.93  10 2.93
                             3 2.93
   2  0.333  0.000  0.217-   1 2.93   8 2.93   9 2.93   3 2.93   4 2.93   5 2.93  10 2.93  17 2.93
                            11 2.93
   3  0.667  0.000  0.217-   9 2.93   2 2.93   5 2.93  11 2.93   7 2.93  18 2.93   1 2.93   6 2.93
                            12 2.93
   4  0.000  0.333  0.217-   5 2.93   6 2.93   2 2.93   1 2.93   7 2.93  13 2.93  15 2.93   9 2.93
                            10 2.93
   5  0.333  0.333  0.217-   4 2.93   3 2.93   7 2.93   2 2.93   8 2.93  14 2.93  13 2.93  11 2.93
                             6 2.93
   6  0.667  0.333  0.217-   4 2.93   9 2.93   1 2.93  15 2.93   8 2.93  12 2.93   3 2.93   5 2.93
                            14 2.93
   7  0.000  0.667  0.217-   8 2.93   1 2.93   5 2.93   3 2.93   4 2.93  16 2.93  18 2.93  13 2.93
                             9 2.93
   8  0.333  0.667  0.217-   7 2.93   1 2.93   2 2.93   9 2.93   5 2.93  16 2.93   6 2.93  17 2.93
                            14 2.93
   9  0.667  0.667  0.217-   3 2.93   2 2.93   8 2.93   6 2.93  17 2.93   4 2.93  15 2.93   7 2.93
                            18 2.93
  10  0.111  0.111  0.315-  20 2.90  19 2.93  26 2.93  12 2.93  16 2.93  15 2.93  17 2.93  13 2.93
                            11 2.93   2 2.93   1 2.93   4 2.93
  11  0.444  0.111  0.315-  21 2.90  20 2.90  27 2.92  14 2.93  17 2.93  18 2.93   3 2.93  12 2.93
                            13 2.93  10 2.93   5 2.93   2 2.93
  12  0.778  0.111  0.315-  21 2.90  25 2.93  19 2.93  10 2.93  16 2.93  18 2.93  15 2.93  11 2.93
                             1 2.93  14 2.93   6 2.93   3 2.93
  13  0.111  0.444  0.315-  20 2.90  23 2.90  22 2.92  15 2.93  14 2.93  18 2.93  10 2.93  11 2.93
                            16 2.93   4 2.93   5 2.93   7 2.93
  14  0.444  0.444  0.315-  23 2.90  21 2.90  24 2.92  13 2.93  11 2.93  16 2.93   5 2.93  12 2.93
                            17 2.93   8 2.93  15 2.93   6 2.93
  15  0.778  0.444  0.315-  24 2.92  22 2.92  19 2.93  13 2.93  10 2.93  12 2.93  17 2.93  18 2.93
                             4 2.93   6 2.93   9 2.93  14 2.93
  16  0.111  0.778  0.315-  23 2.90  26 2.93  25 2.93  18 2.93  12 2.93  10 2.93  14 2.93  17 2.93
                            13 2.93   7 2.93   8 2.93   1 2.93
  17  0.444  0.778  0.315-  27 2.92  24 2.92  26 2.93  11 2.93  10 2.93   9 2.93  18 2.93  15 2.93
                            16 2.93   2 2.93  14 2.93   8 2.93
  18  0.778  0.778  0.315-  22 2.92  27 2.92  25 2.93  16 2.93  12 2.93  13 2.93  11 2.93  17 2.93
                            15 2.93   7 2.93   3 2.93   9 2.93
  19  0.889  0.223  0.413-  28 2.91  15 2.93  10 2.93  12 2.93  24 2.93  22 2.93  26 2.93  25 2.93
                            20 2.94  21 2.94  32 2.94  31 2.94
  20  0.223  0.223  0.412-  36 2.77  13 2.90  11 2.90  10 2.90  21 2.92  23 2.92  31 2.92  29 2.92
                            27 2.93  22 2.93  19 2.94  26 2.94
  21  0.555  0.223  0.412-  36 2.77  11 2.90  14 2.90  12 2.90  20 2.92  23 2.92  30 2.92  32 2.92
                            27 2.93  24 2.93  25 2.94  19 2.94
  22  0.888  0.556  0.413-  35 2.91  18 2.92  15 2.92  13 2.92  33 2.92  31 2.92  24 2.92  27 2.92
                            25 2.93  19 2.93  23 2.93  20 2.93
  23  0.223  0.555  0.412-  36 2.77  14 2.90  13 2.90  16 2.90  21 2.92  20 2.92  34 2.92  33 2.92
                            22 2.93  24 2.93  26 2.94  25 2.94
  24  0.556  0.556  0.413-  35 2.91  15 2.92  17 2.92  14 2.92  32 2.92  34 2.92  27 2.92  22 2.92
                            19 2.93  26 2.93  23 2.93  21 2.93
  25  0.889  0.889  0.413-  28 2.91  18 2.93  16 2.93  12 2.93  22 2.93  27 2.93  26 2.93  19 2.93
                            23 2.94  21 2.94  33 2.94  30 2.94
  26  0.223  0.889  0.413-  28 2.91  17 2.93  16 2.93  10 2.93  27 2.93  24 2.93  25 2.93  19 2.93
                            23 2.94  20 2.94  34 2.94  29 2.94
  27  0.556  0.888  0.413-  35 2.91  17 2.92  18 2.92  11 2.92  29 2.92  30 2.92  24 2.92  22 2.92
                            26 2.93  25 2.93  20 2.93  21 2.93
  28  0.000  0.000  0.510-  26 2.91  25 2.91  19 2.91  29 2.95  34 2.95  33 2.95  32 2.95  31 2.95
                            30 2.95
  29  0.333  0.006  0.511-  31 2.88  30 2.88  36 2.89  20 2.92  27 2.92  26 2.94  28 2.95  35 2.96
                            34 3.03
  30  0.661  0.006  0.511-  32 2.88  29 2.88  36 2.89  21 2.92  27 2.92  25 2.94  28 2.95  35 2.96
                            33 3.03
  31  0.006  0.333  0.511-  29 2.88  33 2.88  36 2.89  20 2.92  22 2.92  19 2.94  28 2.95  35 2.96
                            32 3.03
  32  0.661  0.333  0.511-  30 2.88  34 2.88  36 2.89  21 2.92  24 2.92  19 2.94  28 2.95  35 2.96
                            31 3.03
  33  0.006  0.661  0.511-  34 2.88  31 2.88  36 2.89  23 2.92  22 2.92  25 2.94  28 2.95  35 2.96
                            30 3.03
  34  0.333  0.661  0.511-  33 2.88  32 2.88  36 2.89  23 2.92  24 2.92  26 2.94  28 2.95  35 2.96
                            29 3.03
  35  0.667  0.667  0.510-  24 2.91  27 2.91  22 2.91  30 2.96  32 2.96  29 2.96  34 2.96  31 2.96
                            33 2.96
  36  0.333  0.333  0.502-  37 1.68  21 2.77  20 2.77  23 2.77  31 2.89  30 2.89  33 2.89  29 2.89
                            34 2.89  32 2.89
  37  0.333  0.333  0.571-  36 1.68
 
  LATTYP: Found a hexagonal cell.
 ALAT       =     8.7913665772
 C/A-ratio  =     2.7711238095
  
  Lattice vectors:
  
 A1 = (  -4.3956832886,  -7.6135467898,   0.0000000000)
 A2 = (   8.7913665771,   0.0000000000,   0.0000000000)
 A3 = (   0.0000000000,   0.0000000000,  24.3619652401)


Analysis of symmetry for initial positions (statically):
=====================================================================
 Subroutine PRICEL returns:
 Original cell was already a primitive cell.
 

 Routine SETGRP: Setting up the symmetry group for a 
 hexagonal supercell.


 Subroutine GETGRP returns: Found  6 space group operations
 (whereof  6 operations were pure point group operations)
 out of a pool of 24 trial point group operations.


The static configuration has the point symmetry C_3v.


Analysis of symmetry for dynamics (positions and initial velocities):
=====================================================================
 Subroutine PRICEL returns:
 Original cell was already a primitive cell.
 

 Routine SETGRP: Setting up the symmetry group for a 
 hexagonal supercell.


 Subroutine GETGRP returns: Found  6 space group operations
 (whereof  6 operations were pure point group operations)
 out of a pool of 24 trial point group operations.


The dynamic configuration has the point symmetry C_3v.


Analysis of constrained symmetry for selective dynamics:
=====================================================================
 Subroutine PRICEL returns:
 Original cell was already a primitive cell.
 

 Routine SETGRP: Setting up the symmetry group for a 
 hexagonal supercell.


 Subroutine GETGRP returns: Found  6 space group operations
 (whereof  6 operations were pure point group operations)
 out of a pool of 24 trial point group operations.


The constrained configuration has the point symmetry C_3v.


 Subroutine INISYM returns: Found  6 space group operations
 (whereof  6 operations are pure point group operations),
 and found     1 'primitive' translations


----------------------------------------------------------------------------------------

                                     Primitive cell                                     

  volume of cell :    1630.6311

  direct lattice vectors                    reciprocal lattice vectors
     8.791366577  0.000000000  0.000000000     0.113747958 -0.065672414  0.000000000
     4.395683289  7.613546790  0.000000000     0.000000000  0.131344829  0.000000000
     0.000000000  0.000000000 24.361965240     0.000000000  0.000000000  0.041047592

  length of vectors
     8.791366577  8.791366577 24.361965240     0.131344829  0.131344829  0.041047592

  position of ions in fractional coordinates (direct lattice)
     0.000000000  0.000000000  0.216821102
     0.333333313  0.000000000  0.216821102
     0.666666627  0.000000000  0.216821102
     1.000000000  0.333333343  0.216821102
     0.333333313  0.333333343  0.216821102
     0.666666687  0.333333343  0.216821102
     1.000000000  0.666666687  0.216821102
     0.333333313  0.666666687  0.216821102
     0.666666627  0.666666687  0.216821102
     0.111111104  0.111111112  0.315035970
     0.444444448  0.111111112  0.315035970
     0.777777791  0.111111112  0.315035970
     0.111111097  0.444444448  0.315035970
     0.444444418  0.444444448  0.315035970
     0.777777791  0.444444448  0.315035970
     0.111111104  0.777777791  0.315035970
     0.444444448  0.777777791  0.315035970
     0.777777791  0.777777791  0.315035970
     0.888718139  0.222563739  0.413054463
     0.222682212  0.222682227  0.411730130
     0.554635515  0.222682227  0.411730130
     0.888462106  0.555768977  0.412755118
     0.222682227  0.554635575  0.411730130
     0.555768977  0.555768977  0.412755118
     0.888718139  0.888718139  0.413054463
     0.222563709  0.888718139  0.413054463
     0.555768917  0.888462106  0.412755118
     0.000000000  0.000000000  0.509975080
     0.333086067  0.005822137  0.510528614
     0.661091736  0.005822137  0.510528614
     0.005822137  0.333086097  0.510528614
     0.661091796  0.333086097  0.510528614
     0.005822137  0.661091796  0.510528614
     0.333086067  0.661091796  0.510528614
     0.666666627  0.666666687  0.509839351
     0.333333313  0.333333343  0.502034955
     0.333333313  0.333333343  0.571044872

  ion indices of the primitive-cell ions
   primitive index   ion index
                 1           1
                 2           2
                 3           3
                 4           4
                 5           5
                 6           6
                 7           7
                 8           8
                 9           9
                10          10
                11          11
                12          12
                13          13
                14          14
                15          15
                16          16
                17          17
                18          18
                19          19
                20          20
                21          21
                22          22
                23          23
                24          24
                25          25
                26          26
                27          27
                28          28
                29          29
                30          30
                31          31
                32          32
                33          33
                34          34
                35          35
                36          36
                37          37

----------------------------------------------------------------------------------------

 
 
 KPOINTS: Automatic mesh                          

Automatic generation of k-mesh.
 Grid dimensions read from file:
 generate k-points for:    8    8    1

 Generating k-lattice:

  Cartesian coordinates                     Fractional coordinates (reciprocal lattice)
     0.014218495 -0.008209052  0.000000000     0.125000000 -0.000000000  0.000000000
     0.000000000  0.016418104  0.000000000     0.000000000  0.125000000  0.000000000
     0.000000000  0.000000000  0.041047592     0.000000000  0.000000000  1.000000000

  Length of vectors
     0.016418104  0.016418104  0.041047592

  Shift w.r.t. Gamma in fractional coordinates (k-lattice)
     0.000000000  0.000000000  0.000000000

 TETIRR: Found     36 inequivalent tetrahedra from      384
 
 Subroutine IBZKPT returns following result:
 ===========================================
 
 Found     10 irreducible k-points:
 
 Following reciprocal coordinates:
            Coordinates               Weight
  0.000000  0.000000  0.000000      1.000000
  0.125000  0.000000  0.000000      6.000000
  0.250000  0.000000  0.000000      6.000000
  0.375000 -0.000000  0.000000      6.000000
  0.500000  0.000000  0.000000      3.000000
  0.250000  0.125000  0.000000      6.000000
  0.375000  0.125000  0.000000     12.000000
  0.500000  0.125000  0.000000     12.000000
  0.500000  0.250000  0.000000      6.000000
 -0.375000  0.250000  0.000000      6.000000
 
 Following cartesian coordinates:
            Coordinates               Weight
  0.000000  0.000000  0.000000      1.000000
  0.014218 -0.008209  0.000000      6.000000
  0.028437 -0.016418  0.000000      6.000000
  0.042655 -0.024627  0.000000      6.000000
  0.056874 -0.032836  0.000000      3.000000
  0.028437 -0.000000  0.000000      6.000000
  0.042655 -0.008209  0.000000     12.000000
  0.056874 -0.016418  0.000000     12.000000
  0.056874 -0.000000  0.000000      6.000000
 -0.042655  0.057463  0.000000      6.000000
 


--------------------------------------------------------------------------------------------------------




 Dimension of arrays:
   k-points           NKPTS =     10   k-points in BZ     NKDIM =     10   number of bands    NBANDS=    252
   number of dos      NEDOS =    301   number of ions     NIONS =     37
   non local maximal  LDIM  =      6   non local SUM 2l+1 LMDIM =     18
   total plane-waves  NPLWV = 322560
   max r-space proj   IRMAX =   2952   max aug-charges    IRDMAX=  13577
   dimension x,y,z NGX =    48 NGY =   48 NGZ =  140
   dimension x,y,z NGXF=    96 NGYF=   96 NGZF=  280
   support grid    NGXF=    96 NGYF=   96 NGZF=  280
   ions per type =              35   1   1
   NGX,Y,Z   is equivalent  to a cutoff of   9.08,  9.08,  9.55 a.u.
   NGXF,Y,Z  is equivalent  to a cutoff of  18.15, 18.15, 19.11 a.u.

 SYSTEM =  unknown system                          
 POSCAR =  Ag-Ru-C                                 

 Startparameter for this run:
   NWRITE =      2    write-flag & timer
   PREC   = normal    normal or accurate (medium, high low for compatibility)
   ISTART =      0    job   : 0-new  1-cont  2-samecut
   ICHARG =     11    charge: 1-file 2-atom 10-const
   ISPIN  =      1    spin polarized calculation?
   LNONCOLLINEAR =      F non collinear calculations
   LSORBIT =      F    spin-orbit coupling
   INIWAV =      1    electr: 0-lowe 1-rand  2-diag
   LASPH  =      F    aspherical Exc in radial PAW
   METAGGA=      F    non-selfconsistent MetaGGA calc.

 Electronic Relaxation 1
   ENCUT  =  500.0 eV  36.75 Ry    6.06 a.u.  16.03 16.03 44.42*2*pi/ulx,y,z
   ENINI  =  500.0     initial cutoff
   ENAUG  =  644.9 eV  augmentation charge cutoff
   NELM   =    150;   NELMIN=  2; NELMDL= -5     # of ELM steps 
   EDIFF  = 0.1E-04   stopping-criterion for ELM
   LREAL  =      T    real-space projection
   NLSPLINE    = F    spline interpolate recip. space projectors
   LCOMPAT=      F    compatible to vasp.4.4
   GGA_COMPAT  = T    GGA compatible to vasp.4.4-vasp.4.6
   LMAXPAW     = -100 max onsite density
   LMAXMIX     =    2 max onsite mixed and CHGCAR
   VOSKOWN=      0    Vosko Wilk Nusair interpolation
   ROPT   =   -0.00050  -0.00050  -0.00050
 Ionic relaxation
   EDIFFG = -.1E-01   stopping-criterion for IOM
   NSW    =      0    number of steps for IOM
   NBLOCK =      1;   KBLOCK =      1    inner block; outer block 
   IBRION =     -1    ionic relax: 0-MD 1-quasi-New 2-CG
   NFREE  =      1    steps in history (QN), initial steepest desc. (CG)
   ISIF   =      2    stress and relaxation
   IWAVPR =     10    prediction:  0-non 1-charg 2-wave 3-comb
   ISYM   =      2    0-nonsym 1-usesym 2-fastsym
   LCORR  =      T    Harris-Foulkes like correction to forces

   POTIM  = 0.5000    time-step for ionic-motion
   TEIN   =    0.0    initial temperature
   TEBEG  =    0.0;   TEEND  =   0.0 temperature during run
   SMASS  =  -3.00    Nose mass-parameter (am)
   estimated Nose-frequenzy (Omega)   =  0.10E-29 period in steps = 0.13E+47 mass=  -0.177E-26a.u.
   SCALEE = 1.0000    scale energy and forces
   NPACO  =    256;   APACO  = 16.0  distance and # of slots for P.C.
   PSTRESS=    0.0 pullay stress

  Mass of Ions in am
   POMASS = 107.87101.07 12.01
  Ionic Valenz
   ZVAL   =  11.00  8.00  4.00
  Atomic Wigner-Seitz radii
   RWIGS  =  -1.00 -1.00 -1.00
  virtual crystal weights 
   VCA    =   1.00  1.00  1.00
   NELECT =     397.0000    total number of electrons
   NUPDOWN=      -1.0000    fix difference up-down

 DOS related values:
   EMIN   =  10.00;   EMAX   =-10.00  energy-range for DOS
   EFERMI =   0.00
   ISMEAR =    -5;   SIGMA  =   0.10  broadening in eV -4-tet -1-fermi 0-gaus

 Electronic relaxation 2 (details)
   IALGO  =     68    algorithm
   LDIAG  =      T    sub-space diagonalisation (order eigenvalues)
   LSUBROT=      F    optimize rotation matrix (better conditioning)
   TURBO    =      0    0=normal 1=particle mesh
   IRESTART =      0    0=no restart 2=restart with 2 vectors
   NREBOOT  =      0    no. of reboots
   NMIN     =      0    reboot dimension
   EREF     =   0.00    reference energy to select bands
   IMIX   =      4    mixing-type and parameters
     AMIX     =   0.40;   BMIX     =  1.00
     AMIX_MAG =   1.60;   BMIX_MAG =  1.00
     AMIN     =   0.10
     WC   =   100.;   INIMIX=   1;  MIXPRE=   1;  MAXMIX= -45

 Intra band minimization:
   WEIMIN = 0.0000     energy-eigenvalue tresh-hold
   EBREAK =  0.99E-08  absolut break condition
   DEPER  =   0.30     relativ break condition  

   TIME   =   0.40     timestep for ELM

  volume/ion in A,a.u.               =      44.07       297.41
  Fermi-wavevector in a.u.,A,eV,Ry     =   1.022241  1.931754 14.217757  1.044976
  Thomas-Fermi vector in A             =   2.155909
 
 Write flags
   LWAVE        =      F    write WAVECAR
   LDOWNSAMPLE  =      F    k-point downsampling of WAVECAR
   LCHARG       =      F    write CHGCAR
   LVTOT        =      F    write LOCPOT, total local potential
   LVHAR        =      F    write LOCPOT, Hartree potential only
   LELF         =      F    write electronic localiz. function (ELF)
   LORBIT       =     10    0 simple, 1 ext, 2 COOP (PROOUT), +10 PAW based schemes


 Dipole corrections
   LMONO  =      F    monopole corrections only (constant potential shift)
   LDIPOL =      F    correct potential (dipole corrections)
   IDIPOL =      0    1-x, 2-y, 3-z, 4-all directions 
   EPSILON=  1.0000000 bulk dielectric constant

 Exchange correlation treatment:
   GGA     =    --    GGA type
   LEXCH   =     8    internal setting for exchange type
   VOSKOWN=      0    Vosko Wilk Nusair interpolation
   LHFCALC =     F    Hartree Fock is set to
   LHFONE  =     F    Hartree Fock one center treatment
   AEXX    =    0.0000 exact exchange contribution

 Linear response parameters
   LEPSILON=     F    determine dielectric tensor
   LRPA    =     F    only Hartree local field effects (RPA)
   LNABLA  =     F    use nabla operator in PAW spheres
   LVEL    =     F    velocity operator in full k-point grid
   LINTERFAST=   F  fast interpolation
   KINTER  =     0    interpolate to denser k-point grid
   CSHIFT  =0.1000    complex shift for real part using Kramers Kronig
   OMEGAMAX=  -1.0    maximum frequency
   DEG_THRESHOLD= 0.2000000E-02 threshold for treating states as degnerate
   RTIME   =   -0.100 relaxation time in fs
  (WPLASMAI=    0.000 imaginary part of plasma frequency in eV, 0.658/RTIME)
   DFIELD  = 0.0000000 0.0000000 0.0000000 field for delta impulse in time
 
 Orbital magnetization related:
   ORBITALMAG=     F  switch on orbital magnetization
   LCHIMAG   =     F  perturbation theory with respect to B field
   DQ        =  0.001000  dq finite difference perturbation B field
   LLRAUG    =     F  two centre corrections for induced B field



--------------------------------------------------------------------------------------------------------


 Static calculation
 charge density and potential remain constant during run
 non-spin polarized calculation
 RMM-DIIS sequential band-by-band and
  variant of blocked Davidson during initial phase
 perform sub-space diagonalisation
    before iterative eigenvector-optimisation
 no mixing
 using additional bands           53
 real space projection scheme for non local part
 use partial core corrections
 calculate Harris-corrections to forces 
   (improved forces if not selfconsistent)
 use gradient corrections 
 WARNING: stress and forces are not correct
  (second derivative of E(xc) not defined)
 use of overlap-Matrix (Vanderbilt PP)
 Fermi weights with tetrahedron method with Bloechl corrections


--------------------------------------------------------------------------------------------------------


  energy-cutoff  :      500.00
  volume of cell :     1630.63
      direct lattice vectors                 reciprocal lattice vectors
     8.791366577  0.000000000  0.000000000     0.113747958 -0.065672414  0.000000000
     4.395683289  7.613546790  0.000000000     0.000000000  0.131344829  0.000000000
     0.000000000  0.000000000 24.361965240     0.000000000  0.000000000  0.041047592

  length of vectors
     8.791366577  8.791366577 24.361965240     0.131344829  0.131344829  0.041047592


 
 k-points in units of 2pi/SCALE and weight: Automatic mesh                          
   0.00000000  0.00000000  0.00000000       0.016
   0.01421849 -0.00820905  0.00000000       0.094
   0.02843699 -0.01641810  0.00000000       0.094
   0.04265548 -0.02462716  0.00000000       0.094
   0.05687398 -0.03283621  0.00000000       0.047
   0.02843699 -0.00000000  0.00000000       0.094
   0.04265548 -0.00820905  0.00000000       0.188
   0.05687398 -0.01641810  0.00000000       0.188
   0.05687398 -0.00000000  0.00000000       0.094
  -0.04265548  0.05746336  0.00000000       0.094
 
 k-points in reciprocal lattice and weights: Automatic mesh                          
   0.00000000  0.00000000  0.00000000       0.016
   0.12500000  0.00000000  0.00000000       0.094
   0.25000000  0.00000000  0.00000000       0.094
   0.37500000 -0.00000000  0.00000000       0.094
   0.50000000  0.00000000  0.00000000       0.047
   0.25000000  0.12500000  0.00000000       0.094
   0.37500000  0.12500000  0.00000000       0.188
   0.50000000  0.12500000  0.00000000       0.188
   0.50000000  0.25000000  0.00000000       0.094
  -0.37500000  0.25000000  0.00000000       0.094
 
 position of ions in fractional coordinates (direct lattice) 
   0.00000000  0.00000000  0.21682110
   0.33333331  0.00000000  0.21682110
   0.66666663  0.00000000  0.21682110
   0.00000000  0.33333334  0.21682110
   0.33333331  0.33333334  0.21682110
   0.66666669  0.33333334  0.21682110
   0.00000000  0.66666669  0.21682110
   0.33333331  0.66666669  0.21682110
   0.66666663  0.66666669  0.21682110
   0.11111110  0.11111111  0.31503597
   0.44444445  0.11111111  0.31503597
   0.77777779  0.11111111  0.31503597
   0.11111110  0.44444445  0.31503597
   0.44444442  0.44444445  0.31503597
   0.77777779  0.44444445  0.31503597
   0.11111110  0.77777779  0.31503597
   0.44444445  0.77777779  0.31503597
   0.77777779  0.77777779  0.31503597
   0.88871814  0.22256374  0.41305446
   0.22268221  0.22268223  0.41173013
   0.55463552  0.22268223  0.41173013
   0.88846211  0.55576898  0.41275512
   0.22268223  0.55463558  0.41173013
   0.55576898  0.55576898  0.41275512
   0.88871814  0.88871814  0.41305446
   0.22256371  0.88871814  0.41305446
   0.55576892  0.88846211  0.41275512
   0.00000000  0.00000000  0.50997508
   0.33308607  0.00582214  0.51052861
   0.66109174  0.00582214  0.51052861
   0.00582214  0.33308610  0.51052861
   0.66109180  0.33308610  0.51052861
   0.00582214  0.66109180  0.51052861
   0.33308607  0.66109180  0.51052861
   0.66666663  0.66666669  0.50983935
   0.33333331  0.33333334  0.50203495
   0.33333331  0.33333334  0.57104487
 
 position of ions in cartesian coordinates  (Angst):
   0.00000000  0.00000000  5.28218814
   2.93045535  0.00000000  5.28218814
   5.86091070  0.00000000  5.28218814
   1.46522781  2.53784900  5.28218814
   4.39568315  2.53784900  5.28218814
   7.32613904  2.53784900  5.28218814
   2.93045562  5.07569801  5.28218814
   5.86091096  5.07569801  5.28218814
   8.79136632  5.07569801  5.28218814
   1.46522770  0.84594965  7.67489535
   4.39568332  0.84594965  7.67489535
   7.32613893  0.84594965  7.67489535
   2.93045542  3.38379860  7.67489535
   5.86091083  3.38379860  7.67489535
   8.79136671  3.38379860  7.67489535
   4.39568328  5.92164760  7.67489535
   7.32613890  5.92164760  7.67489535
  10.25659451  5.92164760  7.67489535
   8.79136665  1.69449944 10.06281846
   2.93652150  1.69540156 10.03055511
   5.85484468  1.69540156 10.03055511
  10.25378047  4.23137311 10.05552583
   4.39568342  4.22274391 10.03055511
   7.32895321  4.23137311 10.05552583
  11.71957041  6.76629713 10.06281846
   5.86316262  6.76629713 10.06281846
   8.79136631  6.76434782 10.05552583
   0.00000000  0.00000000 12.42399517
   2.95387399  0.04432711 12.43748034
   5.83749206  0.04432711 12.43748034
   1.51532553  2.53596659 12.43748034
   7.27604131  2.53596659 12.43748034
   2.95713470  5.03325332 12.43748034
   5.83423188  5.03325332 12.43748034
   8.79136632  5.07569801 12.42068856
   4.39568315  2.53784900 12.23055812
   4.39568315  2.53784900 13.91177532
 


--------------------------------------------------------------------------------------------------------


 k-point   1 :   0.0000 0.0000 0.0000  plane waves:   41267
 k-point   2 :   0.1250 0.0000 0.0000  plane waves:   41346
 k-point   3 :   0.2500 0.0000 0.0000  plane waves:   41360
 k-point   4 :   0.3750-0.0000 0.0000  plane waves:   41412
 k-point   5 :   0.5000 0.0000 0.0000  plane waves:   41412
 k-point   6 :   0.2500 0.1250 0.0000  plane waves:   41336
 k-point   7 :   0.3750 0.1250 0.0000  plane waves:   41420
 k-point   8 :   0.5000 0.1250 0.0000  plane waves:   41406
 k-point   9 :   0.5000 0.2500 0.0000  plane waves:   41444
 k-point  10 :  -0.3750 0.2500 0.0000  plane waves:   41438

 maximum and minimum number of plane-waves per node :     41444    41267

 maximum number of plane-waves:     41444
 maximum index in each direction: 
   IXMAX=   16   IYMAX=   16   IZMAX=   44
   IXMIN=  -16   IYMIN=  -16   IZMIN=  -44


 serial   3D FFT for wavefunctions
 parallel 3D FFT for charge:
    minimum data exchange during FFTs selected (reduces bandwidth)


 total amount of memory used by VASP MPI-rank0   131379. kBytes
=======================================================================

   base      :      30000. kBytes
   nonlr-proj:      15458. kBytes
   fftplans  :       4808. kBytes
   grid      :      19857. kBytes
   one-center:        575. kBytes
   wavefun   :      60681. kBytes
 
     INWAV:  cpu time    0.0000: real time    0.0000
 initial charge density was supplied:
 number of electron     396.9999994 magnetization 
 keeping initial charge density in first step


--------------------------------------------------------------------------------------------------------


 Maximum index for non-local projection operator         2819
 Maximum index for augmentation-charges          719 (set IRDMAX)


--------------------------------------------------------------------------------------------------------


 First call to EWALD:  gamma=   0.151
 Maximum number of real-space cells 4x 4x 2
 Maximum number of reciprocal cells 2x 2x 5

    FEWALD:  cpu time    0.0013: real time    0.0013


--------------------------------------- Iteration      1(   1)  ---------------------------------------


    POTLOK:  cpu time    0.0473: real time    0.0482
    SETDIJ:  cpu time    0.0049: real time    0.0050
     EDDAV:  cpu time    7.8501: real time    7.8514
 BZINTS: Fermi energy:    8.841523;  397.000000 electrons
         Band energy: 0.102645E+04;  BLOECHL correction:   -0.014310
       DOS:  cpu time    0.0105: real time    0.0106
    --------------------------------------------
      LOOP:  cpu time    7.9128: real time    7.9153

 eigenvalue-minimisations  :  5040
 total energy-change (2. order) : 0.2396579E+04  (-0.1800194E+05)
 number of electron     396.9999994 magnetization 
 augmentation part      396.9999994 magnetization 

 Free energy of the ion-electron system (eV)
  ---------------------------------------------------
  alpha Z        PSCENC =       677.87046530
  Ewald energy   TEWEN  =    130790.16385130
  -Hartree energ DENC   =   -168177.70423973
  -exchange      EXHF   =         0.00000000
  -V(xc)+E(xc)   XCENC  =      -409.13822489
  PAW double counting   =     39191.90010678   -37609.17309659
  entropy T*S    EENTRO =         0.00000000
  eigenvalues    EBANDS =      1026.44868572
  atomic energy  EATOM  =     36906.21140245
  Solvation  Ediel_sol  =         0.00000000
  ---------------------------------------------------
  free energy    TOTEN  =      2396.57895036 eV

  energy without entropy =     2396.57895036  energy(sigma->0) =     2396.57895036


--------------------------------------------------------------------------------------------------------




--------------------------------------- Iteration      1(   2)  ---------------------------------------


     EDDAV:  cpu time    8.1721: real time    8.1750
 BZINTS: Fermi energy:    0.817524;  397.000000 electrons
         Band energy:-0.138979E+04;  BLOECHL correction:   -0.060704
       DOS:  cpu time    0.0097: real time    0.0097
    --------------------------------------------
      LOOP:  cpu time    8.1818: real time    8.1848

 eigenvalue-minimisations  :  5320
 total energy-change (2. order) :-0.2416234E+04  (-0.2292684E+04)
 number of electron     396.9999994 magnetization 
 augmentation part      396.9999994 magnetization 

 Free energy of the ion-electron system (eV)
  ---------------------------------------------------
  alpha Z        PSCENC =       677.87046530
  Ewald energy   TEWEN  =    130790.16385130
  -Hartree energ DENC   =   -168177.70423973
  -exchange      EXHF   =         0.00000000
  -V(xc)+E(xc)   XCENC  =      -409.13822489
  PAW double counting   =     39191.90010678   -37609.17309659
  entropy T*S    EENTRO =         0.00000000
  eigenvalues    EBANDS =     -1389.78561772
  atomic energy  EATOM  =     36906.21140245
  Solvation  Ediel_sol  =         0.00000000
  ---------------------------------------------------
  free energy    TOTEN  =       -19.65535309 eV

  energy without entropy =      -19.65535309  energy(sigma->0) =      -19.65535309


--------------------------------------------------------------------------------------------------------




--------------------------------------- Iteration      1(   3)  ---------------------------------------


     EDDAV:  cpu time    8.8096: real time    8.8098
 BZINTS: Fermi energy:    0.363406;  397.000000 electrons
         Band energy:-0.147258E+04;  BLOECHL correction:   -0.080573
       DOS:  cpu time    0.0100: real time    0.0100
    --------------------------------------------
      LOOP:  cpu time    8.8196: real time    8.8198

 eigenvalue-minimisations  :  5824
 total energy-change (2. order) :-0.8279059E+02  (-0.8099002E+02)
 number of electron     396.9999994 magnetization 
 augmentation part      396.9999994 magnetization 

 Free energy of the ion-electron system (eV)
  ---------------------------------------------------
  alpha Z        PSCENC =       677.87046530
  Ewald energy   TEWEN  =    130790.16385130
  -Hartree energ DENC   =   -168177.70423973
  -exchange      EXHF   =         0.00000000
  -V(xc)+E(xc)   XCENC  =      -409.13822489
  PAW double counting   =     39191.90010678   -37609.17309659
  entropy T*S    EENTRO =         0.00000000
  eigenvalues    EBANDS =     -1472.57620504
  atomic energy  EATOM  =     36906.21140245
  Solvation  Ediel_sol  =         0.00000000
  ---------------------------------------------------
  free energy    TOTEN  =      -102.44594040 eV

  energy without entropy =     -102.44594040  energy(sigma->0) =     -102.44594040


--------------------------------------------------------------------------------------------------------




--------------------------------------- Iteration      1(   4)  ---------------------------------------


     EDDAV:  cpu time    8.4086: real time    8.4086
 BZINTS: Fermi energy:    0.353703;  397.000000 electrons
         Band energy:-0.147387E+04;  BLOECHL correction:   -0.079248
       DOS:  cpu time    0.0100: real time    0.0100
    --------------------------------------------
      LOOP:  cpu time    8.4185: real time    8.4186

 eigenvalue-minimisations  :  5516
 total energy-change (2. order) :-0.1296369E+01  (-0.1294212E+01)
 number of electron     396.9999994 magnetization 
 augmentation part      396.9999994 magnetization 

 Free energy of the ion-electron system (eV)
  ---------------------------------------------------
  alpha Z        PSCENC =       677.87046530
  Ewald energy   TEWEN  =    130790.16385130
  -Hartree energ DENC   =   -168177.70423973
  -exchange      EXHF   =         0.00000000
  -V(xc)+E(xc)   XCENC  =      -409.13822489
  PAW double counting   =     39191.90010678   -37609.17309659
  entropy T*S    EENTRO =         0.00000000
  eigenvalues    EBANDS =     -1473.87257404
  atomic energy  EATOM  =     36906.21140245
  Solvation  Ediel_sol  =         0.00000000
  ---------------------------------------------------
  free energy    TOTEN  =      -103.74230941 eV

  energy without entropy =     -103.74230941  energy(sigma->0) =     -103.74230941


--------------------------------------------------------------------------------------------------------




--------------------------------------- Iteration      1(   5)  ---------------------------------------


     EDDAV:  cpu time    9.2303: real time    9.2304
 BZINTS: Fermi energy:    0.353500;  397.000000 electrons
         Band energy:-0.147391E+04;  BLOECHL correction:   -0.079212
       DOS:  cpu time    0.0085: real time    0.0085
    --------------------------------------------
      LOOP:  cpu time    9.2388: real time    9.2389

 eigenvalue-minimisations  :  6160
 total energy-change (2. order) :-0.3659674E-01  (-0.3661396E-01)
 number of electron     396.9999994 magnetization 
 augmentation part      396.9999994 magnetization 

 Free energy of the ion-electron system (eV)
  ---------------------------------------------------
  alpha Z        PSCENC =       677.87046530
  Ewald energy   TEWEN  =    130790.16385130
  -Hartree energ DENC   =   -168177.70423973
  -exchange      EXHF   =         0.00000000
  -V(xc)+E(xc)   XCENC  =      -409.13822489
  PAW double counting   =     39191.90010678   -37609.17309659
  entropy T*S    EENTRO =         0.00000000
  eigenvalues    EBANDS =     -1473.90917079
  atomic energy  EATOM  =     36906.21140245
  Solvation  Ediel_sol  =         0.00000000
  ---------------------------------------------------
  free energy    TOTEN  =      -103.77890615 eV

  energy without entropy =     -103.77890615  energy(sigma->0) =     -103.77890615


--------------------------------------------------------------------------------------------------------




--------------------------------------- Iteration      1(   6)  ---------------------------------------


    EDDIAG:  cpu time    1.5518: real time    1.5520
  RMM-DIIS:  cpu time    4.3481: real time    4.3482
    ORTHCH:  cpu time    0.2789: real time    0.2789
 BZINTS: Fermi energy:    0.353495;  397.000000 electrons
         Band energy:-0.147391E+04;  BLOECHL correction:   -0.079211
       DOS:  cpu time    0.0098: real time    0.0098
    --------------------------------------------
      LOOP:  cpu time    6.1887: real time    6.1890

 eigenvalue-minimisations  :  5065
 total energy-change (2. order) :-0.8828372E-03  (-0.8831032E-03)
 number of electron     396.9999994 magnetization 
 augmentation part      396.9999994 magnetization 

 Free energy of the ion-electron system (eV)
  ---------------------------------------------------
  alpha Z        PSCENC =       677.87046530
  Ewald energy   TEWEN  =    130790.16385130
  -Hartree energ DENC   =   -168177.70423973
  -exchange      EXHF   =         0.00000000
  -V(xc)+E(xc)   XCENC  =      -409.13822489
  PAW double counting   =     39191.90010678   -37609.17309659
  entropy T*S    EENTRO =         0.00000000
  eigenvalues    EBANDS =     -1473.91005362
  atomic energy  EATOM  =     36906.21140245
  Solvation  Ediel_sol  =         0.00000000
  ---------------------------------------------------
  free energy    TOTEN  =      -103.77978899 eV

  energy without entropy =     -103.77978899  energy(sigma->0) =     -103.77978899


--------------------------------------------------------------------------------------------------------




--------------------------------------- Iteration      1(   7)  ---------------------------------------


    EDDIAG:  cpu time    1.5517: real time    1.5518
  RMM-DIIS:  cpu time    6.1909: real time    6.1908
    ORTHCH:  cpu time    0.2787: real time    0.2787
 BZINTS: Fermi energy:    0.353493;  397.000000 electrons
         Band energy:-0.147391E+04;  BLOECHL correction:   -0.079211
       DOS:  cpu time    0.0097: real time    0.0097
    --------------------------------------------
      LOOP:  cpu time    8.0310: real time    8.0311

 eigenvalue-minimisations  :  7195
 total energy-change (2. order) :-0.3047468E-03  (-0.3036644E-03)
 number of electron     396.9999994 magnetization 
 augmentation part      396.9999994 magnetization 

 Free energy of the ion-electron system (eV)
  ---------------------------------------------------
  alpha Z        PSCENC =       677.87046530
  Ewald energy   TEWEN  =    130790.16385130
  -Hartree energ DENC   =   -168177.70423973
  -exchange      EXHF   =         0.00000000
  -V(xc)+E(xc)   XCENC  =      -409.13822489
  PAW double counting   =     39191.90010678   -37609.17309659
  entropy T*S    EENTRO =         0.00000000
  eigenvalues    EBANDS =     -1473.91035837
  atomic energy  EATOM  =     36906.21140245
  Solvation  Ediel_sol  =         0.00000000
  ---------------------------------------------------
  free energy    TOTEN  =      -103.78009374 eV

  energy without entropy =     -103.78009374  energy(sigma->0) =     -103.78009374


--------------------------------------------------------------------------------------------------------




--------------------------------------- Iteration      1(   8)  ---------------------------------------


    EDDIAG:  cpu time    1.5513: real time    1.5513
  RMM-DIIS:  cpu time    4.2486: real time    4.2486
    ORTHCH:  cpu time    0.2791: real time    0.2791
 BZINTS: Fermi energy:    0.353493;  397.000000 electrons
         Band energy:-0.147391E+04;  BLOECHL correction:   -0.079211
       DOS:  cpu time    0.0097: real time    0.0097
    --------------------------------------------
      LOOP:  cpu time    6.0886: real time    6.0887

 eigenvalue-minimisations  :  4426
 total energy-change (2. order) :-0.2455723E-04  (-0.2405329E-04)
 number of electron     396.9999994 magnetization 
 augmentation part      396.9999994 magnetization 

 Free energy of the ion-electron system (eV)
  ---------------------------------------------------
  alpha Z        PSCENC =       677.87046530
  Ewald energy   TEWEN  =    130790.16385130
  -Hartree energ DENC   =   -168177.70423973
  -exchange      EXHF   =         0.00000000
  -V(xc)+E(xc)   XCENC  =      -409.13822489
  PAW double counting   =     39191.90010678   -37609.17309659
  entropy T*S    EENTRO =         0.00000000
  eigenvalues    EBANDS =     -1473.91038293
  atomic energy  EATOM  =     36906.21140245
  Solvation  Ediel_sol  =         0.00000000
  ---------------------------------------------------
  free energy    TOTEN  =      -103.78011829 eV

  energy without entropy =     -103.78011829  energy(sigma->0) =     -103.78011829


--------------------------------------------------------------------------------------------------------




--------------------------------------- Iteration      1(   9)  ---------------------------------------


    EDDIAG:  cpu time    1.5519: real time    1.5520
  RMM-DIIS:  cpu time    3.6952: real time    3.6952
    ORTHCH:  cpu time    0.2788: real time    0.2788
 BZINTS: Fermi energy:    0.353493;  397.000000 electrons
         Band energy:-0.147391E+04;  BLOECHL correction:   -0.079211
       DOS:  cpu time    0.0093: real time    0.0093
    --------------------------------------------
      LOOP:  cpu time    5.5352: real time    5.5353

 eigenvalue-minimisations  :  3419
 total energy-change (2. order) :-0.2883986E-05  (-0.2833860E-05)
 number of electron     396.9999994 magnetization 
 augmentation part      396.9999994 magnetization 

 Free energy of the ion-electron system (eV)
  ---------------------------------------------------
  alpha Z        PSCENC =       677.87046530
  Ewald energy   TEWEN  =    130790.16385130
  -Hartree energ DENC   =   -168177.70423973
  -exchange      EXHF   =         0.00000000
  -V(xc)+E(xc)   XCENC  =      -409.13822489
  PAW double counting   =     39191.90010678   -37609.17309659
  entropy T*S    EENTRO =         0.00000000
  eigenvalues    EBANDS =     -1473.91038581
  atomic energy  EATOM  =     36906.21140245
  Solvation  Ediel_sol  =         0.00000000
  ---------------------------------------------------
  free energy    TOTEN  =      -103.78012118 eV

  energy without entropy =     -103.78012118  energy(sigma->0) =     -103.78012118


--------------------------------------------------------------------------------------------------------




 average (electrostatic) potential at core
  the test charge radii are     1.1249  1.2511  0.6991
  (the norm of the test charge is              1.0000)
       1 -78.5332       2 -78.5176       3 -78.5175       4 -78.5176       5 -78.5089
       6 -78.5173       7 -78.5175       8 -78.5173       9 -78.5306      10 -78.7571
      11 -78.7572      12 -78.7569      13 -78.7572      14 -78.7569      15 -78.7481
      16 -78.7569      17 -78.7481      18 -78.7481      19 -78.7246      20 -78.8393
      21 -78.8391      22 -78.7458      23 -78.8391      24 -78.7456      25 -78.7246
      26 -78.7246      27 -78.7458      28 -78.4909      29 -78.4378      30 -78.4378
      31 -78.4378      32 -78.4376      33 -78.4378      34 -78.4376      35 -78.4609
      36 -67.6176      37 -54.9576
 
 
 
 E-fermi :   0.3535     XC(G=0):  -5.4233     alpha+bet : -5.1524

 Fermi energy:         0.3534931981

 k-point     1 :       0.0000    0.0000    0.0000
  band No.  band energies     occupation 
      1      -9.1626      2.00000
      2      -6.7420      2.00000
      3      -5.8742      2.00000
      4      -5.5987      2.00000
      5      -5.5104      2.00000
      6      -5.4938      2.00000
      7      -5.4938      2.00000
      8      -5.4800      2.00000
      9      -5.4800      2.00000
     10      -5.4793      2.00000
     11      -5.4561      2.00000
     12      -5.4399      2.00000
     13      -5.4393      2.00000
     14      -5.4392      2.00000
     15      -5.4270      2.00000
     16      -5.4270      2.00000
     17      -5.3992      2.00000
     18      -5.2870      2.00000
     19      -5.2870      2.00000
     20      -5.2867      2.00000
     21      -5.2641      2.00000
     22      -5.2586      2.00000
     23      -5.2586      2.00000
     24      -5.0716      2.00000
     25      -5.0682      2.00000
     26      -5.0682      2.00000
     27      -5.0645      2.00000
     28      -5.0516      2.00000
     29      -5.0513      2.00000
     30      -5.0459      2.00000
     31      -5.0459      2.00000
     32      -5.0282      2.00000
     33      -5.0282      2.00000
     34      -5.0173      2.00000
     35      -5.0173      2.00000
     36      -4.9030      2.00000
     37      -4.8982      2.00000
     38      -4.8982      2.00000
     39      -4.8565      2.00000
     40      -4.8017      2.00000
     41      -4.8017      2.00000
     42      -4.6934      2.00000
     43      -4.6934      2.00000
     44      -4.6824      2.00000
     45      -4.6777      2.00000
     46      -4.6777      2.00000
     47      -4.6724      2.00000
     48      -4.6724      2.00000
     49      -4.6580      2.00000
     50      -4.6506      2.00000
     51      -4.6506      2.00000
     52      -4.5404      2.00000
     53      -4.5256      2.00000
     54      -4.5164      2.00000
     55      -4.4970      2.00000
     56      -4.2935      2.00000
     57      -4.2935      2.00000
     58      -4.2912      2.00000
     59      -4.2860      2.00000
     60      -4.2860      2.00000
     61      -4.2838      2.00000
     62      -4.2695      2.00000
     63      -4.2603      2.00000
     64      -4.2603      2.00000
     65      -4.2344      2.00000
     66      -4.2344      2.00000
     67      -4.1394      2.00000
     68      -4.1393      2.00000
     69      -4.1136      2.00000
     70      -4.1107      2.00000
     71      -4.1106      2.00000
     72      -4.1014      2.00000
     73      -4.0932      2.00000
     74      -4.0932      2.00000
     75      -4.0858      2.00000
     76      -4.0858      2.00000
     77      -4.0744      2.00000
     78      -4.0569      2.00000
     79      -4.0569      2.00000
     80      -4.0405      2.00000
     81      -4.0405      2.00000
     82      -4.0400      2.00000
     83      -4.0293      2.00000
     84      -3.9711      2.00000
     85      -3.9711      2.00000
     86      -3.9193      2.00000
     87      -3.9193      2.00000
     88      -3.8999      2.00000
     89      -3.8898      2.00000
     90      -3.8898      2.00000
     91      -3.8500      2.00000
     92      -3.8349      2.00000
     93      -3.8349      2.00000
     94      -3.8247      2.00000
     95      -3.8247      2.00000
     96      -3.8151      2.00000
     97      -3.8150      2.00000
     98      -3.7940      2.00000
     99      -3.7940      2.00000
    100      -3.5730      2.00000
    101      -3.5717      2.00000
    102      -3.5717      2.00000
    103      -3.5684      2.00000
    104      -3.5684      2.00000
    105      -3.5547      2.00000
    106      -3.5547      2.00000
    107      -3.5491      2.00000
    108      -3.5092      2.00000
    109      -3.4873      2.00000
    110      -3.4872      2.00000
    111      -3.4563      2.00000
    112      -3.4530      2.00000
    113      -3.4520      2.00000
    114      -3.4520      2.00000
    115      -3.3970      2.00000
    116      -3.3168      2.00000
    117      -3.3168      2.00000
    118      -3.2896      2.00000
    119      -3.2896      2.00000
    120      -3.2513      2.00000
    121      -3.2513      2.00000
    122      -3.2288      2.00000
    123      -3.2288      2.00000
    124      -3.2155      2.00000
    125      -3.2034      2.00000
    126      -3.2034      2.00000
    127      -3.1857      2.00000
    128      -3.1850      2.00000
    129      -3.1850      2.00000
    130      -3.1829      2.00000
    131      -3.1744      2.00000
    132      -3.1743      2.00000
    133      -3.1662      2.00000
    134      -3.1126      2.00000
    135      -3.1126      2.00000
    136      -2.9885      2.00000
    137      -2.9851      2.00000
    138      -2.9851      2.00000
    139      -2.9828      2.00000
    140      -2.9698      2.00000
    141      -2.9698      2.00000
    142      -2.9671      2.00000
    143      -2.9670      2.00000
    144      -2.9569      2.00000
    145      -2.9446      2.00000
    146      -2.9445      2.00000
    147      -2.9424      2.00000
    148      -2.8886      2.00000
    149      -2.8735      2.00000
    150      -2.8717      2.00000
    151      -2.8717      2.00000
    152      -2.8702      2.00000
    153      -2.8616      2.00000
    154      -2.8615      2.00000
    155      -2.8567      2.00000
    156      -2.8104      2.00000
    157      -2.8104      2.00000
    158      -2.7944      2.00000
    159      -2.7944      2.00000
    160      -2.7824      2.00000
    161      -2.7750      2.00000
    162      -2.7740      2.00000
    163      -2.7717      2.00000
    164      -2.7717      2.00000
    165      -2.7391      2.00000
    166      -2.7389      2.00000
    167      -2.7389      2.00000
    168      -2.7162      2.00000
    169      -2.7162      2.00000
    170      -2.7042      2.00000
    171      -2.6924      2.00000
    172      -2.6832      2.00000
    173      -2.6831      2.00000
    174      -2.6133      2.00000
    175      -2.6133      2.00000
    176      -2.5819      2.00000
    177      -2.5818      2.00000
    178      -2.5718      2.00000
    179      -2.5502      2.00000
    180      -2.5364      2.00000
    181      -2.5364      2.00000
    182      -2.5242      2.00000
    183      -2.4773      2.00000
    184      -2.4773      2.00000
    185      -2.4378      2.00000
    186      -2.2392      2.00000
    187      -2.2392      2.00000
    188      -2.1182      2.00000
    189      -1.7433      2.00000
    190      -1.7433      2.00000
    191      -1.6988      2.00000
    192      -1.6619      2.00000
    193      -1.6618      2.00000
    194      -1.5205      2.00000
    195      -0.3795      2.00000
    196      -0.3361      2.00000
    197      -0.3361      2.00000
    198       0.0248      2.00000
    199       0.1028      2.00000
    200       0.1028      2.00000
    201       0.1163      2.58012
    202       0.1163      2.21738
    203       0.1315      1.17364
    204       0.9435      0.00000
    205       2.0565      0.00000
    206       2.2487      0.00000
    207       2.2817      0.00000
    208       2.2817      0.00000
    209       2.3446      0.00000
    210       2.3446      0.00000
    211       2.8171      0.00000
    212       2.8171      0.00000
    213       3.6200      0.00000
    214       3.6771      0.00000
    215       3.8323      0.00000
    216       3.8323      0.00000
    217       3.9691      0.00000
    218       3.9691      0.00000
    219       4.2355      0.00000
    220       4.5933      0.00000
    221       4.6155      0.00000
    222       4.6375      0.00000
    223       4.6375      0.00000
    224       4.6425      0.00000
    225       4.6425      0.00000
    226       4.7457      0.00000
    227       4.7457      0.00000
    228       4.9055      0.00000
    229       4.9542      0.00000
    230       5.0148      0.00000
    231       5.1217      0.00000
    232       5.1217      0.00000
    233       5.6456      0.00000
    234       5.8657      0.00000
    235       6.0066      0.00000
    236       6.2465      0.00000
    237       6.2465      0.00000
    238       6.3999      0.00000
    239       6.4674      0.00000
    240       6.4674      0.00000
    241       6.5875      0.00000
    242       6.5875      0.00000
    243       6.6014      0.00000
    244       6.7264      0.00000
    245       6.7267      0.00000
    246       6.7810      0.00000
    247       6.8513      0.00000
    248       6.9227      0.00000
    249       6.9236      0.00000
    250       6.9364      0.00000
    251       6.9773      0.00000
    252       6.9884      0.00000

 k-point     2 :       0.1250    0.0000    0.0000
  band No.  band energies     occupation 
      1      -9.1621      2.00000
      2      -6.6966      2.00000
      3      -5.8350      2.00000
      4      -5.5676      2.00000
      5      -5.5495      2.00000
      6      -5.5125      2.00000
      7      -5.4933      2.00000
      8      -5.4873      2.00000
      9      -5.4769      2.00000
     10      -5.4651      2.00000
     11      -5.4609      2.00000
     12      -5.4416      2.00000
     13      -5.4349      2.00000
     14      -5.3889      2.00000
     15      -5.3761      2.00000
     16      -5.3666      2.00000
     17      -5.3657      2.00000
     18      -5.3472      2.00000
     19      -5.3228      2.00000
     20      -5.3223      2.00000
     21      -5.2109      2.00000
     22      -5.2074      2.00000
     23      -5.1577      2.00000
     24      -5.1452      2.00000
     25      -5.1419      2.00000
     26      -5.1317      2.00000
     27      -5.0783      2.00000
     28      -5.0733      2.00000
     29      -5.0438      2.00000
     30      -5.0401      2.00000
     31      -5.0012      2.00000
     32      -4.9946      2.00000
     33      -4.9813      2.00000
     34      -4.9421      2.00000
     35      -4.9356      2.00000
     36      -4.9319      2.00000
     37      -4.8915      2.00000
     38      -4.8844      2.00000
     39      -4.8046      2.00000
     40      -4.7778      2.00000
     41      -4.7743      2.00000
     42      -4.7579      2.00000
     43      -4.7548      2.00000
     44      -4.7404      2.00000
     45      -4.7164      2.00000
     46      -4.7054      2.00000
     47      -4.6993      2.00000
     48      -4.6963      2.00000
     49      -4.6321      2.00000
     50      -4.6297      2.00000
     51      -4.5912      2.00000
     52      -4.5314      2.00000
     53      -4.5095      2.00000
     54      -4.4861      2.00000
     55      -4.4844      2.00000
     56      -4.3231      2.00000
     57      -4.3166      2.00000
     58      -4.3151      2.00000
     59      -4.3017      2.00000
     60      -4.2856      2.00000
     61      -4.2776      2.00000
     62      -4.2770      2.00000
     63      -4.2666      2.00000
     64      -4.2525      2.00000
     65      -4.2518      2.00000
     66      -4.2176      2.00000
     67      -4.1822      2.00000
     68      -4.1580      2.00000
     69      -4.1532      2.00000
     70      -4.1362      2.00000
     71      -4.1336      2.00000
     72      -4.1064      2.00000
     73      -4.1016      2.00000
     74      -4.0921      2.00000
     75      -4.0892      2.00000
     76      -4.0814      2.00000
     77      -4.0675      2.00000
     78      -4.0543      2.00000
     79      -4.0534      2.00000
     80      -4.0493      2.00000
     81      -4.0345      2.00000
     82      -4.0185      2.00000
     83      -4.0140      2.00000
     84      -4.0074      2.00000
     85      -3.9924      2.00000
     86      -3.9863      2.00000
     87      -3.9778      2.00000
     88      -3.9509      2.00000
     89      -3.9128      2.00000
     90      -3.9075      2.00000
     91      -3.8685      2.00000
     92      -3.8678      2.00000
     93      -3.8394      2.00000
     94      -3.8379      2.00000
     95      -3.7877      2.00000
     96      -3.7593      2.00000
     97      -3.7232      2.00000
     98      -3.6923      2.00000
     99      -3.6907      2.00000
    100      -3.6361      2.00000
    101      -3.6295      2.00000
    102      -3.6124      2.00000
    103      -3.6040      2.00000
    104      -3.5963      2.00000
    105      -3.5767      2.00000
    106      -3.5705      2.00000
    107      -3.5541      2.00000
    108      -3.5285      2.00000
    109      -3.5006      2.00000
    110      -3.4993      2.00000
    111      -3.4715      2.00000
    112      -3.4699      2.00000
    113      -3.4210      2.00000
    114      -3.4177      2.00000
    115      -3.3879      2.00000
    116      -3.3715      2.00000
    117      -3.3626      2.00000
    118      -3.3475      2.00000
    119      -3.3394      2.00000
    120      -3.3154      2.00000
    121      -3.3114      2.00000
    122      -3.2695      2.00000
    123      -3.2686      2.00000
    124      -3.2587      2.00000
    125      -3.2477      2.00000
    126      -3.2449      2.00000
    127      -3.2123      2.00000
    128      -3.2037      2.00000
    129      -3.1931      2.00000
    130      -3.1867      2.00000
    131      -3.1675      2.00000
    132      -3.1593      2.00000
    133      -3.1483      2.00000
    134      -3.1381      2.00000
    135      -3.1148      2.00000
    136      -3.1047      2.00000
    137      -3.0948      2.00000
    138      -3.0703      2.00000
    139      -3.0634      2.00000
    140      -3.0340      2.00000
    141      -3.0257      2.00000
    142      -2.9971      2.00000
    143      -2.9694      2.00000
    144      -2.9536      2.00000
    145      -2.9529      2.00000
    146      -2.9342      2.00000
    147      -2.9214      2.00000
    148      -2.9143      2.00000
    149      -2.9097      2.00000
    150      -2.9011      2.00000
    151      -2.8868      2.00000
    152      -2.8849      2.00000
    153      -2.8690      2.00000
    154      -2.8521      2.00000
    155      -2.8518      2.00000
    156      -2.8389      2.00000
    157      -2.8384      2.00000
    158      -2.8331      2.00000
    159      -2.8181      2.00000
    160      -2.8133      2.00000
    161      -2.7950      2.00000
    162      -2.7851      2.00000
    163      -2.7800      2.00000
    164      -2.7646      2.00000
    165      -2.7542      2.00000
    166      -2.7359      2.00000
    167      -2.7289      2.00000
    168      -2.7127      2.00000
    169      -2.6958      2.00000
    170      -2.6885      2.00000
    171      -2.6743      2.00000
    172      -2.6414      2.00000
    173      -2.6359      2.00000
    174      -2.6242      2.00000
    175      -2.6176      2.00000
[...]
  0.000   0.000   0.000   0.000   0.000   0.000   0.000   0.000   0.000   0.000   0.000   0.000   0.000   0.000   0.000   0.000
  0.000   0.000   0.000   0.000   0.000   0.000   0.000   0.000   0.000   0.000   0.000   0.000   0.000   0.000   0.000   0.000
  0.000   0.000   0.000   0.000   0.000   0.000   0.000   0.000   0.000   0.000   0.000   0.000   0.000   0.000   0.000   0.000
  0.000   0.000   0.000   0.000   0.000   0.000   0.000   0.000   0.000   0.000   0.000   0.000   0.000   0.000   0.000   0.000
  0.000   0.000   0.000   0.000   0.000   0.000   0.000   0.000   0.000   0.000   0.000   0.000   0.000   0.000   0.000   0.000
  0.000   0.000   0.000   0.000   0.000   0.000   0.000   0.000   0.000   0.000   1.000   0.000   0.000   0.000   0.000   0.000
  0.000   0.000   0.000   0.000   0.000   0.000   0.000   0.000   0.000   0.000   0.000   0.000   0.000   0.000   0.000   0.000
  0.000   0.000   0.000   0.000   0.000   0.000   0.000   0.000   0.000   0.000   0.000   0.000   0.000   0.000   0.000   0.000
  0.000   0.000   0.000   0.000   0.000   0.000   0.000   0.000   0.000   0.000   0.000   0.000   0.000   0.000   0.000   0.000
  0.000   0.000   0.000   0.000   0.000   0.000   0.000   0.000   0.000   0.000   0.000   0.000   0.000   0.000   0.000   0.000
  0.000   0.000   0.000   0.000   0.000   0.000   0.000   0.000   0.000   0.000   0.000   0.000   0.000   0.000   0.000   0.000
  0.000   0.000   0.000   0.000   0.000   0.000   0.000   0.000   0.000   0.000   0.000   0.000   0.000   0.000   0.000   0.000
  0.000   0.000   0.000   0.000   0.000   0.000   0.000   0.000   0.000   0.000   0.000   0.000   0.000   0.000   0.000   0.000


------------------------ aborting loop because EDIFF is reached ----------------------------------------





 total charge

# of ion       s       p       d       tot
------------------------------------------
    1        0.416   0.204   9.177   9.797
    2        0.417   0.203   9.177   9.797
    3        0.417   0.203   9.177   9.797
    4        0.417   0.203   9.177   9.797
    5        0.419   0.201   9.178   9.799
    6        0.417   0.203   9.177   9.797
    7        0.417   0.203   9.177   9.797
    8        0.417   0.203   9.177   9.797
    9        0.412   0.205   9.176   9.793
   10        0.406   0.269   9.166   9.840
   11        0.405   0.272   9.165   9.841
   12        0.406   0.269   9.166   9.840
   13        0.405   0.272   9.165   9.841
   14        0.405   0.272   9.165   9.841
   15        0.402   0.270   9.165   9.837
   16        0.406   0.269   9.166   9.840
   17        0.402   0.270   9.165   9.837
   18        0.402   0.270   9.165   9.837
   19        0.405   0.264   9.169   9.838
   20        0.424   0.292   9.155   9.870
   21        0.424   0.292   9.155   9.870
   22        0.395   0.276   9.164   9.836
   23        0.424   0.292   9.155   9.870
   24        0.395   0.276   9.164   9.836
   25        0.405   0.264   9.169   9.838
   26        0.405   0.264   9.169   9.838
   27        0.395   0.276   9.164   9.836
   28        0.419   0.195   9.181   9.795
   29        0.410   0.211   9.179   9.800
   30        0.410   0.211   9.179   9.800
   31        0.410   0.211   9.179   9.800
   32        0.410   0.211   9.179   9.800
   33        0.410   0.211   9.179   9.800
   34        0.410   0.211   9.179   9.800
   35        0.414   0.196   9.182   9.793
   36        0.583   0.594   7.039   8.216
   37        1.017   1.237   0.000   2.254
--------------------------------------------------
tot         15.953  10.247 328.019 354.219
 
    CHARGE:  cpu time    0.3862: real time    0.3863
    FORLOC:  cpu time    0.0111: real time    0.0111
    FORNL :  cpu time    1.6351: real time    1.6352
    STRESS:  cpu time    4.9041: real time    4.9043
    FORCOR:  cpu time    0.0490: real time    0.0491
    FORHAR:  cpu time    0.0183: real time    0.0184
    OFIELD:  cpu time    0.0003: real time    0.0003

  FORCE on cell =-STRESS in cart. coord.  units (eV):
  Direction    XX          YY          ZZ          XY          YZ          ZX
  --------------------------------------------------------------------------------------
  Alpha Z   677.87047   677.87047   677.87047
  Ewald  153503.07276153503.07278************     0.00002    -0.00000     0.00002
  Hartree163429.40686163429.40687************     0.00001    -0.00000     0.00001
  E(xc)   -2081.25389 -2081.25388 -2086.94164    -0.00001     0.00000     0.00000
  Local  ************************328409.06231     0.00028    -0.00004    -0.00011
  n-local  -320.77542  -301.24555  -305.60307    12.08071    -0.47667     0.60830
  augment  3268.56392  3268.56411  3268.53971    -0.00016    -0.00001     0.00003
  Kinetic  4922.37739  4926.19668  4927.14039     5.14678     0.84388    -0.28806
  Fock        0.00000     0.00000     0.00000     0.00000     0.00000     0.00000
  -------------------------------------------------------------------------------------
  Total      -6.20282    -6.20282     0.29369    -0.00000     0.00000     0.00000
  in kB      -6.09459    -6.09459     0.28857    -0.00000     0.00000     0.00000
  external pressure =       -3.97 kB  Pullay stress =        0.00 kB


 VOLUME and BASIS-vectors are now :
 -----------------------------------------------------------------------------
  energy-cutoff  :      500.00
  volume of cell :     1630.63
      direct lattice vectors                 reciprocal lattice vectors
     8.791366577  0.000000000  0.000000000     0.113747958 -0.065672414  0.000000000
     4.395683289  7.613546790  0.000000000     0.000000000  0.131344829  0.000000000
     0.000000000  0.000000000 24.361965240     0.000000000  0.000000000  0.041047592

  length of vectors
     8.791366577  8.791366577 24.361965240     0.131344829  0.131344829  0.041047592


 FORCES acting on ions
    electron-ion (+dipol)            ewald-force                    non-local-force                 convergence-correction
 -----------------------------------------------------------------------------------------------
   0.462E-04 -.281E-04 0.268E+04   -.954E-04 0.593E-04 -.268E+04   0.407E-18 0.728E-18 -.187E+01   -.106E-03 -.168E-03 -.195E+00
   0.356E+00 0.443E+00 0.268E+04   -.376E+00 -.456E+00 -.268E+04   -.168E-01 0.234E-01 -.171E+01   0.381E-01 -.101E-01 -.165E+00
   -.356E+00 0.443E+00 0.268E+04   0.376E+00 -.456E+00 -.268E+04   0.168E-01 0.234E-01 -.171E+01   -.387E-01 -.818E-02 -.165E+00
   0.562E+00 0.869E-01 0.268E+04   -.583E+00 -.973E-01 -.268E+04   0.118E-01 -.262E-01 -.171E+01   0.105E-01 0.382E-01 -.165E+00
   -.729E-05 -.196E-04 0.268E+04   0.981E-04 -.198E-05 -.268E+04   0.101E-17 -.193E-17 -.175E+01   0.624E-02 0.381E-02 -.130E+00
   -.562E+00 0.869E-01 0.268E+04   0.583E+00 -.973E-01 -.268E+04   -.118E-01 -.262E-01 -.171E+01   -.119E-01 0.392E-01 -.164E+00
   0.206E+00 -.530E+00 0.268E+04   -.207E+00 0.554E+00 -.268E+04   0.286E-01 0.287E-02 -.171E+01   -.260E-01 -.289E-01 -.165E+00
   -.206E+00 -.530E+00 0.268E+04   0.207E+00 0.554E+00 -.268E+04   -.286E-01 0.287E-02 -.171E+01   0.276E-01 -.299E-01 -.164E+00
   0.363E-04 -.130E-04 0.268E+04   0.792E-04 -.643E-04 -.268E+04   -.303E-18 -.207E-17 -.182E+01   -.666E-02 -.344E-02 -.195E+00
   0.407E+01 0.235E+01 0.901E+03   -.400E+01 -.231E+01 -.900E+03   -.177E+00 -.102E+00 -.543E+00   0.909E-01 0.525E-01 -.125E-01
   -.286E-04 0.476E+01 0.907E+03   0.412E-04 -.486E+01 -.906E+03   0.238E-12 0.363E-01 -.736E+00   0.629E-02 0.373E-01 0.511E-03
   -.407E+01 0.235E+01 0.901E+03   0.400E+01 -.231E+01 -.900E+03   0.177E+00 -.102E+00 -.543E+00   -.925E-01 0.536E-01 -.127E-01
   0.412E+01 -.238E+01 0.907E+03   -.421E+01 0.243E+01 -.906E+03   0.315E-01 -.182E-01 -.736E+00   0.353E-01 -.132E-01 0.501E-03
   -.412E+01 -.238E+01 0.907E+03   0.421E+01 0.243E+01 -.906E+03   -.315E-01 -.182E-01 -.736E+00   -.247E-01 -.140E-01 -.255E-03
   0.163E-04 0.563E+00 0.901E+03   -.108E-03 -.747E+00 -.900E+03   0.165E-12 0.251E-01 -.562E+00   -.165E-02 0.136E+00 -.440E-01
   -.783E-05 -.470E+01 0.901E+03   0.206E-04 0.462E+01 -.900E+03   0.134E-11 0.204E+00 -.543E+00   0.121E-03 -.107E+00 -.126E-01
   0.487E+00 -.281E+00 0.901E+03   -.647E+00 0.373E+00 -.900E+03   0.217E-01 -.125E-01 -.562E+00   0.117E+00 -.696E-01 -.440E-01
   -.488E+00 -.281E+00 0.901E+03   0.647E+00 0.373E+00 -.900E+03   -.217E-01 -.125E-01 -.562E+00   -.117E+00 -.677E-01 -.434E-01
   0.397E-04 0.282E+00 -.902E+03   -.128E-03 -.226E+00 0.901E+03   -.259E-12 -.395E-01 0.662E+00   -.399E-03 0.387E-03 0.133E+00
   0.846E+01 0.489E+01 -.876E+03   -.815E+01 -.471E+01 0.876E+03   -.625E+00 -.361E+00 -.488E+00   0.900E-01 0.520E-01 0.124E+00
   -.846E+01 0.489E+01 -.876E+03   0.815E+01 -.471E+01 0.876E+03   0.625E+00 -.361E+00 -.488E+00   -.901E-01 0.524E-01 0.123E+00
   0.199E+01 -.115E+01 -.894E+03   -.229E+01 0.132E+01 0.893E+03   0.320E+00 -.185E+00 0.690E+00   0.649E-03 -.660E-04 0.551E-01
   -.552E-04 -.977E+01 -.876E+03   0.426E-04 0.941E+01 0.876E+03   0.474E-11 0.721E+00 -.488E+00   0.643E-03 -.104E+00 0.123E+00
   -.199E+01 -.115E+01 -.894E+03   0.229E+01 0.132E+01 0.893E+03   -.320E+00 -.185E+00 0.690E+00   -.611E-03 -.254E-03 0.552E-01
   -.244E+00 -.141E+00 -.902E+03   0.196E+00 0.113E+00 0.901E+03   0.342E-01 0.198E-01 0.662E+00   0.153E-03 -.642E-04 0.132E+00
   0.244E+00 -.141E+00 -.902E+03   -.196E+00 0.113E+00 0.901E+03   -.342E-01 0.198E-01 0.662E+00   -.171E-03 -.662E-03 0.133E+00
   0.199E-04 0.230E+01 -.894E+03   0.110E-03 -.264E+01 0.893E+03   0.243E-11 0.369E+00 0.690E+00   -.397E-03 0.567E-03 0.551E-01
   0.539E-04 -.371E-04 -.266E+04   -.115E-03 0.778E-04 0.266E+04   -.522E-17 0.113E-16 0.198E+01   0.718E-04 -.947E-04 0.188E+00
   0.135E+02 0.237E+02 -.266E+04   -.131E+02 -.233E+02 0.265E+04   -.494E+00 -.687E+00 0.236E+01   0.421E-01 0.109E+00 0.948E-01
   -.135E+02 0.237E+02 -.266E+04   0.131E+02 -.233E+02 0.265E+04   0.494E+00 -.687E+00 0.236E+01   -.427E-01 0.111E+00 0.948E-01
   0.273E+02 -.203E+00 -.266E+04   -.268E+02 0.313E+00 0.265E+04   -.842E+00 -.842E-01 0.236E+01   0.116E+00 -.179E-01 0.948E-01
   -.273E+02 -.203E+00 -.266E+04   0.268E+02 0.312E+00 0.265E+04   0.842E+00 -.842E-01 0.236E+01   -.117E+00 -.170E-01 0.948E-01
   0.138E+02 -.235E+02 -.266E+04   -.136E+02 0.230E+02 0.265E+04   -.348E+00 0.771E+00 0.236E+01   0.749E-01 -.917E-01 0.948E-01
   -.138E+02 -.235E+02 -.266E+04   0.136E+02 0.230E+02 0.265E+04   0.348E+00 0.771E+00 0.236E+01   -.734E-01 -.924E-01 0.948E-01
   0.233E-04 -.122E-04 -.266E+04   0.106E-03 -.659E-04 0.266E+04   0.263E-17 -.327E-19 0.214E+01   -.655E-02 -.335E-02 0.225E+00
   -.849E-05 -.148E-04 -.172E+04   0.767E-04 0.950E-05 0.173E+04   0.263E-17 0.783E-18 -.726E+01   0.203E-02 0.124E-02 -.194E-03
   0.471E-04 -.278E-04 -.121E+04   0.198E-04 0.305E-06 0.122E+04   0.335E-19 -.826E-19 -.992E+01   0.755E-03 0.462E-03 -.249E-01
 -----------------------------------------------------------------------------------------------
   0.402E-03 -.726E-03 0.173E+02   0.783E-13 -.158E-12 -.159E-11   -.217E-15 -.221E-15 -.175E+02   0.908E-02 0.848E-02 0.213E+00
 
 
 POSITION                                       TOTAL-FORCE (eV/Angst)
 -----------------------------------------------------------------------------------
      0.00000      0.00000      5.28219        -0.000000     -0.000000      0.027878
      2.93046      0.00000      5.28219         0.002523      0.001411      0.028501
      5.86091      0.00000      5.28219        -0.002523      0.001411      0.028501
      1.46523      2.53785      5.28219         0.002483      0.001480      0.028501
      4.39568      2.53785      5.28219         0.000000     -0.000000     -0.005970
      7.32614      2.53785      5.28219        -0.002483      0.001480      0.028501
      2.93046      5.07570      5.28219        -0.000040     -0.002890      0.028501
      5.86091      5.07570      5.28219         0.000040     -0.002890      0.028501
      8.79137      5.07570      5.28219        -0.000000     -0.000000      0.040636
      1.46523      0.84595      7.67490        -0.012148     -0.007014     -0.009208
      4.39568      0.84595      7.67490        -0.000000     -0.035207     -0.072780
      7.32614      0.84595      7.67490         0.012148     -0.007014     -0.009208
      2.93046      3.38380      7.67490        -0.030490      0.017604     -0.072780
      5.86091      3.38380      7.67490         0.030490      0.017604     -0.072780
      8.79137      3.38380      7.67490        -0.000000     -0.022823      0.012068
      4.39568      5.92165      7.67490         0.000000      0.014027     -0.009208
      7.32614      5.92165      7.67490        -0.019765      0.011411      0.012068
     10.25659      5.92165      7.67490         0.019765      0.011411      0.012068
      8.79137      1.69450     10.06282         0.000000      0.016320      0.014649
      2.93652      1.69540     10.03056        -0.225143     -0.129986     -0.196164
      5.85484      1.69540     10.03056         0.225143     -0.129986     -0.196164
     10.25378      4.23137     10.05553         0.025702     -0.014839      0.016635
      4.39568      4.22274     10.03056         0.000000      0.259973     -0.196164
      7.32895      4.23137     10.05553        -0.025702     -0.014839      0.016635
     11.71957      6.76630     10.06282        -0.014133     -0.008160      0.014649
      5.86316      6.76630     10.06282         0.014133     -0.008160      0.014649
      8.79137      6.76435     10.05553         0.000000      0.029678      0.016635
      0.00000      0.00000     12.42400        -0.000000     -0.000000      0.008741
      2.95387      0.04433     12.43748        -0.087329     -0.165856     -0.078334
      5.83749      0.04433     12.43748         0.087329     -0.165856     -0.078334
      1.51533      2.53597     12.43748        -0.187300      0.007299     -0.078334
      7.27604      2.53597     12.43748         0.187300      0.007299     -0.078334
      2.95713      5.03325     12.43748        -0.099971      0.158557     -0.078334
      5.83423      5.03325     12.43748         0.099971      0.158557     -0.078334
      8.79137      5.07570     12.42069        -0.000000     -0.000000     -0.007673
      4.39568      2.53785     12.23056        -0.000000     -0.000000      0.912972
      4.39568      2.53785     13.91178        -0.000000     -0.000000      0.026813
 -----------------------------------------------------------------------------------
    total drift:                                0.009479      0.007757     -0.056189


--------------------------------------------------------------------------------------------------------



  FREE ENERGIE OF THE ION-ELECTRON SYSTEM (eV)
  ---------------------------------------------------
  free  energy   TOTEN  =      -103.78012118 eV

  energy  without entropy=     -103.78012118  energy(sigma->0) =     -103.78012118
 


--------------------------------------------------------------------------------------------------------


    POTLOK:  cpu time    0.0494: real time    0.0494


--------------------------------------------------------------------------------------------------------


 stress matrix after NEB project (eV)
     -6.20282     -0.00000      0.00000
     -0.00000     -6.20282     -0.00000
      0.00000      0.00000      0.29369
  FORCES: max atom, RMS     0.026813    0.004408
  FORCE total and by dimension    0.026813    0.026813
  Stress total and by dimension    8.777033    6.202824
     LOOP+:  cpu time   75.5168: real time   75.5444
 -----------------------------------------------------------------------------
|                                                                             |
|           W    W    AA    RRRRR   N    N  II  N    N   GGGG   !!!           |
|           W    W   A  A   R    R  NN   N  II  NN   N  G    G  !!!           |
|           W    W  A    A  R    R  N N  N  II  N N  N  G       !!!           |
|           W WW W  AAAAAA  RRRRR   N  N N  II  N  N N  G  GGG   !            |
|           WW  WW  A    A  R   R   N   NN  II  N   NN  G    G                |
|           W    W  A    A  R    R  N    N  II  N    N   GGGG   !!!           |
|                                                                             |
|     Tetrahedron method does not include variations of the Fermi             |
|     occupations, so forces and stress will be inaccurate. We suggest        |
|     using a different smearing scheme ISMEAR = 1 or 2 for metals in         |
|     relaxations.                                                            |
|                                                                             |
 -----------------------------------------------------------------------------

    4ORBIT:  cpu time    0.0000: real time    0.0000



 total charge

# of ion       s       p       d       tot
------------------------------------------
    1        0.416   0.204   9.177   9.797
    2        0.417   0.203   9.177   9.797
    3        0.417   0.203   9.177   9.797
    4        0.417   0.203   9.177   9.797
    5        0.419   0.201   9.178   9.799
    6        0.417   0.203   9.177   9.797
    7        0.417   0.203   9.177   9.797
    8        0.417   0.203   9.177   9.797
    9        0.412   0.205   9.176   9.793
   10        0.406   0.269   9.166   9.840
   11        0.405   0.272   9.165   9.841
   12        0.406   0.269   9.166   9.840
   13        0.405   0.272   9.165   9.841
   14        0.405   0.272   9.165   9.841
   15        0.402   0.270   9.165   9.837
   16        0.406   0.269   9.166   9.840
   17        0.402   0.270   9.165   9.837
   18        0.402   0.270   9.165   9.837
   19        0.405   0.264   9.169   9.838
   20        0.424   0.292   9.155   9.870
   21        0.424   0.292   9.155   9.870
   22        0.395   0.276   9.164   9.836
   23        0.424   0.292   9.155   9.870
   24        0.395   0.276   9.164   9.836
   25        0.405   0.264   9.169   9.838
   26        0.405   0.264   9.169   9.838
   27        0.395   0.276   9.164   9.836
   28        0.419   0.195   9.181   9.795
   29        0.410   0.211   9.179   9.800
   30        0.410   0.211   9.179   9.800
   31        0.410   0.211   9.179   9.800
   32        0.410   0.211   9.179   9.800
   33        0.410   0.211   9.179   9.800
   34        0.410   0.211   9.179   9.800
   35        0.414   0.196   9.182   9.793
   36        0.583   0.594   7.039   8.216
   37        1.017   1.237   0.000   2.254
--------------------------------------------------
tot         15.953  10.247 328.019 354.219
 
 BZINTS: Fermi energy:    0.353493;  397.000000 electrons
         Band energy:-0.147391E+04;  BLOECHL correction:   -0.079211

 total amount of memory used by VASP MPI-rank0   131379. kBytes
=======================================================================

   base      :      30000. kBytes
   nonlr-proj:      15458. kBytes
   fftplans  :       4808. kBytes
   grid      :      19857. kBytes
   one-center:        575. kBytes
   wavefun   :      60681. kBytes
 
  
  
 General timing and accounting informations for this job:
 ========================================================
  
                  Total CPU time used (sec):       83.385
                            User time (sec):       80.365
                          System time (sec):        3.020
                         Elapsed time (sec):       83.827
  
                   Maximum memory used (kb):      398148.
                   Average memory used (kb):          N/A
  
                          Minor page faults:        75000
                          Major page faults:            0
                 Voluntary context switches:         5086
