PROCAR new format
# of k-points:   10         # of bands:  252         # of ions:   37

 k-point     1 :    0.00000000 0.00000000 0.00000000     weight = 0.01562500

band     1 # energy   -9.16256268 # occ.  2.00000000
 
ion      s      p      d    tot
    1  0.000  0.000  0.000  0.000
    2  0.000  0.000  0.000  0.000
    3  0.000  0.000  0.000  0.000
    4  0.000  0.000  0.000  0.000
    5  0.000  0.000  0.000  0.000
    6  0.000  0.000  0.000  0.000
    7  0.000  0.000  0.000  0.000
    8  0.000  0.000  0.000  0.000
    9  0.000  0.000  0.000  0.000
   10  0.000  0.000  0.000  0.000
   11  0.000  0.000  0.000  0.000
   12  0.000  0.000  0.000  0.000
   13  0.000  0.000  0.000  0.000
   14  0.000  0.000  0.000  0.000
   15  0.000  0.000  0.000  0.000
   16  0.000  0.000  0.000  0.000
   17  0.000  0.000  0.000  0.000
   18  0.000  0.000  0.000  0.000
   19  0.000  0.000  0.000  0.000
   20  0.001  0.001  0.002  0.003
   21  0.001  0.001  0.002  0.003
   22  0.000  0.000  0.000  0.000
   23  0.001  0.001  0.002  0.003
   24  0.000  0.000  0.000  0.000
   25  0.000  0.000  0.000  0.000
   26  0.000  0.000  0.000  0.000
   27  0.000  0.000  0.000  0.000
   28  0.000  0.000  0.000  0.000
   29  0.001  0.000  0.001  0.001
   30  0.001  0.000  0.001  0.001
   31  0.001  0.000  0.001  0.001
   32  0.001  0.000  0.001  0.001
   33  0.001  0.000  0.001  0.001
   34  0.001  0.000  0.001  0.001
   35  0.000  0.000  0.000  0.000
   36  0.120  0.076  0.261  0.458
   37  0.436  0.025  0.000  0.461
tot    0.564  0.104  0.270  0.938
 
band     2 # energy   -6.74202126 # occ.  2.00000000
 
ion      s      p      d    tot
    1  0.006  0.001  0.000  0.007
    2  0.006  0.001  0.000  0.007
    3  0.006  0.001  0.000  0.007
    4  0.006  0.001  0.000  0.007
    5  0.006  0.001  0.000  0.007
    6  0.006  0.001  0.000  0.007
    7  0.006  0.001  0.000  0.007
    8  0.006  0.001  0.000  0.007
    9  0.006  0.001  0.000  0.007
   10  0.024  0.000  0.000  0.025
   11  0.025  0.000  0.000  0.025
   12  0.024  0.000  0.000  0.025
   13  0.025  0.000  0.000  0.025
   14  0.025  0.000  0.000  0.025
   15  0.024  0.000  0.000  0.024
   16  0.024  0.000  0.000  0.025
   17  0.024  0.000  0.000  0.024
   18  0.024  0.000  0.000  0.024
   19  0.022  0.000  0.000  0.023
   20  0.023  0.000  0.000  0.024
   21  0.023  0.000  0.000  0.024
   22  0.023  0.000  0.000  0.023
   23  0.023  0.000  0.000  0.024
   24  0.023  0.000  0.000  0.023
   25  0.022  0.000  0.000  0.023
   26  0.022  0.000  0.000  0.023
   27  0.023  0.000  0.000  0.023
   28  0.005  0.001  0.000  0.006
   29  0.005  0.001  0.000  0.005
   30  0.005  0.001  0.000  0.005
   31  0.005  0.001  0.000  0.005
   32  0.005  0.001  0.000  0.005
   33  0.005  0.001  0.000  0.005
   34  0.005  0.001  0.000  0.005
   35  0.005  0.001  0.000  0.006
   36  0.002  0.004  0.002  0.008
   37  0.003  0.000  0.000  0.003
tot    0.522  0.016  0.010  0.548
 
band     3 # energy   -5.87421589 # occ.  2.00000000
 
ion      s      p      d    tot
    1  0.007  0.000  0.000  0.008
    2  0.007  0.000  0.000  0.007
    3  0.007  0.000  0.000  0.007
    4  0.007  0.000  0.000  0.007
    5  0.007  0.000  0.000  0.007
    6  0.007  0.000  0.000  0.007
    7  0.007  0.000  0.000  0.007
    8  0.007  0.000  0.000  0.007
    9  0.007  0.000  0.000  0.007
   10  0.011  0.001  0.016  0.028
   11  0.010  0.001  0.017  0.028
   12  0.011  0.001  0.016  0.028
   13  0.010  0.001  0.017  0.028
   14  0.010  0.001  0.017  0.028
   15  0.009  0.001  0.015  0.026
   16  0.011  0.001  0.016  0.028
   17  0.009  0.001  0.015  0.026
   18  0.010  0.001  0.015  0.026
   19  0.013  0.001  0.019  0.033
   20  0.013  0.001  0.024  0.037
   21  0.013  0.001  0.024  0.037
   22  0.013  0.001  0.018  0.033
   23  0.013  0.001  0.024  0.037
   24  0.013  0.001  0.018  0.033
   25  0.013  0.001  0.019  0.033
   26  0.013  0.001  0.019  0.033
   27  0.013  0.001  0.018  0.033
   28  0.006  0.000  0.000  0.007
   29  0.005  0.000  0.000  0.006
   30  0.005  0.000  0.000  0.006
   31  0.005  0.000  0.000  0.006
   32  0.005  0.000  0.000  0.006
   33  0.005  0.000  0.000  0.006
   34  0.005  0.000  0.000  0.006
   35  0.006  0.000  0.000  0.006
   36  0.002  0.002  0.001  0.006
   37  0.002  0.000  0.000  0.002
tot    0.316  0.025  0.334  0.674
 
band     4 # energy   -5.59869227 # occ.  2.00000000
 
ion      s      p      d    tot
    1  0.018  0.000  0.023  0.041
    2  0.015  0.000  0.023  0.038
    3  0.015  0.000  0.023  0.038
    4  0.015  0.000  0.023  0.038
    5  0.014  0.000  0.023  0.036
    6  0.015  0.000  0.023  0.038
    7  0.015  0.000  0.023  0.038
    8  0.015  0.000  0.023  0.038
    9  0.014  0.000  0.022  0.036
   10  0.000  0.000  0.024  0.024
   11  0.000  0.001  0.017  0.017
   12  0.000  0.000  0.024  0.024
   13  0.000  0.001  0.017  0.017
   14  0.000  0.001  0.017  0.017
   15  0.001  0.001  0.014  0.016
   16  0.000  0.000  0.024  0.024
   17  0.001  0.001  0.014  0.016
   18  0.001  0.001  0.014  0.016
   19  0.000  0.000  0.009  0.010
   20  0.000  0.000  0.017  0.017
   21  0.000  0.000  0.017  0.017
   22  0.001  0.000  0.008  0.009
   23  0.000  0.000  0.017  0.017
   24  0.001  0.000  0.008  0.009
   25  0.000  0.000  0.009  0.010
   26  0.000  0.000  0.009  0.010
   27  0.001  0.000  0.008  0.009
   28  0.008  0.000  0.006  0.014
   29  0.007  0.000  0.008  0.015
   30  0.007  0.000  0.008  0.015
   31  0.007  0.000  0.008  0.015
   32  0.007  0.000  0.008  0.015
   33  0.007  0.000  0.008  0.015
   34  0.007  0.000  0.008  0.015
   35  0.010  0.000  0.007  0.017
   36  0.003  0.000  0.012  0.015
   37  0.000  0.000  0.000  0.000
tot    0.208  0.008  0.539  0.755
 
band     5 # energy   -5.51040693 # occ.  2.00000000
 
ion      s      p      d    tot
    1  0.000  0.000  0.006  0.007
    2  0.001  0.000  0.007  0.008
    3  0.001  0.000  0.007  0.008
    4  0.001  0.000  0.007  0.008
    5  0.005  0.000  0.003  0.008
    6  0.001  0.000  0.007  0.008
    7  0.001  0.000  0.007  0.008
    8  0.001  0.000  0.007  0.008
    9  0.003  0.000  0.001  0.004
   10  0.003  0.000  0.017  0.020
   11  0.001  0.001  0.024  0.026
   12  0.003  0.000  0.017  0.020
   13  0.001  0.001  0.024  0.026
   14  0.001  0.001  0.024  0.025
   15  0.003  0.000  0.015  0.019
   16  0.003  0.000  0.017  0.020
   17  0.003  0.000  0.015  0.019
   18  0.003  0.000  0.015  0.019
   19  0.002  0.001  0.035  0.037
   20  0.009  0.000  0.098  0.107
   21  0.009  0.000  0.098  0.107
   22  0.011  0.001  0.011  0.023
   23  0.009  0.000  0.098  0.107
   24  0.011  0.001  0.011  0.023
   25  0.002  0.001  0.035  0.037
   26  0.002  0.001  0.035  0.037
   27  0.011  0.001  0.011  0.023
   28  0.000  0.000  0.000  0.000
   29  0.000  0.000  0.004  0.005
   30  0.000  0.000  0.004  0.005
   31  0.000  0.000  0.004  0.005
   32  0.000  0.000  0.004  0.005
   33  0.000  0.000  0.004  0.005
   34  0.000  0.000  0.004  0.005
   35  0.004  0.001  0.001  0.007
   36  0.000  0.005  0.006  0.012
   37  0.003  0.001  0.000  0.003
tot    0.114  0.018  0.681  0.813
 
band     6 # energy   -5.49383209 # occ.  2.00000000
 
ion      s      p      d    tot
    1  0.000  0.000  0.009  0.009
    2  0.001  0.000  0.003  0.004
    3  0.001  0.000  0.003  0.005
    4  0.001  0.000  0.003  0.004
    5  0.000  0.000  0.004  0.004
    6  0.000  0.000  0.003  0.003
    7  0.001  0.000  0.003  0.005
    8  0.000  0.000  0.003  0.003
    9  0.000  0.000  0.002  0.002
   10  0.000  0.001  0.028  0.029
   11  0.004  0.000  0.026  0.031
   12  0.011  0.001  0.017  0.029
   13  0.003  0.001  0.025  0.029
   14  0.000  0.001  0.019  0.020
   15  0.003  0.000  0.013  0.017
   16  0.013  0.001  0.015  0.029
   17  0.003  0.000  0.016  0.019
   18  0.000  0.000  0.030  0.030
   19  0.015  0.001  0.032  0.048
   20  0.000  0.000  0.133  0.133
   21  0.020  0.001  0.044  0.065
   22  0.000  0.001  0.036  0.037
   23  0.024  0.001  0.031  0.055
   24  0.000  0.001  0.056  0.057
   25  0.000  0.002  0.015  0.017
   26  0.013  0.001  0.030  0.044
   27  0.001  0.000  0.032  0.033
   28  0.000  0.000  0.004  0.004
   29  0.000  0.000  0.005  0.006
   30  0.000  0.000  0.003  0.003
   31  0.000  0.000  0.006  0.007
   32  0.001  0.001  0.006  0.008
   33  0.000  0.000  0.003  0.004
   34  0.001  0.001  0.005  0.007
   35  0.000  0.000  0.001  0.001
   36  0.000  0.001  0.009  0.010
   37  0.000  0.001  0.000  0.001
tot    0.118  0.016  0.674  0.808
 
band     7 # energy   -5.49382950 # occ.  2.00000000
 
ion      s      p      d    tot
    1  0.000  0.000  0.009  0.009
    2  0.001  0.000  0.003  0.004
    3  0.000  0.000  0.002  0.003
    4  0.001  0.000  0.003  0.004
    5  0.000  0.000  0.004  0.004
    6  0.001  0.000  0.003  0.005
    7  0.000  0.000  0.003  0.003
    8  0.001  0.000  0.003  0.005
    9  0.000  0.000  0.002  0.002
   10  0.016  0.001  0.012  0.029
   11  0.001  0.001  0.021  0.023
   12  0.005  0.001  0.023  0.029
   13  0.001  0.001  0.022  0.024
   14  0.005  0.000  0.028  0.033
   15  0.001  0.000  0.026  0.027
   16  0.003  0.001  0.025  0.029
   17  0.001  0.000  0.024  0.025
   18  0.004  0.001  0.010  0.014
   19  0.004  0.001  0.020  0.025
   20  0.029  0.001  0.006  0.036
   21  0.009  0.000  0.094  0.103
   22  0.000  0.001  0.047  0.048
   23  0.006  0.000  0.108  0.114
   24  0.001  0.000  0.027  0.028
   25  0.019  0.000  0.036  0.056
   26  0.006  0.001  0.022  0.029
   27  0.000  0.001  0.050  0.051
   28  0.000  0.000  0.004  0.004
   29  0.001  0.001  0.004  0.006
   30  0.001  0.001  0.007  0.008
   31  0.001  0.000  0.004  0.005
   32  0.000  0.000  0.004  0.004
   33  0.001  0.001  0.007  0.008
   34  0.000  0.000  0.004  0.004
   35  0.000  0.000  0.001  0.001
   36  0.000  0.001  0.009  0.010
   37  0.000  0.001  0.000  0.001
tot    0.118  0.016  0.674  0.808
 
band     8 # energy   -5.48000741 # occ.  2.00000000
 
ion      s      p      d    tot
    1  0.000  0.000  0.001  0.001
    2  0.000  0.000  0.003  0.003
    3  0.001  0.001  0.006  0.008
    4  0.000  0.000  0.003  0.003
    5  0.000  0.000  0.008  0.009
    6  0.001  0.000  0.004  0.005
    7  0.001  0.000  0.006  0.008
    8  0.001  0.000  0.003  0.005
    9  0.000  0.000  0.004  0.004
   10  0.001  0.000  0.025  0.026
   11  0.008  0.000  0.075  0.083
   12  0.000  0.001  0.055  0.056
   13  0.006  0.000  0.080  0.086
   14  0.026  0.001  0.008  0.034
   15  0.005  0.001  0.017  0.023
   16  0.000  0.001  0.053  0.054
   17  0.004  0.001  0.016  0.021
   18  0.016  0.000  0.037  0.053
   19  0.002  0.000  0.038  0.039
   20  0.005  0.000  0.036  0.041
   21  0.001  0.001  0.027  0.029
   22  0.004  0.001  0.029  0.033
   23  0.001  0.001  0.027  0.029
   24  0.018  0.001  0.014  0.033
   25  0.005  0.000  0.011  0.016
   26  0.001  0.000  0.040  0.041
   27  0.005  0.001  0.028  0.033
   28  0.000  0.000  0.002  0.002
   29  0.001  0.000  0.003  0.005
   30  0.000  0.000  0.002  0.002
   31  0.001  0.000  0.003  0.005
   32  0.001  0.000  0.003  0.003
   33  0.000  0.000  0.002  0.002
   34  0.001  0.000  0.003  0.004
   35  0.000  0.000  0.007  0.007
   36  0.000  0.000  0.001  0.001
   37  0.000  0.000  0.000  0.000
tot    0.115  0.016  0.677  0.808
 
band     9 # energy   -5.48000398 # occ.  2.00000000
 
ion      s      p      d    tot
    1  0.000  0.000  0.001  0.001
    2  0.001  0.001  0.006  0.008
    3  0.000  0.000  0.002  0.003
    4  0.001  0.001  0.006  0.007
    5  0.000  0.000  0.008  0.009
    6  0.001  0.000  0.005  0.005
    7  0.000  0.000  0.002  0.003
    8  0.001  0.000  0.005  0.006
    9  0.000  0.000  0.004  0.004
   10  0.000  0.001  0.064  0.065
   11  0.019  0.001  0.033  0.053
   12  0.001  0.000  0.034  0.035
   13  0.021  0.001  0.028  0.049
   14  0.000  0.000  0.101  0.101
   15  0.012  0.001  0.029  0.041
   16  0.001  0.000  0.036  0.037
   17  0.013  0.001  0.030  0.043
   18  0.000  0.002  0.011  0.013
   19  0.004  0.000  0.021  0.025
   20  0.000  0.001  0.024  0.025
   21  0.004  0.001  0.033  0.037
   22  0.014  0.001  0.018  0.033
   23  0.003  0.001  0.033  0.037
   24  0.000  0.001  0.033  0.034
   25  0.000  0.000  0.048  0.048
   26  0.004  0.000  0.019  0.023
   27  0.013  0.001  0.019  0.033
   28  0.000  0.000  0.002  0.002
   29  0.000  0.000  0.002  0.002
   30  0.001  0.000  0.003  0.005
   31  0.000  0.000  0.002  0.002
   32  0.001  0.000  0.003  0.003
   33  0.001  0.000  0.003  0.005
   34  0.001  0.000  0.003  0.003
   35  0.000  0.000  0.007  0.007
   36  0.000  0.000  0.001  0.001
   37  0.000  0.000  0.000  0.000
tot    0.115  0.016  0.677  0.808
 
band    10 # energy   -5.47931720 # occ.  2.00000000
 
ion      s      p      d    tot
    1  0.001  0.000  0.001  0.002
    2  0.000  0.000  0.005  0.006
    3  0.000  0.000  0.005  0.006
    4  0.000  0.000  0.005  0.006
    5  0.004  0.001  0.004  0.010
    6  0.000  0.000  0.006  0.006
    7  0.000  0.000  0.005  0.006
    8  0.000  0.000  0.006  0.006
    9  0.001  0.000  0.003  0.004
   10  0.009  0.001  0.004  0.014
   11  0.012  0.000  0.049  0.061
   12  0.009  0.001  0.004  0.014
   13  0.012  0.000  0.049  0.061
   14  0.013  0.000  0.048  0.061
   15  0.000  0.000  0.045  0.046
   16  0.009  0.001  0.004  0.014
   17  0.000  0.000  0.045  0.046
   18  0.000  0.000  0.043  0.044
   19  0.012  0.001  0.028  0.041
   20  0.004  0.001  0.017  0.023
   21  0.005  0.001  0.018  0.024
   22  0.001  0.000  0.054  0.055
   23  0.005  0.001  0.018  0.024
   24  0.001  0.000  0.053  0.054
   25  0.013  0.001  0.028  0.041
   26  0.012  0.001  0.028  0.041
   27  0.001  0.000  0.054  0.055
   28  0.003  0.001  0.005  0.009
   29  0.000  0.000  0.003  0.003
   30  0.000  0.000  0.003  0.003
   31  0.000  0.000  0.003  0.003
   32  0.000  0.000  0.003  0.003
   33  0.000  0.000  0.003  0.003
   34  0.000  0.000  0.003  0.003
   35  0.002  0.000  0.005  0.007
   36  0.000  0.000  0.000  0.000
   37  0.000  0.000  0.000  0.000
tot    0.128  0.017  0.655  0.801
 
band    11 # energy   -5.45611343 # occ.  2.00000000
 
ion      s      p      d    tot
    1  0.000  0.001  0.017  0.018
    2  0.000  0.000  0.008  0.009
    3  0.000  0.000  0.008  0.009
    4  0.000  0.000  0.008  0.009
    5  0.001  0.000  0.003  0.004
    6  0.000  0.000  0.008  0.009
    7  0.000  0.000  0.008  0.009
    8  0.000  0.000  0.008  0.009
    9  0.008  0.001  0.001  0.010
   10  0.004  0.000  0.077  0.081
   11  0.002  0.000  0.053  0.055
   12  0.004  0.000  0.077  0.081
   13  0.002  0.000  0.053  0.055
   14  0.002  0.000  0.053  0.055
   15  0.010  0.000  0.006  0.017
   16  0.004  0.000  0.077  0.081
   17  0.010  0.000  0.006  0.017
   18  0.010  0.000  0.006  0.017
   19  0.002  0.000  0.013  0.014
   20  0.002  0.000  0.029  0.032
   21  0.002  0.000  0.029  0.032
   22  0.000  0.000  0.027  0.027
   23  0.002  0.000  0.029  0.032
   24  0.000  0.000  0.027  0.027
   25  0.002  0.000  0.013  0.014
   26  0.002  0.000  0.013  0.014
   27  0.000  0.000  0.027  0.027
   28  0.007  0.001  0.000  0.007
   29  0.000  0.000  0.008  0.009
   30  0.000  0.000  0.008  0.009
   31  0.000  0.000  0.008  0.009
   32  0.000  0.000  0.008  0.009
   33  0.000  0.000  0.008  0.009
   34  0.000  0.000  0.008  0.009
   35  0.000  0.000  0.007  0.007
   36  0.003  0.001  0.001  0.004
   37  0.000  0.000  0.000  0.000
tot    0.082  0.010  0.742  0.834
 
band    12 # energy   -5.43991171 # occ.  2.00000000
 
ion      s      p      d    tot
    1  0.000  0.000  0.000  0.001
    2  0.001  0.000  0.010  0.012
    3  0.001  0.000  0.010  0.011
    4  0.001  0.000  0.010  0.012
    5  0.004  0.000  0.000  0.004
    6  0.001  0.000  0.010  0.011
    7  0.001  0.000  0.010  0.011
    8  0.001  0.000  0.010  0.011
    9  0.003  0.000  0.021  0.024
   10  0.002  0.000  0.033  0.035
   11  0.002  0.000  0.004  0.006
   12  0.002  0.000  0.032  0.034
   13  0.002  0.000  0.004  0.006
   14  0.002  0.000  0.004  0.006
   15  0.004  0.000  0.067  0.071
   16  0.002  0.000  0.032  0.034
   17  0.004  0.000  0.067  0.071
   18  0.003  0.000  0.066  0.070
   19  0.001  0.001  0.026  0.027
   20  0.002  0.000  0.024  0.026
   21  0.002  0.000  0.023  0.026
   22  0.000  0.000  0.045  0.045
   23  0.002  0.000  0.023  0.026
   24  0.000  0.000  0.046  0.046
   25  0.001  0.000  0.026  0.028
   26  0.001  0.001  0.026  0.027
   27  0.000  0.000  0.045  0.045
   28  0.003  0.000  0.000  0.003
   29  0.003  0.000  0.010  0.012
   30  0.003  0.000  0.010  0.012
   31  0.003  0.000  0.010  0.012
   32  0.003  0.000  0.010  0.012
   33  0.003  0.000  0.010  0.012
   34  0.003  0.000  0.010  0.012
   35  0.007  0.000  0.015  0.022
   36  0.000  0.001  0.005  0.007
   37  0.000  0.000  0.000  0.001
tot    0.072  0.009  0.753  0.833
 
band    13 # energy   -5.43925441 # occ.  2.00000000
 
ion      s      p      d    tot
    1  0.000  0.000  0.015  0.015
    2  0.002  0.000  0.006  0.008
    3  0.000  0.000  0.011  0.012
    4  0.002  0.000  0.006  0.008
    5  0.000  0.000  0.007  0.007
    6  0.003  0.001  0.007  0.010
    7  0.000  0.000  0.011  0.012
    8  0.003  0.001  0.007  0.010
    9  0.000  0.000  0.007  0.008
   10  0.000  0.000  0.067  0.067
   11  0.000  0.000  0.039  0.039
   12  0.013  0.000  0.038  0.051
   13  0.000  0.000  0.040  0.040
   14  0.000  0.001  0.016  0.017
   15  0.011  0.000  0.034  0.045
   16  0.013  0.000  0.039  0.051
   17  0.011  0.000  0.032  0.043
   18  0.000  0.000  0.117  0.117
   19  0.000  0.000  0.026  0.026
   20  0.000  0.000  0.038  0.038
   21  0.002  0.000  0.016  0.018
   22  0.002  0.000  0.022  0.024
   23  0.002  0.000  0.016  0.019
   24  0.000  0.000  0.018  0.018
   25  0.000  0.000  0.029  0.029
   26  0.000  0.000  0.026  0.026
   27  0.002  0.000  0.022  0.024
   28  0.000  0.000  0.012  0.012
   29  0.001  0.000  0.004  0.005
   30  0.003  0.000  0.004  0.007
   31  0.001  0.000  0.004  0.005
   32  0.000  0.000  0.004  0.005
   33  0.003  0.000  0.004  0.007
   34  0.000  0.000  0.004  0.005
   35  0.000  0.000  0.005  0.005
   36  0.000  0.000  0.002  0.002
   37  0.000  0.000  0.000  0.000
tot    0.072  0.009  0.753  0.835
 
band    14 # energy   -5.43923086 # occ.  2.00000000
 
ion      s      p      d    tot
    1  0.000  0.000  0.015  0.015
    2  0.001  0.001  0.010  0.012
    3  0.003  0.001  0.005  0.009
    4  0.001  0.001  0.010  0.012
    5  0.000  0.000  0.007  0.007
    6  0.000  0.000  0.009  0.010
    7  0.003  0.001  0.005  0.009
    8  0.000  0.000  0.009  0.010
    9  0.000  0.000  0.007  0.008
   10  0.017  0.000  0.028  0.045
   11  0.000  0.000  0.024  0.024
   12  0.004  0.000  0.058  0.062
   13  0.000  0.000  0.023  0.024
   14  0.000  0.000  0.048  0.048
   15  0.004  0.000  0.088  0.092
   16  0.004  0.000  0.057  0.062
   17  0.003  0.000  0.090  0.093
   18  0.015  0.000  0.006  0.020
   19  0.000  0.000  0.028  0.028
   20  0.003  0.000  0.009  0.012
   21  0.001  0.000  0.031  0.032
   22  0.001  0.000  0.019  0.020
   23  0.001  0.000  0.031  0.031
   24  0.002  0.000  0.023  0.026
   25  0.000  0.000  0.025  0.025
   26  0.000  0.000  0.028  0.028
   27  0.001  0.000  0.019  0.020
   28  0.000  0.000  0.012  0.012
   29  0.002  0.000  0.004  0.006
   30  0.000  0.000  0.004  0.005
   31  0.002  0.000  0.004  0.006
   32  0.002  0.000  0.004  0.006
   33  0.000  0.000  0.004  0.005
   34  0.002  0.000  0.004  0.006
   35  0.000  0.000  0.005  0.005
   36  0.000  0.000  0.002  0.002
   37  0.000  0.000  0.000  0.000
tot    0.072  0.009  0.754  0.835
 
band    15 # energy   -5.42703529 # occ.  2.00000000
 
ion      s      p      d    tot
    1  0.000  0.000  0.006  0.006
    2  0.003  0.000  0.006  0.010
    3  0.000  0.000  0.009  0.009
    4  0.003  0.000  0.006  0.009
    5  0.000  0.000  0.008  0.009
    6  0.002  0.000  0.006  0.008
    7  0.000  0.000  0.009  0.009
    8  0.002  0.000  0.006  0.008
    9  0.000  0.000  0.019  0.019
   10  0.003  0.000  0.025  0.028
   11  0.001  0.000  0.045  0.046
   12  0.001  0.000  0.024  0.025
   13  0.001  0.000  0.044  0.045
   14  0.006  0.000  0.009  0.014
   15  0.000  0.000  0.029  0.029
   16  0.001  0.000  0.024  0.025
   17  0.000  0.000  0.029  0.030
   18  0.000  0.000  0.038  0.039
   19  0.002  0.000  0.071  0.073
   20  0.000  0.000  0.050  0.050
   21  0.000  0.000  0.023  0.023
   22  0.003  0.000  0.058  0.061
   23  0.000  0.000  0.021  0.022
   24  0.013  0.000  0.024  0.037
   25  0.009  0.000  0.007  0.016
   26  0.002  0.000  0.068  0.071
   27  0.003  0.000  0.059  0.062
   28  0.000  0.000  0.005  0.005
   29  0.000  0.000  0.007  0.008
   30  0.002  0.000  0.002  0.004
   31  0.000  0.000  0.007  0.008
   32  0.001  0.001  0.008  0.009
   33  0.002  0.000  0.002  0.004
   34  0.001  0.001  0.008  0.009
   35  0.000  0.000  0.010  0.010
   36  0.000  0.000  0.002  0.002
   37  0.000  0.000  0.000  0.000
tot    0.062  0.008  0.773  0.843
 
band    16 # energy   -5.42700482 # occ.  2.00000000
 
ion      s      p      d    tot
    1  0.000  0.000  0.006  0.006
    2  0.000  0.000  0.008  0.008
    3  0.003  0.000  0.005  0.009
    4  0.000  0.000  0.008  0.009
    5  0.000  0.000  0.008  0.009
    6  0.001  0.000  0.008  0.010
    7  0.003  0.000  0.005  0.009
    8  0.002  0.000  0.008  0.010
    9  0.000  0.000  0.019  0.019
   10  0.000  0.000  0.024  0.024
   11  0.004  0.000  0.020  0.024
   12  0.002  0.000  0.025  0.027
   13  0.004  0.000  0.021  0.025
   14  0.000  0.000  0.056  0.056
   15  0.000  0.000  0.035  0.036
   16  0.002  0.000  0.025  0.027
   17  0.000  0.000  0.035  0.035
   18  0.000  0.000  0.026  0.026
   19  0.007  0.000  0.026  0.033
   20  0.000  0.000  0.013  0.013
   21  0.000  0.000  0.040  0.040
   22  0.009  0.000  0.036  0.046
   23  0.000  0.000  0.041  0.042
   24  0.000  0.000  0.070  0.070
   25  0.000  0.000  0.091  0.091
   26  0.006  0.000  0.029  0.035
   27  0.010  0.000  0.035  0.045
   28  0.000  0.000  0.005  0.005
   29  0.002  0.001  0.004  0.007
   30  0.000  0.000  0.009  0.010
   31  0.002  0.001  0.004  0.006
   32  0.001  0.000  0.004  0.005
   33  0.000  0.000  0.009  0.010
   34  0.001  0.000  0.004  0.005
   35  0.000  0.000  0.010  0.010
   36  0.000  0.000  0.002  0.002
   37  0.000  0.000  0.000  0.000
tot    0.062  0.008  0.773  0.843
 
band    17 # energy   -5.39920174 # occ.  2.00000000
 
ion      s      p      d    tot
    1  0.010  0.000  0.006  0.016
    2  0.002  0.000  0.011  0.013
    3  0.002  0.000  0.011  0.013
    4  0.002  0.000  0.011  0.013
    5  0.000  0.000  0.018  0.019
    6  0.002  0.000  0.011  0.013
    7  0.002  0.000  0.011  0.013
    8  0.002  0.000  0.011  0.013
    9  0.000  0.000  0.003  0.003
   10  0.000  0.000  0.012  0.012
   11  0.003  0.000  0.020  0.023
   12  0.000  0.000  0.012  0.012
   13  0.003  0.000  0.020  0.023
   14  0.003  0.000  0.020  0.023
   15  0.003  0.000  0.010  0.012
   16  0.000  0.000  0.012  0.012
   17  0.003  0.000  0.010  0.012
   18  0.003  0.000  0.010  0.012
   19  0.001  0.000  0.036  0.038
   20  0.001  0.001  0.014  0.015
   21  0.001  0.001  0.014  0.015
   22  0.003  0.001  0.015  0.018
   23  0.001  0.001  0.014  0.015
   24  0.003  0.001  0.015  0.018
   25  0.001  0.000  0.036  0.038
   26  0.001  0.000  0.036  0.038
   27  0.003  0.001  0.015  0.018
   28  0.013  0.000  0.044  0.057
   29  0.012  0.000  0.023  0.035
   30  0.012  0.000  0.023  0.035
   31  0.012  0.000  0.023  0.035
   32  0.012  0.000  0.023  0.035
   33  0.012  0.000  0.023  0.035
   34  0.012  0.000  0.023  0.035
   35  0.007  0.000  0.021  0.027
   36  0.012  0.002  0.015  0.029
   37  0.001  0.000  0.000  0.002
tot    0.158  0.010  0.631  0.799
 
band    18 # energy   -5.28701282 # occ.  2.00000000
 
ion      s      p      d    tot
    1  0.000  0.000  0.001  0.001
    2  0.001  0.001  0.008  0.010
    3  0.000  0.000  0.009  0.009
    4  0.001  0.001  0.008  0.010
    5  0.000  0.001  0.014  0.015
    6  0.001  0.000  0.004  0.006
    7  0.000  0.000  0.009  0.009
    8  0.001  0.000  0.004  0.006
    9  0.000  0.001  0.012  0.012
   10  0.000  0.001  0.026  0.028
   11  0.001  0.000  0.078  0.078
   12  0.000  0.000  0.017  0.017
   13  0.001  0.000  0.078  0.079
   14  0.002  0.000  0.038  0.040
   15  0.001  0.000  0.023  0.024
   16  0.000  0.000  0.017  0.017
   17  0.001  0.000  0.023  0.024
   18  0.002  0.000  0.040  0.043
   19  0.000  0.000  0.006  0.007
   20  0.003  0.000  0.059  0.061
   21  0.001  0.000  0.081  0.082
   22  0.000  0.000  0.041  0.042
   23  0.001  0.000  0.081  0.082
   24  0.000  0.001  0.019  0.020
   25  0.001  0.001  0.032  0.034
   26  0.000  0.000  0.006  0.007
   27  0.000  0.000  0.041  0.042
   28  0.000  0.000  0.005  0.005
   29  0.000  0.000  0.005  0.006
   30  0.000  0.000  0.008  0.009
   31  0.000  0.000  0.005  0.006
   32  0.001  0.001  0.006  0.008
   33  0.000  0.000  0.008  0.009
   34  0.001  0.001  0.006  0.008
   35  0.000  0.000  0.001  0.001
   36  0.000  0.001  0.013  0.014
   37  0.000  0.001  0.000  0.001
tot    0.022  0.015  0.832  0.869
 
band    19 # energy   -5.28698982 # occ.  2.00000000
 
ion      s      p      d    tot
    1  0.000  0.000  0.001  0.001
    2  0.000  0.000  0.006  0.007
    3  0.002  0.001  0.006  0.008
    4  0.000  0.000  0.006  0.007
    5  0.000  0.001  0.014  0.015
    6  0.000  0.000  0.009  0.010
    7  0.002  0.001  0.006  0.008
    8  0.000  0.000  0.009  0.010
    9  0.000  0.001  0.012  0.012
   10  0.000  0.000  0.014  0.014
   11  0.001  0.000  0.053  0.054
   12  0.000  0.001  0.023  0.024
   13  0.001  0.000  0.052  0.054
   14  0.000  0.000  0.089  0.089
   15  0.002  0.000  0.033  0.035
   16  0.000  0.001  0.023  0.024
   17  0.002  0.000  0.033  0.035
   18  0.000  0.000  0.020  0.020
   19  0.001  0.001  0.022  0.023
   20  0.000  0.000  0.090  0.090
   21  0.002  0.000  0.065  0.067
   22  0.000  0.001  0.027  0.028
   23  0.002  0.000  0.065  0.068
   24  0.000  0.000  0.046  0.047
   25  0.000  0.000  0.000  0.000
   26  0.001  0.001  0.022  0.023
   27  0.000  0.001  0.028  0.028
   28  0.000  0.000  0.005  0.005
   29  0.001  0.001  0.008  0.009
   30  0.001  0.000  0.005  0.007
   31  0.001  0.001  0.008  0.009
   32  0.000  0.000  0.007  0.007
   33  0.001  0.000  0.005  0.007
   34  0.000  0.000  0.007  0.007
   35  0.000  0.000  0.001  0.001
   36  0.000  0.001  0.013  0.014
   37  0.000  0.001  0.000  0.001
tot    0.022  0.015  0.832  0.869
 
band    20 # energy   -5.28665107 # occ.  2.00000000
 
ion      s      p      d    tot
    1  0.001  0.000  0.000  0.002
    2  0.000  0.000  0.006  0.006
    3  0.000  0.000  0.006  0.006
    4  0.000  0.000  0.006  0.006
    5  0.000  0.000  0.011  0.011
    6  0.000  0.000  0.007  0.007
    7  0.000  0.000  0.006  0.006
    8  0.000  0.000  0.007  0.007
    9  0.002  0.001  0.007  0.011
   10  0.000  0.000  0.015  0.015
   11  0.001  0.001  0.066  0.067
   12  0.000  0.000  0.015  0.016
   13  0.001  0.001  0.066  0.067
   14  0.001  0.001  0.070  0.071
   15  0.000  0.001  0.042  0.043
   16  0.000  0.000  0.015  0.016
   17  0.000  0.001  0.042  0.043
   18  0.000  0.001  0.037  0.038
   19  0.000  0.000  0.021  0.022
   20  0.001  0.001  0.065  0.067
   21  0.001  0.001  0.067  0.068
   22  0.002  0.000  0.024  0.026
   23  0.001  0.001  0.067  0.068
   24  0.002  0.000  0.027  0.029
   25  0.000  0.000  0.017  0.017
   26  0.000  0.000  0.021  0.022
   27  0.002  0.000  0.024  0.026
   28  0.002  0.001  0.003  0.006
   29  0.000  0.000  0.011  0.011
   30  0.000  0.000  0.010  0.010
   31  0.000  0.000  0.011  0.011
   32  0.000  0.000  0.010  0.011
   33  0.000  0.000  0.010  0.010
   34  0.000  0.000  0.010  0.011
   35  0.003  0.000  0.003  0.006
   36  0.000  0.003  0.002  0.005
   37  0.002  0.000  0.000  0.002
tot    0.024  0.016  0.828  0.868
 
band    21 # energy   -5.26411715 # occ.  2.00000000
 
ion      s      p      d    tot
    1  0.001  0.000  0.008  0.009
    2  0.000  0.000  0.011  0.011
    3  0.000  0.000  0.011  0.011
    4  0.000  0.000  0.011  0.011
    5  0.004  0.001  0.000  0.005
    6  0.000  0.000  0.011  0.011
    7  0.000  0.000  0.011  0.011
    8  0.000  0.000  0.011  0.011
    9  0.001  0.000  0.004  0.005
   10  0.001  0.001  0.058  0.060
   11  0.000  0.000  0.021  0.022
   12  0.001  0.001  0.058  0.060
   13  0.000  0.000  0.021  0.022
   14  0.000  0.000  0.021  0.021
   15  0.002  0.000  0.033  0.035
   16  0.001  0.001  0.058  0.060
   17  0.002  0.000  0.033  0.035
   18  0.002  0.000  0.033  0.035
   19  0.002  0.000  0.047  0.049
   20  0.001  0.000  0.015  0.015
   21  0.001  0.000  0.015  0.016
   22  0.001  0.001  0.048  0.050
   23  0.001  0.000  0.015  0.016
   24  0.001  0.001  0.048  0.049
   25  0.002  0.000  0.048  0.050
   26  0.002  0.000  0.047  0.049
   27  0.001  0.001  0.048  0.050
   28  0.000  0.000  0.009  0.010
   29  0.000  0.000  0.009  0.009
   30  0.000  0.000  0.009  0.009
   31  0.000  0.000  0.009  0.009
   32  0.000  0.000  0.009  0.009
   33  0.000  0.000  0.009  0.009
   34  0.000  0.000  0.009  0.009
   35  0.003  0.001  0.004  0.008
   36  0.003  0.001  0.000  0.004