 vasp.6.2.0 18Jan21 (build Jun 12 2021 23:27:24) complex                        
  
 executed on             LinuxIFC date 2022.05.27  06:06:49
 running on   28 total cores
 distrk:  each k-point on   28 cores,    1 groups
 distr:  one band on NCORE=   1 cores,   28 groups


--------------------------------------------------------------------------------------------------------


 INCAR:
   ISMEAR = -5
   SIGMA = 0.1
   ISPIN = 1
   EDIFF = 1.d-5
   EDIFFG = -0.01
   NSW = 0
   NELM = 150
   ENCUT = 500
   ISIF = 2
   IBRION = 2
   LREAL = Auto
   ALGO = Fast
   ICHARG = 11
   LORBIT = 10
   LCHARG = .F.
   LWAVE = .F.

 POTCAR:    PAW_PBE Cu 22Jun2005                  
 POTCAR:    PAW_PBE Mo 08Apr2002                  
 POTCAR:    PAW_PBE N 08Apr2002                   
 -----------------------------------------------------------------------------
|                                                                             |
|           W    W    AA    RRRRR   N    N  II  N    N   GGGG   !!!           |
|           W    W   A  A   R    R  NN   N  II  NN   N  G    G  !!!           |
|           W    W  A    A  R    R  N N  N  II  N N  N  G       !!!           |
|           W WW W  AAAAAA  RRRRR   N  N N  II  N  N N  G  GGG   !            |
|           WW  WW  A    A  R   R   N   NN  II  N   NN  G    G                |
|           W    W  A    A  R    R  N    N  II  N    N   GGGG   !!!           |
|                                                                             |
|     For optimal performance we recommend to set                             |
|       NCORE = 2 up to number-of-cores-per-socket                            |
|     NCORE specifies how many cores store one orbital (NPAR=cpu/NCORE).      |
|     This setting can greatly improve the performance of VASP for DFT.       |
|     The default, NCORE=1 might be grossly inefficient on modern             |
|     multi-core architectures or massively parallel machines. Do your        |
|     own testing! More info at https://www.vasp.at/wiki/index.php/NCORE      |
|     Unfortunately you need to use the default for GW and RPA                |
|     calculations (for HF NCORE is supported but not extensively tested      |
|     yet).                                                                   |
|                                                                             |
 -----------------------------------------------------------------------------

 POTCAR:    PAW_PBE Cu 22Jun2005                  
   VRHFIN =Cu: d10 p1                                                                               
   LEXCH  = PE                                                                                      
   EATOM  =  1390.9808 eV,  102.2342 Ry                                                             
                                                                                                    
   TITEL  = PAW_PBE Cu 22Jun2005                                                                    
   LULTRA =        F    use ultrasoft PP ?                                                          
   IUNSCR =        1    unscreen: 0-lin 1-nonlin 2-no                                               
   RPACOR =    2.000    partial core radius                                                         
   POMASS =   63.546; ZVAL   =   11.000    mass and valenz                                          
   RCORE  =    2.300    outmost cutoff radius                                                       
   RWIGS  =    2.200; RWIGS  =    1.164    wigner-seitz radius (au A)                               
   ENMAX  =  295.446; ENMIN  =  221.585 eV                                                          
   ICORE  =        3    local potential                                                             
   LCOR   =        T    correct aug charges                                                         
   LPAW   =        T    paw PP                                                                      
   EAUG   =  586.980                                                                                
   DEXC   =    0.000                                                                                
   RMAX   =    2.344    core radius for proj-oper                                                   
   RAUG   =    1.300    factor for augmentation sphere                                              
   RDEP   =    2.302    radius for radial grids                                                     
   RDEPT  =    1.771    core radius for aug-charge                                                  
                                                                                                    
   Atomic configuration                                                                             
    9 entries                                                                                       
     n  l   j            E        occ.                                                              
     1  0  0.50     -8850.2468   2.0000                                                             
     2  0  0.50     -1062.3498   2.0000                                                             
     2  1  1.50      -916.8226   6.0000                                                             
     3  0  0.50      -114.6929   2.0000                                                             
     3  1  1.50       -72.1325   6.0000                                                             
     3  2  2.50        -5.0394  10.0000                                                             
     4  0  0.50        -4.6097   1.0000                                                             
     4  1  0.50        -4.0817   0.0000                                                             
     4  3  2.50        -1.3606   0.0000                                                             
   Description                                                                                      
     l       E           TYP  RCUT    TYP  RCUT                                                     
     2     -5.0393973     23  2.200                                                                 
     2     10.8846608     23  2.200                                                                 
     0     -4.6097109     23  2.200                                                                 
     0      8.2520465     23  2.200                                                                 
     1     -2.7211652     23  2.200                                                                 
     1     21.7055443     23  2.200                                                                 
     3      2.7211652     23  2.300                                                                 
  local pseudopotential read in
  partial core-charges read in
  partial kinetic energy density read in
  atomic valenz-charges read in
  non local Contribution for L=           2  read in
    real space projection operators read in
  non local Contribution for L=           2  read in
    real space projection operators read in
  non local Contribution for L=           0  read in
    real space projection operators read in
  non local Contribution for L=           0  read in
    real space projection operators read in
  non local Contribution for L=           1  read in
    real space projection operators read in
  non local Contribution for L=           1  read in
    real space projection operators read in
    PAW grid and wavefunctions read in
 
   number of l-projection  operators is LMAX  =           6
   number of lm-projection operators is LMMAX =          18
 
 POTCAR:    PAW_PBE Mo 08Apr2002                  
   VRHFIN =Mo: 4p5s4d                                                                               
   LEXCH  = PE                                                                                      
   EATOM  =   217.5176 eV,   15.9871 Ry                                                             
                                                                                                    
   TITEL  = PAW_PBE Mo 08Apr2002                                                                    
   LULTRA =        F    use ultrasoft PP ?                                                          
   IUNSCR =        1    unscreen: 0-lin 1-nonlin 2-no                                               
   RPACOR =    2.200    partial core radius                                                         
   POMASS =   95.940; ZVAL   =    6.000    mass and valenz                                          
   RCORE  =    2.750    outmost cutoff radius                                                       
   RWIGS  =    2.750; RWIGS  =    1.455    wigner-seitz radius (au A)                               
   ENMAX  =  224.584; ENMIN  =  168.438 eV                                                          
   RCLOC  =    2.111    cutoff for local pot                                                        
   LCOR   =        T    correct aug charges                                                         
   LPAW   =        T    paw PP                                                                      
   EAUG   =  345.278                                                                                
   DEXC   =    0.000                                                                                
   RMAX   =    2.821    core radius for proj-oper                                                   
   RAUG   =    1.300    factor for augmentation sphere                                              
   RDEP   =    2.815    radius for radial grids                                                     
   RDEPT  =    2.211    core radius for aug-charge                                                  
                                                                                                    
   Atomic configuration                                                                             
   12 entries                                                                                       
     n  l   j            E        occ.                                                              
     1  0  0.50    -19819.0341   2.0000                                                             
     2  0  0.50     -2799.0127   2.0000                                                             
     2  1  1.50     -2502.0276   6.0000                                                             
     3  0  0.50      -476.4448   2.0000                                                             
     3  1  1.50      -379.1496   6.0000                                                             
     3  2  2.50      -220.9367  10.0000                                                             
     4  0  0.50       -64.3378   2.0000                                                             
     4  1  1.50       -38.4773   6.0000                                                             
     4  2  2.50        -3.7535   5.0000                                                             
     5  0  0.50        -4.0862   1.0000                                                             
     5  1  0.50        -2.7701   0.0000                                                             
     4  3  2.50        -1.3606   0.0000                                                             
   Description                                                                                      
     l       E           TYP  RCUT    TYP  RCUT                                                     
     2     -3.7534765     23  2.500                                                                 
     2     -5.1140591     23  2.500                                                                 
     0     -4.0861560     23  2.600                                                                 
     0     13.6058260     23  2.600                                                                 
     1      5.4423304     23  2.750                                                                 
     1     27.2116520     23  2.750                                                                 
  local pseudopotential read in
  partial core-charges read in
  partial kinetic energy density read in
  atomic valenz-charges read in
  non local Contribution for L=           2  read in
    real space projection operators read in
  non local Contribution for L=           2  read in
    real space projection operators read in
  non local Contribution for L=           0  read in
    real space projection operators read in
  non local Contribution for L=           0  read in
    real space projection operators read in
  non local Contribution for L=           1  read in
    real space projection operators read in
  non local Contribution for L=           1  read in
    real space projection operators read in
    PAW grid and wavefunctions read in
 
   number of l-projection  operators is LMAX  =           6
   number of lm-projection operators is LMMAX =          18
 
 POTCAR:    PAW_PBE N 08Apr2002                   
   VRHFIN =N: s2p3                                                                                  
   LEXCH  = PE                                                                                      
   EATOM  =   264.5486 eV,   19.4438 Ry                                                             
                                                                                                    
   TITEL  = PAW_PBE N 08Apr2002                                                                     
   LULTRA =        F    use ultrasoft PP ?                                                          
   IUNSCR =        1    unscreen: 0-lin 1-nonlin 2-no                                               
   RPACOR =    1.200    partial core radius                                                         
   POMASS =   14.001; ZVAL   =    5.000    mass and valenz                                          
   RCORE  =    1.500    outmost cutoff radius                                                       
   RWIGS  =    1.400; RWIGS  =    0.741    wigner-seitz radius (au A)                               
   ENMAX  =  400.000; ENMIN  =  300.000 eV                                                          
   ICORE  =        2    local potential                                                             
   LCOR   =        T    correct aug charges                                                         
   LPAW   =        T    paw PP                                                                      
   EAUG   =  627.112                                                                                
   DEXC   =    0.000                                                                                
   RMAX   =    1.529    core radius for proj-oper                                                   
   RAUG   =    1.300    factor for augmentation sphere                                              
   RDEP   =    1.514    radius for radial grids                                                     
   RDEPT  =    1.338    core radius for aug-charge                                                  
                                                                                                    
   Atomic configuration                                                                             
    4 entries                                                                                       
     n  l   j            E        occ.                                                              
     1  0  0.50      -384.7179   2.0000                                                             
     2  0  0.50       -18.5828   2.0000                                                             
     2  1  0.50        -7.0898   3.0000                                                             
     3  2  1.50        -6.8029   0.0000                                                             
   Description                                                                                      
     l       E           TYP  RCUT    TYP  RCUT                                                     
     0    -18.5828119     23  1.200                                                                 
     0    -13.5018863     23  1.200                                                                 
     1     -7.0897853     23  1.500                                                                 
     1      9.5240782     23  1.500                                                                 
     2     -6.8029130      7  1.500                                                                 
  local pseudopotential read in
  partial core-charges read in
  partial kinetic energy density read in
  atomic valenz-charges read in
  non local Contribution for L=           0  read in
    real space projection operators read in
  non local Contribution for L=           0  read in
    real space projection operators read in
  non local Contribution for L=           1  read in
    real space projection operators read in
  non local Contribution for L=           1  read in
    real space projection operators read in
    PAW grid and wavefunctions read in
 
   number of l-projection  operators is LMAX  =           4
   number of lm-projection operators is LMMAX =           8
 
 Optimization of the real space projectors (new method)

 maximal supplied QI-value         = 16.25
 optimisation between [QCUT,QGAM] = [ 11.38, 22.75] = [ 36.24,144.96] Ry 
 Optimized for a Real-space Cutoff    1.52 Angstroem

   l    n(q)    QCUT    max X(q) W(low)/X(q) W(high)/X(q)  e(spline) 
   2      9    11.376     4.610    0.21E-03    0.10E-03    0.26E-06
   2      9    11.376     8.522    0.33E-03    0.16E-03    0.37E-06
   0     10    11.376    51.609    0.62E-04    0.20E-04    0.13E-06
   0     10    11.376    27.747    0.54E-04    0.20E-04    0.13E-06
   1     10    11.376    20.408    0.13E-04    0.99E-04    0.19E-06
   1     10    11.376    13.425    0.12E-04    0.87E-04    0.17E-06
 Optimization of the real space projectors (new method)

 maximal supplied QI-value         = 13.61
 optimisation between [QCUT,QGAM] = [ 11.43, 22.86] = [ 36.58,146.31] Ry 
 Optimized for a Real-space Cutoff    1.56 Angstroem

   l    n(q)    QCUT    max X(q) W(low)/X(q) W(high)/X(q)  e(spline) 
   2     10    11.429    80.908    0.27E-03    0.78E-03    0.13E-05
   2     10    11.429    79.000    0.27E-03    0.78E-03    0.13E-05
   0     11    11.429    52.066    0.33E-04    0.97E-04    0.72E-06
   0     11    11.429    24.514    0.27E-04    0.80E-04    0.60E-06
   1     10    11.429    16.033    0.31E-04    0.17E-03    0.36E-06
   1     10    11.429    11.179    0.22E-04    0.13E-03    0.29E-06
 Optimization of the real space projectors (new method)

 maximal supplied QI-value         = 25.13
 optimisation between [QCUT,QGAM] = [ 11.31, 22.87] = [ 35.82,146.48] Ry 
 Optimized for a Real-space Cutoff    1.27 Angstroem

   l    n(q)    QCUT    max X(q) W(low)/X(q) W(high)/X(q)  e(spline) 
   0      9    11.310    79.467    0.75E-04    0.16E-03    0.36E-06
   0      9    11.310    66.151    0.74E-04    0.16E-03    0.36E-06
   1      8    11.310    17.416    0.35E-03    0.12E-03    0.95E-06
   1      8    11.310    12.382    0.37E-03    0.13E-03    0.98E-06
  PAW_PBE Cu 22Jun2005                  :
 energy of atom  1       EATOM=-1390.9808
 kinetic energy error for atom=    0.0043 (will be added to EATOM!!)
  PAW_PBE Mo 08Apr2002                  :
 energy of atom  2       EATOM= -217.5176
 kinetic energy error for atom=    0.0017 (will be added to EATOM!!)
  PAW_PBE N 08Apr2002                   :
 energy of atom  3       EATOM= -264.5486
 kinetic energy error for atom=    0.0138 (will be added to EATOM!!)
 
 
 POSCAR: Cu-Mo-N2
  positions in direct lattice
  velocities in cartesian coordinates
 exchange correlation table for  LEXCH =        8
   RHO(1)=    0.500       N(1)  =     2000
   RHO(2)=  100.500       N(2)  =     4000

 VTST: version 3.2, (02/03/18)

 CHAIN: initializing optimizer
 
 OPT: Using VASP Conjugate-Gradient optimizer
 CHAIN: Read ICHAIN            0
 
 POSCAR: Cu-Mo-N2
  positions in direct lattice
  velocities in cartesian coordinates
 


--------------------------------------------------------------------------------------------------------


 ion  position               nearest neighbor table
   1  0.000  0.000  0.252-   7 2.57   3 2.57   4 2.57   2 2.57   6 2.57   8 2.57  12 2.57  10 2.57
                            16 2.57
   2  0.333  0.000  0.252-   8 2.57   9 2.57   5 2.57   1 2.57   3 2.57  11 2.57   4 2.57  10 2.57
                            17 2.57
   3  0.667  0.000  0.252-   1 2.57   7 2.57   6 2.57   9 2.57   2 2.57  12 2.57   5 2.57  18 2.57
                            11 2.57
   4  0.000  0.333  0.252-   5 2.57   6 2.57   1 2.57   7 2.57   2 2.57  13 2.57   9 2.57  10 2.57
                            15 2.57
   5  0.333  0.333  0.252-   4 2.57   2 2.57   7 2.57  13 2.57   8 2.57   6 2.57   3 2.57  11 2.57
                            14 2.57
   6  0.667  0.333  0.252-   4 2.57   9 2.57  15 2.57   3 2.57   1 2.57   8 2.57  14 2.57   5 2.57
                            12 2.57
   7  0.000  0.667  0.252-   1 2.57   3 2.57  16 2.57  18 2.57   4 2.57   5 2.57   8 2.57   9 2.57
                            13 2.57
   8  0.333  0.667  0.252-   9 2.57   2 2.57  17 2.57   6 2.57   1 2.57   7 2.57   5 2.57  14 2.57
                            16 2.57
   9  0.667  0.667  0.252-   8 2.57   6 2.57   2 2.57  17 2.57   3 2.57   7 2.57   4 2.57  15 2.57
                            18 2.57
  10  0.111  0.111  0.351-  20 2.55  26 2.56  19 2.56  11 2.57  12 2.57  13 2.57   1 2.57   2 2.57
                             4 2.57  15 2.57  16 2.57  17 2.57
  11  0.444  0.111  0.351-  20 2.56  21 2.56  10 2.57  13 2.57   2 2.57  17 2.57  14 2.57  12 2.57
                             5 2.57   3 2.57  18 2.57  27 2.57
  12  0.778  0.111  0.351-  21 2.55  19 2.56  25 2.56  15 2.57  10 2.57  14 2.57  18 2.57   3 2.57
                             1 2.57  16 2.57  11 2.57   6 2.57
  13  0.111  0.444  0.351-  23 2.56  20 2.56  16 2.57  18 2.57  10 2.57  11 2.57  14 2.57   5 2.57
                             4 2.57   7 2.57  15 2.57  22 2.57
  14  0.444  0.444  0.351-  21 2.56  23 2.56  15 2.57  17 2.57  12 2.57  16 2.57  13 2.57  11 2.57
                             6 2.57   8 2.57   5 2.57  24 2.57
  15  0.778  0.444  0.351-  19 2.56  14 2.57  17 2.57  12 2.57   6 2.57  18 2.57  10 2.57   9 2.57
                            13 2.57   4 2.57  24 2.57  22 2.57
  16  0.111  0.778  0.351-  23 2.55  25 2.56  26 2.56  18 2.57  13 2.57   7 2.57  14 2.57  17 2.57
                            12 2.57  10 2.57   8 2.57   1 2.57
  17  0.444  0.778  0.351-  26 2.56  14 2.57  15 2.57   8 2.57   9 2.57  11 2.57  16 2.57  18 2.57
                            10 2.57   2 2.57  27 2.57  24 2.57
  18  0.778  0.778  0.351-  25 2.56  16 2.57  13 2.57   7 2.57  15 2.57  12 2.57  17 2.57   9 2.57
                             3 2.57  11 2.57  22 2.57  27 2.57
  19  0.889  0.222  0.449-  15 2.56  12 2.56  10 2.56  21 2.56  20 2.56  22 2.57  24 2.57  25 2.57
                            26 2.57  28 2.57  32 2.58  31 2.58
  20  0.222  0.222  0.449-  10 2.55  11 2.56  13 2.56  26 2.56  19 2.56  27 2.57  22 2.57  23 2.57
                            21 2.57  36 2.58  29 2.60  31 2.60
  21  0.556  0.222  0.449-  12 2.55  14 2.56  11 2.56  19 2.56  25 2.56  24 2.57  27 2.57  20 2.57
                            23 2.57  36 2.58  32 2.60  30 2.60
  22  0.888  0.556  0.450-  24 2.56  27 2.56  35 2.56  19 2.57  25 2.57  23 2.57  20 2.57  18 2.57
                            15 2.57  13 2.57  31 2.58  33 2.58
  23  0.222  0.556  0.449-  16 2.55  13 2.56  14 2.56  25 2.56  26 2.56  22 2.57  24 2.57  20 2.57
                            21 2.57  36 2.58  33 2.60  34 2.60
  24  0.556  0.556  0.450-  22 2.56  27 2.56  35 2.56  19 2.57  26 2.57  21 2.57  23 2.57  15 2.57
                            17 2.57  14 2.57  32 2.58  34 2.58
  25  0.889  0.889  0.449-  18 2.56  12 2.56  16 2.56  21 2.56  23 2.56  22 2.57  27 2.57  19 2.57
                            26 2.57  28 2.57  33 2.58  30 2.58
  26  0.222  0.889  0.449-  17 2.56  10 2.56  16 2.56  20 2.56  23 2.56  27 2.57  24 2.57  25 2.57
                            19 2.57  28 2.57  29 2.58  34 2.58
  27  0.556  0.888  0.450-  24 2.56  22 2.56  35 2.56  26 2.57  25 2.57  20 2.57  21 2.57  17 2.57
                            18 2.57  11 2.57  29 2.58  30 2.58
  28  0.000  0.000  0.547-  33 2.56  30 2.56  31 2.56  29 2.56  32 2.56  34 2.56  25 2.57  19 2.57
                            26 2.57
  29  0.333  0.998  0.548-  34 2.54  28 2.56  35 2.56  27 2.58  31 2.58  26 2.58  36 2.58  30 2.58
                            20 2.60
  30  0.669  0.998  0.548-  33 2.54  28 2.56  35 2.56  27 2.58  32 2.58  25 2.58  36 2.58  29 2.58
                            21 2.60
  31  0.998  0.333  0.548-  32 2.54  28 2.56  35 2.56  22 2.58  29 2.58  19 2.58  36 2.58  33 2.58
                            20 2.60
  32  0.669  0.333  0.548-  31 2.54  28 2.56  35 2.56  24 2.58  30 2.58  19 2.58  36 2.58  34 2.58
                            21 2.60
  33  0.998  0.669  0.548-  30 2.54  28 2.56  35 2.56  22 2.58  34 2.58  25 2.58  36 2.58  31 2.58
                            23 2.60
  34  0.333  0.669  0.548-  29 2.54  28 2.56  35 2.56  24 2.58  33 2.58  26 2.58  36 2.58  32 2.58
                            23 2.60
  35  0.667  0.667  0.548-  34 2.56  32 2.56  29 2.56  30 2.56  33 2.56  31 2.56  24 2.56  27 2.56
                            22 2.56
  36  0.333  0.333  0.547-  38 2.35  37 2.35  23 2.58  20 2.58  21 2.58  31 2.58  29 2.58  33 2.58
                            34 2.58  32 2.58  30 2.58
  37  0.258  0.334  0.654-  38 1.15  36 2.35
  38  0.408  0.334  0.654-  37 1.15  36 2.35
 
  LATTYP: Found a hexagonal cell.
 ALAT       =     7.6967864036
 C/A-ratio  =     2.7653617908
  
  Lattice vectors:
  
 A1 = (  -3.8483927580,  -6.6656128093,   0.0000000000)
 A2 = (   7.6967864037,   0.0000000000,   0.0000000000)
 A3 = (   0.0000000000,   0.0000000000,  21.2843990326)


Analysis of symmetry for initial positions (statically):
=====================================================================
 Subroutine PRICEL returns:
 Original cell was already a primitive cell.
 

 Routine SETGRP: Setting up the symmetry group for a 
 hexagonal supercell.


 Subroutine GETGRP returns: Found  2 space group operations
 (whereof  2 operations were pure point group operations)
 out of a pool of 24 trial point group operations.


The static configuration has the point symmetry C_1h.


Analysis of symmetry for dynamics (positions and initial velocities):
=====================================================================
 Subroutine PRICEL returns:
 Original cell was already a primitive cell.
 

 Routine SETGRP: Setting up the symmetry group for a 
 hexagonal supercell.


 Subroutine GETGRP returns: Found  2 space group operations
 (whereof  2 operations were pure point group operations)
 out of a pool of 24 trial point group operations.


The dynamic configuration has the point symmetry C_1h.


Analysis of constrained symmetry for selective dynamics:
=====================================================================
 Subroutine PRICEL returns:
 Original cell was already a primitive cell.
 

 Routine SETGRP: Setting up the symmetry group for a 
 hexagonal supercell.


 Subroutine GETGRP returns: Found  2 space group operations
 (whereof  2 operations were pure point group operations)
 out of a pool of 24 trial point group operations.


The constrained configuration has the point symmetry C_1h.


 Subroutine INISYM returns: Found  2 space group operations
 (whereof  2 operations are pure point group operations),
 and found     1 'primitive' translations


----------------------------------------------------------------------------------------

                                     Primitive cell                                     

  volume of cell :    1091.9705

  direct lattice vectors                    reciprocal lattice vectors
     7.696786404  0.000000000  0.000000000     0.129924354 -0.075011849  0.000000000
     3.848392758  6.665612809  0.000000000     0.000000000  0.150023716  0.000000000
     0.000000000  0.000000000 21.284399033     0.000000000  0.000000000  0.046982769

  length of vectors
     7.696786404  7.696786404 21.284399033     0.150023716  0.150023716  0.046982769

  position of ions in fractional coordinates (direct lattice)
     0.000000000  0.000000000  0.252370745
     0.333333343  0.000000000  0.252370745
     0.666666687  0.000000000  0.252370745
     1.000000000  0.333333343  0.252370745
     0.333333313  0.333333343  0.252370745
     0.666666687  0.333333343  0.252370745
     1.000000000  0.666666687  0.252370745
     0.333333373  0.666666687  0.252370745
     0.666666627  0.666666687  0.252370745
     0.111111119  0.111111112  0.350790262
     0.444444418  0.111111112  0.350790262
     0.777777791  0.111111112  0.350790262
     0.111111119  0.444444448  0.350790262
     0.444444478  0.444444448  0.350790262
     0.777777731  0.444444448  0.350790262
     0.111111112  0.777777731  0.350790262
     0.444444478  0.777777731  0.350790262
     0.777777851  0.777777731  0.350790262
     0.888886506  0.222227003  0.448748197
     0.221816565  0.221816550  0.448510760
     0.556366930  0.221816550  0.448510760
     0.888394348  0.555802796  0.449539518
     0.221816535  0.556366870  0.448510760
     0.555802856  0.555802796  0.449539518
     0.888886506  0.888886506  0.448748197
     0.222227018  0.888886506  0.448748197
     0.555802796  0.888394348  0.449539518
     0.000000000  0.000000000  0.547194832
     0.333056894  0.998175094  0.548454016
     0.668768042  0.998175094  0.548454016
     0.998175094  0.333056894  0.548454016
     0.668768042  0.333056894  0.548454016
     0.998175094  0.668768042  0.548454016
     0.333056924  0.668768042  0.548454016
     0.666666627  0.666666687  0.547808983
     0.333333313  0.333333343  0.547344952
     0.258044568  0.334015232  0.654338257
     0.407940169  0.334015232  0.654338257

  ion indices of the primitive-cell ions
   primitive index   ion index
                 1           1
                 2           2
                 3           3
                 4           4
                 5           5
                 6           6
                 7           7
                 8           8
                 9           9
                10          10
                11          11
                12          12
                13          13
                14          14
                15          15
                16          16
                17          17
                18          18
                19          19
                20          20
                21          21
                22          22
                23          23
                24          24
                25          25
                26          26
                27          27
                28          28
                29          29
                30          30
                31          31
                32          32
                33          33
                34          34
                35          35
                36          36
                37          37
                38          38

----------------------------------------------------------------------------------------

 
 
 KPOINTS: Automatic mesh                          

Automatic generation of k-mesh.
 Grid dimensions read from file:
 generate k-points for:    8    8    1

 Generating k-lattice:

  Cartesian coordinates                     Fractional coordinates (reciprocal lattice)
     0.016240544 -0.009376481  0.000000000     0.125000000 -0.000000000  0.000000000
     0.000000000  0.018752964  0.000000000     0.000000000  0.125000000  0.000000000
     0.000000000  0.000000000  0.046982769     0.000000000  0.000000000  1.000000000

  Length of vectors
     0.018752964  0.018752964  0.046982769

  Shift w.r.t. Gamma in fractional coordinates (k-lattice)
     0.000000000  0.000000000  0.000000000

 TETIRR: Found    100 inequivalent tetrahedra from      384
 
 Subroutine IBZKPT returns following result:
 ===========================================
 
 Found     21 irreducible k-points:
 
 Following reciprocal coordinates:
            Coordinates               Weight
  0.000000  0.000000  0.000000      1.000000
  0.125000 -0.000000  0.000000      4.000000
  0.000000  0.125000  0.000000      2.000000
  0.250000 -0.000000  0.000000      4.000000
  0.000000  0.250000  0.000000      2.000000
  0.375000 -0.000000  0.000000      4.000000
  0.000000  0.375000  0.000000      2.000000
  0.500000 -0.000000  0.000000      2.000000
  0.000000  0.500000  0.000000      1.000000
  0.250000  0.125000  0.000000      2.000000
  0.125000  0.250000  0.000000      4.000000
  0.375000  0.125000  0.000000      4.000000
  0.250000  0.375000  0.000000      4.000000
 -0.125000  0.250000  0.000000      4.000000
  0.500000  0.125000  0.000000      4.000000
  0.375000  0.500000  0.000000      4.000000
 -0.125000  0.375000  0.000000      4.000000
  0.500000  0.250000  0.000000      2.000000
  0.250000  0.500000  0.000000      4.000000
 -0.375000  0.250000  0.000000      4.000000
 -0.250000  0.375000  0.000000      2.000000
 
 Following cartesian coordinates:
            Coordinates               Weight
  0.000000  0.000000  0.000000      1.000000
  0.016241 -0.009376  0.000000      4.000000
  0.000000  0.018753  0.000000      2.000000
  0.032481 -0.018753  0.000000      4.000000
  0.000000  0.037506  0.000000      2.000000
  0.048722 -0.028129  0.000000      4.000000
  0.000000  0.056259  0.000000      2.000000
  0.064962 -0.037506  0.000000      2.000000
  0.000000  0.075012  0.000000      1.000000
  0.032481  0.000000  0.000000      2.000000
  0.016241  0.028129  0.000000      4.000000
  0.048722 -0.009376  0.000000      4.000000
  0.032481  0.037506  0.000000      4.000000
 -0.016241  0.046882  0.000000      4.000000
  0.064962 -0.018753  0.000000      4.000000
  0.048722  0.046882  0.000000      4.000000
 -0.016241  0.065635  0.000000      4.000000
  0.064962  0.000000  0.000000      2.000000
  0.032481  0.056259  0.000000      4.000000
 -0.048722  0.065635  0.000000      4.000000
 -0.032481  0.075012  0.000000      2.000000
 


--------------------------------------------------------------------------------------------------------




 Dimension of arrays:
   k-points           NKPTS =     21   k-points in BZ     NKDIM =     21   number of bands    NBANDS=    252
   number of dos      NEDOS =    301   number of ions     NIONS =     38
   non local maximal  LDIM  =      6   non local SUM 2l+1 LMDIM =     18
   total plane-waves  NPLWV = 211680
   max r-space proj   IRMAX =   3157   max aug-charges    IRDMAX=  12644
   dimension x,y,z NGX =    42 NGY =   42 NGZ =  120
   dimension x,y,z NGXF=    84 NGYF=   84 NGZF=  240
   support grid    NGXF=    84 NGYF=   84 NGZF=  240
   ions per type =              35   1   2
   NGX,Y,Z   is equivalent  to a cutoff of   9.07,  9.07,  9.37 a.u.
   NGXF,Y,Z  is equivalent  to a cutoff of  18.14, 18.14, 18.75 a.u.

 SYSTEM =  unknown system                          
 POSCAR =  Cu-Mo-N2                                

 Startparameter for this run:
   NWRITE =      2    write-flag & timer
   PREC   = normal    normal or accurate (medium, high low for compatibility)
   ISTART =      0    job   : 0-new  1-cont  2-samecut
   ICHARG =     11    charge: 1-file 2-atom 10-const
   ISPIN  =      1    spin polarized calculation?
   LNONCOLLINEAR =      F non collinear calculations
   LSORBIT =      F    spin-orbit coupling
   INIWAV =      1    electr: 0-lowe 1-rand  2-diag
   LASPH  =      F    aspherical Exc in radial PAW
   METAGGA=      F    non-selfconsistent MetaGGA calc.

 Electronic Relaxation 1
   ENCUT  =  500.0 eV  36.75 Ry    6.06 a.u.  14.03 14.03 38.81*2*pi/ulx,y,z
   ENINI  =  500.0     initial cutoff
   ENAUG  =  627.1 eV  augmentation charge cutoff
   NELM   =    150;   NELMIN=  2; NELMDL= -5     # of ELM steps 
   EDIFF  = 0.1E-04   stopping-criterion for ELM
   LREAL  =      T    real-space projection
   NLSPLINE    = F    spline interpolate recip. space projectors
   LCOMPAT=      F    compatible to vasp.4.4
   GGA_COMPAT  = T    GGA compatible to vasp.4.4-vasp.4.6
   LMAXPAW     = -100 max onsite density
   LMAXMIX     =    2 max onsite mixed and CHGCAR
   VOSKOWN=      0    Vosko Wilk Nusair interpolation
   ROPT   =   -0.00050  -0.00050  -0.00050
 Ionic relaxation
   EDIFFG = -.1E-01   stopping-criterion for IOM
   NSW    =      0    number of steps for IOM
   NBLOCK =      1;   KBLOCK =      1    inner block; outer block 
   IBRION =     -1    ionic relax: 0-MD 1-quasi-New 2-CG
   NFREE  =      1    steps in history (QN), initial steepest desc. (CG)
   ISIF   =      2    stress and relaxation
   IWAVPR =     10    prediction:  0-non 1-charg 2-wave 3-comb
   ISYM   =      2    0-nonsym 1-usesym 2-fastsym
   LCORR  =      T    Harris-Foulkes like correction to forces

   POTIM  = 0.5000    time-step for ionic-motion
   TEIN   =    0.0    initial temperature
   TEBEG  =    0.0;   TEEND  =   0.0 temperature during run
   SMASS  =  -3.00    Nose mass-parameter (am)
   estimated Nose-frequenzy (Omega)   =  0.10E-29 period in steps = 0.13E+47 mass=  -0.135E-26a.u.
   SCALEE = 1.0000    scale energy and forces
   NPACO  =    256;   APACO  = 16.0  distance and # of slots for P.C.
   PSTRESS=    0.0 pullay stress

  Mass of Ions in am
   POMASS =  63.55 95.94 14.00
  Ionic Valenz
   ZVAL   =  11.00  6.00  5.00
  Atomic Wigner-Seitz radii
   RWIGS  =  -1.00 -1.00 -1.00
  virtual crystal weights 
   VCA    =   1.00  1.00  1.00
   NELECT =     401.0000    total number of electrons
   NUPDOWN=      -1.0000    fix difference up-down

 DOS related values:
   EMIN   =  10.00;   EMAX   =-10.00  energy-range for DOS
   EFERMI =   0.00
   ISMEAR =    -5;   SIGMA  =   0.10  broadening in eV -4-tet -1-fermi 0-gaus

 Electronic relaxation 2 (details)
   IALGO  =     68    algorithm
   LDIAG  =      T    sub-space diagonalisation (order eigenvalues)
   LSUBROT=      F    optimize rotation matrix (better conditioning)
   TURBO    =      0    0=normal 1=particle mesh
   IRESTART =      0    0=no restart 2=restart with 2 vectors
   NREBOOT  =      0    no. of reboots
   NMIN     =      0    reboot dimension
   EREF     =   0.00    reference energy to select bands
   IMIX   =      4    mixing-type and parameters
     AMIX     =   0.40;   BMIX     =  1.00
     AMIX_MAG =   1.60;   BMIX_MAG =  1.00
     AMIN     =   0.10
     WC   =   100.;   INIMIX=   1;  MIXPRE=   1;  MAXMIX= -45

 Intra band minimization:
   WEIMIN = 0.0000     energy-eigenvalue tresh-hold
   EBREAK =  0.99E-08  absolut break condition
   DEPER  =   0.30     relativ break condition  

   TIME   =   0.40     timestep for ELM

  volume/ion in A,a.u.               =      28.74       193.92
  Fermi-wavevector in a.u.,A,eV,Ry     =   1.172337  2.215397 18.699510  1.374375
  Thomas-Fermi vector in A             =   2.308768
 
 Write flags
   LWAVE        =      F    write WAVECAR
   LDOWNSAMPLE  =      F    k-point downsampling of WAVECAR
   LCHARG       =      F    write CHGCAR
   LVTOT        =      F    write LOCPOT, total local potential
   LVHAR        =      F    write LOCPOT, Hartree potential only
   LELF         =      F    write electronic localiz. function (ELF)
   LORBIT       =     10    0 simple, 1 ext, 2 COOP (PROOUT), +10 PAW based schemes


 Dipole corrections
   LMONO  =      F    monopole corrections only (constant potential shift)
   LDIPOL =      F    correct potential (dipole corrections)
   IDIPOL =      0    1-x, 2-y, 3-z, 4-all directions 
   EPSILON=  1.0000000 bulk dielectric constant

 Exchange correlation treatment:
   GGA     =    --    GGA type
   LEXCH   =     8    internal setting for exchange type
   VOSKOWN=      0    Vosko Wilk Nusair interpolation
   LHFCALC =     F    Hartree Fock is set to
   LHFONE  =     F    Hartree Fock one center treatment
   AEXX    =    0.0000 exact exchange contribution

 Linear response parameters
   LEPSILON=     F    determine dielectric tensor
   LRPA    =     F    only Hartree local field effects (RPA)
   LNABLA  =     F    use nabla operator in PAW spheres
   LVEL    =     F    velocity operator in full k-point grid
   LINTERFAST=   F  fast interpolation
   KINTER  =     0    interpolate to denser k-point grid
   CSHIFT  =0.1000    complex shift for real part using Kramers Kronig
   OMEGAMAX=  -1.0    maximum frequency
   DEG_THRESHOLD= 0.2000000E-02 threshold for treating states as degnerate
   RTIME   =   -0.100 relaxation time in fs
  (WPLASMAI=    0.000 imaginary part of plasma frequency in eV, 0.658/RTIME)
   DFIELD  = 0.0000000 0.0000000 0.0000000 field for delta impulse in time
 
 Orbital magnetization related:
   ORBITALMAG=     F  switch on orbital magnetization
   LCHIMAG   =     F  perturbation theory with respect to B field
   DQ        =  0.001000  dq finite difference perturbation B field
   LLRAUG    =     F  two centre corrections for induced B field



--------------------------------------------------------------------------------------------------------


 Static calculation
 charge density and potential remain constant during run
 non-spin polarized calculation
 RMM-DIIS sequential band-by-band and
  variant of blocked Davidson during initial phase
 perform sub-space diagonalisation
    before iterative eigenvector-optimisation
 no mixing
 using additional bands           51
 real space projection scheme for non local part
 use partial core corrections
 calculate Harris-corrections to forces 
   (improved forces if not selfconsistent)
 use gradient corrections 
 WARNING: stress and forces are not correct
  (second derivative of E(xc) not defined)
 use of overlap-Matrix (Vanderbilt PP)
 Fermi weights with tetrahedron method with Bloechl corrections


--------------------------------------------------------------------------------------------------------


  energy-cutoff  :      500.00
  volume of cell :     1091.97
      direct lattice vectors                 reciprocal lattice vectors
     7.696786404  0.000000000  0.000000000     0.129924354 -0.075011849  0.000000000
     3.848392758  6.665612809  0.000000000     0.000000000  0.150023716  0.000000000
     0.000000000  0.000000000 21.284399033     0.000000000  0.000000000  0.046982769

  length of vectors
     7.696786404  7.696786404 21.284399033     0.150023716  0.150023716  0.046982769


 
 k-points in units of 2pi/SCALE and weight: Automatic mesh                          
   0.00000000  0.00000000  0.00000000       0.016
   0.01624054 -0.00937648  0.00000000       0.062
   0.00000000  0.01875296  0.00000000       0.031
   0.03248109 -0.01875296  0.00000000       0.062
   0.00000000  0.03750593  0.00000000       0.031
   0.04872163 -0.02812944  0.00000000       0.062
   0.00000000  0.05625889  0.00000000       0.031
   0.06496218 -0.03750592  0.00000000       0.031
   0.00000000  0.07501186  0.00000000       0.016
   0.03248109  0.00000000  0.00000000       0.031
   0.01624054  0.02812945  0.00000000       0.062
   0.04872163 -0.00937648  0.00000000       0.062
   0.03248109  0.03750593  0.00000000       0.062
  -0.01624054  0.04688241  0.00000000       0.062
   0.06496218 -0.01875296  0.00000000       0.062
   0.04872163  0.04688241  0.00000000       0.062
  -0.01624054  0.06563537  0.00000000       0.062
   0.06496218  0.00000000  0.00000000       0.031
   0.03248109  0.05625890  0.00000000       0.062
  -0.04872163  0.06563537  0.00000000       0.062
  -0.03248109  0.07501186  0.00000000       0.031
 
 k-points in reciprocal lattice and weights: Automatic mesh                          
   0.00000000  0.00000000  0.00000000       0.016
   0.12500000 -0.00000000  0.00000000       0.062
   0.00000000  0.12500000  0.00000000       0.031
   0.25000000 -0.00000000  0.00000000       0.062
   0.00000000  0.25000000  0.00000000       0.031
   0.37500000 -0.00000000  0.00000000       0.062
   0.00000000  0.37500000  0.00000000       0.031
   0.50000000 -0.00000000  0.00000000       0.031
   0.00000000  0.50000000  0.00000000       0.016
   0.25000000  0.12500000  0.00000000       0.031
   0.12500000  0.25000000  0.00000000       0.062
   0.37500000  0.12500000  0.00000000       0.062
   0.25000000  0.37500000  0.00000000       0.062
  -0.12500000  0.25000000  0.00000000       0.062
   0.50000000  0.12500000  0.00000000       0.062
   0.37500000  0.50000000  0.00000000       0.062
  -0.12500000  0.37500000  0.00000000       0.062
   0.50000000  0.25000000  0.00000000       0.031
   0.25000000  0.50000000  0.00000000       0.062
  -0.37500000  0.25000000  0.00000000       0.062
  -0.25000000  0.37500000  0.00000000       0.031
 
 position of ions in fractional coordinates (direct lattice) 
   0.00000000  0.00000000  0.25237075
   0.33333334  0.00000000  0.25237075
   0.66666669  0.00000000  0.25237075
   0.00000000  0.33333334  0.25237075
   0.33333331  0.33333334  0.25237075
   0.66666669  0.33333334  0.25237075
   0.00000000  0.66666669  0.25237075
   0.33333337  0.66666669  0.25237075
   0.66666663  0.66666669  0.25237075
   0.11111112  0.11111111  0.35079026
   0.44444442  0.11111111  0.35079026
   0.77777779  0.11111111  0.35079026
   0.11111112  0.44444445  0.35079026
   0.44444448  0.44444445  0.35079026
   0.77777773  0.44444445  0.35079026
   0.11111111  0.77777773  0.35079026
   0.44444448  0.77777773  0.35079026
   0.77777785  0.77777773  0.35079026
   0.88888651  0.22222700  0.44874820
   0.22181657  0.22181655  0.44851076
   0.55636693  0.22181655  0.44851076
   0.88839435  0.55580280  0.44953952
   0.22181654  0.55636687  0.44851076
   0.55580286  0.55580280  0.44953952
   0.88888651  0.88888651  0.44874820
   0.22222702  0.88888651  0.44874820
   0.55580280  0.88839435  0.44953952
   0.00000000  0.00000000  0.54719483
   0.33305689  0.99817509  0.54845402
   0.66876804  0.99817509  0.54845402
   0.99817509  0.33305689  0.54845402
   0.66876804  0.33305689  0.54845402
   0.99817509  0.66876804  0.54845402
   0.33305692  0.66876804  0.54845402
   0.66666663  0.66666669  0.54780898
   0.33333331  0.33333334  0.54734495
   0.25804457  0.33401523  0.65433826
   0.40794017  0.33401523  0.65433826
 
 position of ions in cartesian coordinates  (Angst):
   0.00000000  0.00000000  5.37155964
   2.56559554  0.00000000  5.37155964
   5.13119109  0.00000000  5.37155964
   1.28279762  2.22187100  5.37155964
   3.84839293  2.22187100  5.37155964
   6.41398872  2.22187100  5.37155964
   2.56559525  4.44374201  5.37155964
   5.13119102  4.44374201  5.37155964
   7.69678588  4.44374201  5.37155964
   1.28279775  0.74062365  7.46635991
   3.84839295  0.74062365  7.46635991
   6.41398873  0.74062365  7.46635991
   2.56559535  2.96249461  7.46635991
   5.13119101  2.96249461  7.46635991
   7.69678586  2.96249461  7.46635991
   3.84839268  5.18436521  7.46635991
   6.41398840  5.18436521  7.46635991
   8.97958418  5.18436521  7.46635991
   7.69678637  1.48127916  9.55133570
   2.56091193  1.47854324  9.54628198
   5.13587463  1.47854324  9.54628198
   8.97672899  3.70476624  9.56817847
   3.84839272  3.70852613  9.54628198
   6.41684332  3.70476624  9.56817847
  10.26235397  5.92497328  9.55133570
   5.13121829  5.92497328  9.55133570
   7.69678578  5.92169275  9.56817847
   0.00000000  0.00000000 11.64671316
   6.40483758  6.65344869 11.67351414
   8.98873458  6.65344869 11.67351414
   8.96447423  2.22002830 11.67351414
   6.42909851  2.22002830 11.67351414
  10.25642258  4.45774883 11.67351414
   5.13715010  4.45774883 11.67351414
   7.69678588  4.44374201 11.65978498
   3.84839293  2.22187100 11.64990836
   3.27153572  2.22641621 13.92719656
   4.42525015  2.22641621 13.92719656
 


--------------------------------------------------------------------------------------------------------


 k-point   1 :   0.0000 0.0000 0.0000  plane waves:   27671
 k-point   2 :   0.1250-0.0000 0.0000  plane waves:   27649
 k-point   3 :   0.0000 0.1250 0.0000  plane waves:   27649
 k-point   4 :   0.2500-0.0000 0.0000  plane waves:   27714
 k-point   5 :   0.0000 0.2500 0.0000  plane waves:   27714
 k-point   6 :   0.3750-0.0000 0.0000  plane waves:   27740
 k-point   7 :   0.0000 0.3750 0.0000  plane waves:   27740
 k-point   8 :   0.5000-0.0000 0.0000  plane waves:   27782
 k-point   9 :   0.0000 0.5000 0.0000  plane waves:   27782
 k-point  10 :   0.2500 0.1250 0.0000  plane waves:   27698
 k-point  11 :   0.1250 0.2500 0.0000  plane waves:   27698
 k-point  12 :   0.3750 0.1250 0.0000  plane waves:   27702
 k-point  13 :   0.2500 0.3750 0.0000  plane waves:   27702
 k-point  14 :  -0.1250 0.2500 0.0000  plane waves:   27702
 k-point  15 :   0.5000 0.1250 0.0000  plane waves:   27747
 k-point  16 :   0.3750 0.5000 0.0000  plane waves:   27747
 k-point  17 :  -0.1250 0.3750 0.0000  plane waves:   27747
 k-point  18 :   0.5000 0.2500 0.0000  plane waves:   27734
 k-point  19 :   0.2500 0.5000 0.0000  plane waves:   27734
 k-point  20 :  -0.3750 0.2500 0.0000  plane waves:   27782
 k-point  21 :  -0.2500 0.3750 0.0000  plane waves:   27782

 maximum and minimum number of plane-waves per node :     27782    27649

 maximum number of plane-waves:     27782
 maximum index in each direction: 
   IXMAX=   14   IYMAX=   14   IZMAX=   38
   IXMIN=  -14   IYMIN=  -14   IZMIN=  -38


 serial   3D FFT for wavefunctions
 parallel 3D FFT for charge:
    minimum data exchange during FFTs selected (reduces bandwidth)


 total amount of memory used by VASP MPI-rank0   150080. kBytes
=======================================================================

   base      :      30000. kBytes
   nonlr-proj:      18073. kBytes
   fftplans  :       2916. kBytes
   grid      :      12390. kBytes
   one-center:        590. kBytes
   wavefun   :      86111. kBytes
 
     INWAV:  cpu time    0.0000: real time    0.0000
 initial charge density was supplied:
 number of electron     401.0000122 magnetization 
 keeping initial charge density in first step


--------------------------------------------------------------------------------------------------------


 Maximum index for non-local projection operator         3024
 Maximum index for augmentation-charges          586 (set IRDMAX)


--------------------------------------------------------------------------------------------------------


 First call to EWALD:  gamma=   0.172
 Maximum number of real-space cells 4x 4x 2
 Maximum number of reciprocal cells 2x 2x 5

    FEWALD:  cpu time    0.0013: real time    0.0014


--------------------------------------- Iteration      1(   1)  ---------------------------------------


    POTLOK:  cpu time    0.0264: real time    0.0267
    SETDIJ:  cpu time    0.0043: real time    0.0044
     EDDAV:  cpu time   11.9698: real time   11.9715
 BZINTS: Fermi energy:   14.197265;  401.000000 electrons
         Band energy: 0.266294E+04;  BLOECHL correction:   -0.024979
       DOS:  cpu time    0.0283: real time    0.0283
    --------------------------------------------
      LOOP:  cpu time   12.0288: real time   12.0309

 eigenvalue-minimisations  : 10584
 total energy-change (2. order) : 0.3644078E+04  (-0.1724744E+05)
 number of electron     401.0000122 magnetization 
 augmentation part      401.0000122 magnetization 

 Free energy of the ion-electron system (eV)
  ---------------------------------------------------
  alpha Z        PSCENC =       912.35629578
  Ewald energy   TEWEN  =    143569.30868054
  -Hartree energ DENC   =   -190766.38058829
  -exchange      EXHF   =         0.00000000
  -V(xc)+E(xc)   XCENC  =      1536.68829818
  PAW double counting   =     47001.53708151   -50703.13752336
  entropy T*S    EENTRO =         0.00000000
  eigenvalues    EBANDS =      2662.94151578
  atomic energy  EATOM  =     49430.76467232
  Solvation  Ediel_sol  =         0.00000000
  ---------------------------------------------------
  free energy    TOTEN  =      3644.07843245 eV

  energy without entropy =     3644.07843245  energy(sigma->0) =     3644.07843245


--------------------------------------------------------------------------------------------------------




--------------------------------------- Iteration      1(   2)  ---------------------------------------


     EDDAV:  cpu time   11.9537: real time   11.9540
 BZINTS: Fermi energy:    3.441076;  401.000000 electrons
         Band energy:-0.606352E+03;  BLOECHL correction:   -0.034142
       DOS:  cpu time    0.0306: real time    0.0306
    --------------------------------------------
      LOOP:  cpu time   11.9843: real time   11.9845

 eigenvalue-minimisations  : 10584
 total energy-change (2. order) :-0.3269293E+04  (-0.3143414E+04)
 number of electron     401.0000122 magnetization 
 augmentation part      401.0000122 magnetization 

 Free energy of the ion-electron system (eV)
  ---------------------------------------------------
  alpha Z        PSCENC =       912.35629578
  Ewald energy   TEWEN  =    143569.30868054
  -Hartree energ DENC   =   -190766.38058829
  -exchange      EXHF   =         0.00000000
  -V(xc)+E(xc)   XCENC  =      1536.68829818
  PAW double counting   =     47001.53708151   -50703.13752336
  entropy T*S    EENTRO =         0.00000000
  eigenvalues    EBANDS =      -606.35187878
  atomic energy  EATOM  =     49430.76467232
  Solvation  Ediel_sol  =         0.00000000
  ---------------------------------------------------
  free energy    TOTEN  =       374.78503789 eV

  energy without entropy =      374.78503789  energy(sigma->0) =      374.78503789


--------------------------------------------------------------------------------------------------------




--------------------------------------- Iteration      1(   3)  ---------------------------------------


     EDDAV:  cpu time   12.9371: real time   12.9374
 BZINTS: Fermi energy:    0.580292;  401.000000 electrons
         Band energy:-0.108995E+04;  BLOECHL correction:   -0.040734
       DOS:  cpu time    0.0299: real time    0.0299
    --------------------------------------------
      LOOP:  cpu time   12.9671: real time   12.9673

 eigenvalue-minimisations  : 11648
 total energy-change (2. order) :-0.4835998E+03  (-0.4564316E+03)
 number of electron     401.0000122 magnetization 
 augmentation part      401.0000122 magnetization 

 Free energy of the ion-electron system (eV)
  ---------------------------------------------------
  alpha Z        PSCENC =       912.35629578
  Ewald energy   TEWEN  =    143569.30868054
  -Hartree energ DENC   =   -190766.38058829
  -exchange      EXHF   =         0.00000000
  -V(xc)+E(xc)   XCENC  =      1536.68829818
  PAW double counting   =     47001.53708151   -50703.13752336
  entropy T*S    EENTRO =         0.00000000
  eigenvalues    EBANDS =     -1089.95168155
  atomic energy  EATOM  =     49430.76467232
  Solvation  Ediel_sol  =         0.00000000
  ---------------------------------------------------
  free energy    TOTEN  =      -108.81476488 eV

  energy without entropy =     -108.81476488  energy(sigma->0) =     -108.81476488


--------------------------------------------------------------------------------------------------------




--------------------------------------- Iteration      1(   4)  ---------------------------------------


     EDDAV:  cpu time   16.8912: real time   16.8915
 BZINTS: Fermi energy:    0.202937;  401.000000 electrons
         Band energy:-0.112798E+04;  BLOECHL correction:   -0.023068
       DOS:  cpu time    0.0308: real time    0.0308
    --------------------------------------------
      LOOP:  cpu time   16.9220: real time   16.9223

 eigenvalue-minimisations  : 16016
 total energy-change (2. order) :-0.3803149E+02  (-0.3708645E+02)
 number of electron     401.0000122 magnetization 
 augmentation part      401.0000122 magnetization 

 Free energy of the ion-electron system (eV)
  ---------------------------------------------------
  alpha Z        PSCENC =       912.35629578
  Ewald energy   TEWEN  =    143569.30868054
  -Hartree energ DENC   =   -190766.38058829
  -exchange      EXHF   =         0.00000000
  -V(xc)+E(xc)   XCENC  =      1536.68829818
  PAW double counting   =     47001.53708151   -50703.13752336
  entropy T*S    EENTRO =         0.00000000
  eigenvalues    EBANDS =     -1127.98317591
  atomic energy  EATOM  =     49430.76467232
  Solvation  Ediel_sol  =         0.00000000
  ---------------------------------------------------
  free energy    TOTEN  =      -146.84625925 eV

  energy without entropy =     -146.84625925  energy(sigma->0) =     -146.84625925


--------------------------------------------------------------------------------------------------------




--------------------------------------- Iteration      1(   5)  ---------------------------------------


     EDDAV:  cpu time   13.6248: real time   13.6249
 BZINTS: Fermi energy:    0.192010;  401.000000 electrons
         Band energy:-0.112872E+04;  BLOECHL correction:   -0.023538
       DOS:  cpu time    0.0310: real time    0.0310
    --------------------------------------------
      LOOP:  cpu time   13.6558: real time   13.6559

 eigenvalue-minimisations  : 12404
 total energy-change (2. order) :-0.7382833E+00  (-0.7355519E+00)
 number of electron     401.0000122 magnetization 
 augmentation part      401.0000122 magnetization 

 Free energy of the ion-electron system (eV)
  ---------------------------------------------------
  alpha Z        PSCENC =       912.35629578
  Ewald energy   TEWEN  =    143569.30868054
  -Hartree energ DENC   =   -190766.38058829
  -exchange      EXHF   =         0.00000000
  -V(xc)+E(xc)   XCENC  =      1536.68829818
  PAW double counting   =     47001.53708151   -50703.13752336
  entropy T*S    EENTRO =         0.00000000
  eigenvalues    EBANDS =     -1128.72145920
  atomic energy  EATOM  =     49430.76467232
  Solvation  Ediel_sol  =         0.00000000
  ---------------------------------------------------
  free energy    TOTEN  =      -147.58454254 eV

  energy without entropy =     -147.58454254  energy(sigma->0) =     -147.58454254


--------------------------------------------------------------------------------------------------------




--------------------------------------- Iteration      1(   6)  ---------------------------------------


    EDDIAG:  cpu time    2.2199: real time    2.2201
  RMM-DIIS:  cpu time    6.5091: real time    6.5092
    ORTHCH:  cpu time    0.4372: real time    0.4372
 BZINTS: Fermi energy:    0.191955;  401.000000 electrons
         Band energy:-0.112873E+04;  BLOECHL correction:   -0.023543
       DOS:  cpu time    0.0303: real time    0.0303
    --------------------------------------------
      LOOP:  cpu time    9.1965: real time    9.1968

 eigenvalue-minimisations  : 11480
 total energy-change (2. order) :-0.1150582E-01  (-0.1150024E-01)
 number of electron     401.0000122 magnetization 
 augmentation part      401.0000122 magnetization 

 Free energy of the ion-electron system (eV)
  ---------------------------------------------------
  alpha Z        PSCENC =       912.35629578
  Ewald energy   TEWEN  =    143569.30868054
  -Hartree energ DENC   =   -190766.38058829
  -exchange      EXHF   =         0.00000000
  -V(xc)+E(xc)   XCENC  =      1536.68829818
  PAW double counting   =     47001.53708151   -50703.13752336
  entropy T*S    EENTRO =         0.00000000
  eigenvalues    EBANDS =     -1128.73296502
  atomic energy  EATOM  =     49430.76467232
  Solvation  Ediel_sol  =         0.00000000
  ---------------------------------------------------
  free energy    TOTEN  =      -147.59604836 eV

  energy without entropy =     -147.59604836  energy(sigma->0) =     -147.59604836


--------------------------------------------------------------------------------------------------------




--------------------------------------- Iteration      1(   7)  ---------------------------------------


    EDDIAG:  cpu time    2.2202: real time    2.2204
  RMM-DIIS:  cpu time    9.0258: real time    9.0259
    ORTHCH:  cpu time    0.4366: real time    0.4366
 BZINTS: Fermi energy:    0.191936;  401.000000 electrons
         Band energy:-0.112874E+04;  BLOECHL correction:   -0.023546
       DOS:  cpu time    0.0289: real time    0.0289
    --------------------------------------------
      LOOP:  cpu time   11.7115: real time   11.7117

 eigenvalue-minimisations  : 16146
 total energy-change (2. order) :-0.4965480E-02  (-0.4850112E-02)
 number of electron     401.0000122 magnetization 
 augmentation part      401.0000122 magnetization 

 Free energy of the ion-electron system (eV)
  ---------------------------------------------------
  alpha Z        PSCENC =       912.35629578
  Ewald energy   TEWEN  =    143569.30868054
  -Hartree energ DENC   =   -190766.38058829
  -exchange      EXHF   =         0.00000000
  -V(xc)+E(xc)   XCENC  =      1536.68829818
  PAW double counting   =     47001.53708151   -50703.13752336
  entropy T*S    EENTRO =         0.00000000
  eigenvalues    EBANDS =     -1128.73793050
  atomic energy  EATOM  =     49430.76467232
  Solvation  Ediel_sol  =         0.00000000
  ---------------------------------------------------
  free energy    TOTEN  =      -147.60101384 eV

  energy without entropy =     -147.60101384  energy(sigma->0) =     -147.60101384


--------------------------------------------------------------------------------------------------------




--------------------------------------- Iteration      1(   8)  ---------------------------------------


    EDDIAG:  cpu time    2.2179: real time    2.2181
  RMM-DIIS:  cpu time    7.8089: real time    7.8090
    ORTHCH:  cpu time    0.4364: real time    0.4364
 BZINTS: Fermi energy:    0.191934;  401.000000 electrons
         Band energy:-0.112874E+04;  BLOECHL correction:   -0.023546
       DOS:  cpu time    0.0308: real time    0.0308
    --------------------------------------------
      LOOP:  cpu time   10.4941: real time   10.4943

 eigenvalue-minimisations  : 13916
 total energy-change (2. order) :-0.3867832E-03  (-0.4161480E-03)
 number of electron     401.0000122 magnetization 
 augmentation part      401.0000122 magnetization 

 Free energy of the ion-electron system (eV)
  ---------------------------------------------------
  alpha Z        PSCENC =       912.35629578
  Ewald energy   TEWEN  =    143569.30868054
  -Hartree energ DENC   =   -190766.38058829
  -exchange      EXHF   =         0.00000000
  -V(xc)+E(xc)   XCENC  =      1536.68829818
  PAW double counting   =     47001.53708151   -50703.13752336
  entropy T*S    EENTRO =         0.00000000
  eigenvalues    EBANDS =     -1128.73831729
  atomic energy  EATOM  =     49430.76467232
  Solvation  Ediel_sol  =         0.00000000
  ---------------------------------------------------
  free energy    TOTEN  =      -147.60140062 eV

  energy without entropy =     -147.60140062  energy(sigma->0) =     -147.60140062


--------------------------------------------------------------------------------------------------------




--------------------------------------- Iteration      1(   9)  ---------------------------------------


    EDDIAG:  cpu time    2.2194: real time    2.2194
  RMM-DIIS:  cpu time    9.0563: real time    9.0563
    ORTHCH:  cpu time    0.4394: real time    0.4394
 BZINTS: Fermi energy:    0.191934;  401.000000 electrons
         Band energy:-0.112874E+04;  BLOECHL correction:   -0.023546
       DOS:  cpu time    0.0302: real time    0.0303
    --------------------------------------------
      LOOP:  cpu time   11.7454: real time   11.7455

 eigenvalue-minimisations  : 15845
 total energy-change (2. order) :-0.6774795E-04  (-0.6775418E-04)
 number of electron     401.0000122 magnetization 
 augmentation part      401.0000122 magnetization 

 Free energy of the ion-electron system (eV)
  ---------------------------------------------------
  alpha Z        PSCENC =       912.35629578
  Ewald energy   TEWEN  =    143569.30868054
  -Hartree energ DENC   =   -190766.38058829
  -exchange      EXHF   =         0.00000000
  -V(xc)+E(xc)   XCENC  =      1536.68829818
  PAW double counting   =     47001.53708151   -50703.13752336
  entropy T*S    EENTRO =         0.00000000
  eigenvalues    EBANDS =     -1128.73838503
  atomic energy  EATOM  =     49430.76467232
  Solvation  Ediel_sol  =         0.00000000
  ---------------------------------------------------
  free energy    TOTEN  =      -147.60146837 eV

  energy without entropy =     -147.60146837  energy(sigma->0) =     -147.60146837


--------------------------------------------------------------------------------------------------------




--------------------------------------- Iteration      1(  10)  ---------------------------------------


    EDDIAG:  cpu time    2.2213: real time    2.2233
  RMM-DIIS:  cpu time    5.6136: real time    5.6136
    ORTHCH:  cpu time    0.4367: real time    0.4367
 BZINTS: Fermi energy:    0.191934;  401.000000 electrons
         Band energy:-0.112874E+04;  BLOECHL correction:   -0.023546
       DOS:  cpu time    0.0310: real time    0.0341
    --------------------------------------------
      LOOP:  cpu time    8.3026: real time    8.3077

 eigenvalue-minimisations  :  9225
 total energy-change (2. order) :-0.5294685E-05  (-0.5410354E-05)
 number of electron     401.0000122 magnetization 
 augmentation part      401.0000122 magnetization 

 Free energy of the ion-electron system (eV)
  ---------------------------------------------------
  alpha Z        PSCENC =       912.35629578
  Ewald energy   TEWEN  =    143569.30868054
  -Hartree energ DENC   =   -190766.38058829
  -exchange      EXHF   =         0.00000000
  -V(xc)+E(xc)   XCENC  =      1536.68829818
  PAW double counting   =     47001.53708151   -50703.13752336
  entropy T*S    EENTRO =         0.00000000
  eigenvalues    EBANDS =     -1128.73839033
  atomic energy  EATOM  =     49430.76467232
  Solvation  Ediel_sol  =         0.00000000
  ---------------------------------------------------
  free energy    TOTEN  =      -147.60147366 eV

  energy without entropy =     -147.60147366  energy(sigma->0) =     -147.60147366


--------------------------------------------------------------------------------------------------------




 average (electrostatic) potential at core
  the test charge radii are     0.9430  1.2296  0.7089
  (the norm of the test charge is              1.0000)
       1 -70.7894       2 -70.7775       3 -70.7774       4 -70.7711       5 -70.7966
       6 -70.7707       7 -70.7765       8 -70.7763       9 -70.7812      10 -71.0623
      11 -71.0140      12 -71.0620      13 -71.0144      14 -71.0141      15 -71.0402
      16 -71.0703      17 -71.0389      18 -71.0389      19 -71.0364      20 -71.1848
      21 -71.1846      22 -71.0099      23 -71.1770      24 -71.0099      25 -71.0232
      26 -71.0234      27 -70.9957      28 -70.8255      29 -70.9165      30 -70.9165
      31 -70.8863      32 -70.8862      33 -70.9257      34 -70.9256      35 -70.8138
      36 -43.1402      37 -70.9227      38 -70.9226
 
 
 
 E-fermi :   0.1919     XC(G=0):  -6.0641     alpha+bet : -5.4446

 Fermi energy:         0.1919336100

 k-point     1 :       0.0000    0.0000    0.0000
  band No.  band energies     occupation 
      1     -22.7315      2.00000
      2      -9.0047      2.00000
      3      -8.6022      2.00000
      4      -7.4109      2.00000
      5      -6.9761      2.00000
      6      -6.4944      2.00000
      7      -5.7697      2.00000
      8      -5.6376      2.00000
      9      -5.6350      2.00000
     10      -5.6015      2.00000
     11      -5.6000      2.00000
     12      -5.5979      2.00000
     13      -5.5103      2.00000
     14      -5.1640      2.00000
     15      -4.9013      2.00000
     16      -4.8966      2.00000
     17      -4.8494      2.00000
     18      -4.8410      2.00000
     19      -4.8361      2.00000
     20      -4.8337      2.00000
     21      -4.6396      2.00000
     22      -4.2563      2.00000
     23      -4.2480      2.00000
     24      -4.1607      2.00000
     25      -4.1440      2.00000
     26      -4.1426      2.00000
     27      -4.0356      2.00000
     28      -3.8949      2.00000
     29      -3.8681      2.00000
     30      -3.8666      2.00000
     31      -3.8472      2.00000
     32      -3.8469      2.00000
     33      -3.8200      2.00000
     34      -3.7293      2.00000
     35      -3.7270      2.00000
     36      -3.6837      2.00000
     37      -3.6829      2.00000
     38      -3.6787      2.00000
     39      -3.6739      2.00000
     40      -3.6643      2.00000
     41      -3.6626      2.00000
     42      -3.6573      2.00000
     43      -3.6516      2.00000
     44      -3.6509      2.00000
     45      -3.6451      2.00000
     46      -3.5728      2.00000
     47      -3.5718      2.00000
     48      -3.5307      2.00000
     49      -3.5295      2.00000
     50      -3.4114      2.00000
     51      -3.4113      2.00000
     52      -3.3746      2.00000
     53      -3.3720      2.00000
     54      -3.3672      2.00000
     55      -3.3610      2.00000
     56      -3.3602      2.00000
     57      -3.3575      2.00000
     58      -3.2836      2.00000
     59      -3.2825      2.00000
     60      -3.0125      2.00000
     61      -3.0110      2.00000
     62      -3.0099      2.00000
     63      -3.0018      2.00000
     64      -3.0003      2.00000
     65      -2.9967      2.00000
     66      -2.9223      2.00000
     67      -2.9147      2.00000
     68      -2.9144      2.00000
     69      -2.8977      2.00000
     70      -2.8968      2.00000
     71      -2.8904      2.00000
     72      -2.8895      2.00000
     73      -2.8457      2.00000
     74      -2.8451      2.00000
     75      -2.8439      2.00000
     76      -2.8300      2.00000
     77      -2.7845      2.00000
     78      -2.7568      2.00000
     79      -2.7559      2.00000
     80      -2.7031      2.00000
     81      -2.7027      2.00000
     82      -2.6770      2.00000
     83      -2.6760      2.00000
     84      -2.6646      2.00000
     85      -2.6522      2.00000
     86      -2.6520      2.00000
     87      -2.6500      2.00000
     88      -2.6187      2.00000
     89      -2.6180      2.00000
     90      -2.5779      2.00000
     91      -2.5742      2.00000
     92      -2.5739      2.00000
     93      -2.5692      2.00000
     94      -2.5675      2.00000
     95      -2.5360      2.00000
     96      -2.5351      2.00000
     97      -2.5327      2.00000
     98      -2.5040      2.00000
     99      -2.5030      2.00000
    100      -2.4856      2.00000
    101      -2.4678      2.00000
    102      -2.4675      2.00000
    103      -2.4545      2.00000
    104      -2.4498      2.00000
    105      -2.4236      2.00000
    106      -2.4222      2.00000
    107      -2.4180      2.00000
    108      -2.4167      2.00000
    109      -2.4095      2.00000
    110      -2.3887      2.00000
    111      -2.3838      2.00000
    112      -2.3564      2.00000
    113      -2.1808      2.00000
    114      -2.1734      2.00000
    115      -2.1593      2.00000
    116      -2.1561      2.00000
    117      -2.1539      2.00000
    118      -2.1515      2.00000
    119      -2.1447      2.00000
    120      -2.1375      2.00000
    121      -2.1367      2.00000
    122      -2.1179      2.00000
    123      -2.1157      2.00000
    124      -2.1143      2.00000
    125      -2.1100      2.00000
    126      -2.0889      2.00000
    127      -1.9793      2.00000
    128      -1.9790      2.00000
    129      -1.9674      2.00000
    130      -1.9654      2.00000
    131      -1.9604      2.00000
    132      -1.9477      2.00000
    133      -1.9438      2.00000
    134      -1.9201      2.00000
    135      -1.9120      2.00000
    136      -1.9077      2.00000
    137      -1.9066      2.00000
    138      -1.8711      2.00000
    139      -1.8400      2.00000
    140      -1.8386      2.00000
    141      -1.8352      2.00000
    142      -1.8248      2.00000
    143      -1.8245      2.00000
    144      -1.8226      2.00000
    145      -1.7816      2.00000
    146      -1.7805      2.00000
    147      -1.7366      2.00000
    148      -1.7349      2.00000
    149      -1.7223      2.00000
    150      -1.7106      2.00000
    151      -1.7058      2.00000
    152      -1.7050      2.00000
    153      -1.6901      2.00000
    154      -1.6805      2.00000
    155      -1.6796      2.00000
    156      -1.6606      2.00000
    157      -1.6538      2.00000
    158      -1.6536      2.00000
    159      -1.6407      2.00000
    160      -1.6144      2.00000
    161      -1.6000      2.00000
    162      -1.5843      2.00000
    163      -1.5815      2.00000
    164      -1.5813      2.00000
    165      -1.5637      2.00000
    166      -1.5617      2.00000
    167      -1.5579      2.00000
    168      -1.5557      2.00000
    169      -1.5546      2.00000
    170      -1.5521      2.00000
    171      -1.5321      2.00000
    172      -1.5315      2.00000
    173      -1.5149      2.00000
    174      -1.5140      2.00000
    175      -1.4978      2.00000
    176      -1.4947      2.00000
    177      -1.4850      2.00000
    178      -1.4841      2.00000
    179      -1.4837      2.00000
    180      -1.4788      2.00000
    181      -1.4780      2.00000
    182      -1.4773      2.00000
    183      -1.4737      2.00000
    184      -1.4650      2.00000
    185      -1.4646      2.00000
    186      -1.4638      2.00000
    187      -1.4400      2.00000
    188      -1.4161      2.00000
    189      -1.4144      2.00000
    190      -1.3712      2.00000
    191      -1.3711      2.00000
    192      -1.3671      2.00000
    193      -1.3575      2.00000
    194      -1.3560      2.00000
    195      -1.3558      2.00000
    196      -0.8616      2.00000
    197      -0.4497      2.00000
    198      -0.3651      2.00000
    199      -0.2659      2.00000
    200      -0.2449      2.00000
    201      -0.1614      2.00000
    202      -0.1480      2.00000
    203       0.1138      2.30033
    204       0.1341      1.38837
    205       0.3244      0.00000
    206       0.3614      0.00000
    207       0.4211      0.00000
    208       1.2210      0.00000
    209       1.9557      0.00000
    210       2.1527      0.00000
    211       2.1592      0.00000
    212       2.5568      0.00000
    213       2.5811      0.00000
    214       2.6596      0.00000
    215       3.0912      0.00000
    216       3.5080      0.00000
    217       3.5751      0.00000
    218       3.8345      0.00000
    219       3.8697      0.00000
    220       3.8822      0.00000
    221       4.0496      0.00000
    222       4.1933      0.00000
    223       4.5923      0.00000
    224       4.6310      0.00000
    225       4.6888      0.00000
    226       4.7026      0.00000
    227       4.7399      0.00000
    228       4.7865      0.00000
    229       4.7994      0.00000
    230       5.0025      0.00000
    231       5.0577      0.00000
    232       5.2612      0.00000
    233       5.3096      0.00000
    234       5.4034      0.00000
    235       5.5257      0.00000
    236       5.8878      0.00000
    237       6.1037      0.00000
    238       6.2659      0.00000
    239       6.5164      0.00000
    240       6.5312      0.00000
    241       6.7873      0.00000
    242       6.8133      0.00000
    243       7.0013      0.00000
    244       7.0486      0.00000
    245       7.1481      0.00000
    246       7.1674      0.00000
    247       7.2597      0.00000
    248       7.2927      0.00000
    249       7.5313      0.00000
    250       7.6248      0.00000
    251       7.7024      0.00000
    252       7.7097      0.00000

 k-point     2 :       0.1250   -0.0000    0.0000
  band No.  band energies     occupation 
      1     -22.7315      2.00000
      2      -9.0054      2.00000
      3      -8.5469      2.00000
      4      -7.3701      2.00000
      5      -6.9671      2.00000
      6      -6.4951      2.00000
      7      -6.1621      2.00000
      8      -5.8588      2.00000
      9      -5.8341      2.00000
     10      -5.6931      2.00000
     11      -5.3347      2.00000
     12      -5.3039      2.00000
     13      -5.1846      2.00000
     14      -5.1597      2.00000
     15      -5.1188      2.00000
     16      -4.9848      2.00000
     17      -4.9062      2.00000
     18      -4.7997      2.00000
     19      -4.7128      2.00000
     20      -4.6659      2.00000
     21      -4.5734      2.00000
     22      -4.2679      2.00000
     23      -4.2313      2.00000
     24      -4.1688      2.00000
     25      -4.1396      2.00000
     26      -4.1302      2.00000
     27      -4.0284      2.00000
     28      -3.9278      2.00000
     29      -3.8831      2.00000
     30      -3.8759      2.00000
     31      -3.8324      2.00000
     32      -3.8208      2.00000
     33      -3.8020      2.00000
     34      -3.7973      2.00000
     35      -3.7933      2.00000
     36      -3.7752      2.00000
     37      -3.7656      2.00000
     38      -3.7381      2.00000
     39      -3.7039      2.00000
     40      -3.6805      2.00000
     41      -3.6533      2.00000
     42      -3.6491      2.00000
     43      -3.6051      2.00000
     44      -3.6029      2.00000
     45      -3.5757      2.00000
     46      -3.5591      2.00000
     47      -3.5528      2.00000
     48      -3.4813      2.00000
     49      -3.4773      2.00000
     50      -3.4525      2.00000
     51      -3.4255      2.00000
     52      -3.4202      2.00000
[...]
  0.000   0.000   0.000   0.000   0.000   0.000   0.000   0.000   0.000   0.000   0.000   0.000   0.000   0.000   0.000   0.000
  0.000   0.000   0.000   0.000   0.000   0.000   0.000   0.000   0.000   0.000   0.000   0.000   0.000   0.000   0.000   0.000
  0.000   0.000   0.000   0.000   0.000   0.000   0.000   0.000   0.000   0.000   1.000   0.000   0.000   0.000   0.000   0.000
  0.000   0.000   0.000   0.000   0.000   0.000   0.000   0.000   0.000   0.000   0.000   0.000   0.000   0.000   0.000   0.000
  0.000   0.000   0.000   0.000   0.000   0.000   0.000   0.000   0.000   0.000   0.000   0.000   0.000   0.000   0.000   0.000
  0.000   0.000   0.000   0.000   0.000   0.000   0.000   0.000   0.000   0.000   0.000   0.000   0.000   0.000   0.000   0.000
  0.000   0.000   0.000   0.000   0.000   0.000   0.000   0.000   0.000   0.000   0.000   0.000   0.000   0.000   0.000   0.000
  0.000   0.000   0.000   0.000   0.000   0.000   0.000   0.000   0.000   0.000   0.000   0.000   0.000   0.000   0.000   0.000
  0.000   0.000   0.000   0.000   0.000   0.000   0.000   0.000   0.000   0.000   0.000   0.000   0.000   0.000   0.000   0.000
  0.000   0.000   0.000   0.000   0.000   0.000   0.000   0.000   0.000   0.000   0.000   0.000   0.000   0.000   0.000   0.000


------------------------ aborting loop because EDIFF is reached ----------------------------------------





 total charge

# of ion       s       p       d       tot
------------------------------------------
    1        0.449   0.283   9.189   9.921
    2        0.448   0.286   9.185   9.919
    3        0.448   0.286   9.185   9.919
    4        0.450   0.285   9.186   9.921
    5        0.448   0.285   9.181   9.914
    6        0.450   0.285   9.186   9.921
    7        0.447   0.285   9.186   9.918
    8        0.447   0.285   9.186   9.918
    9        0.447   0.282   9.190   9.920
   10        0.443   0.372   9.176   9.991
   11        0.443   0.364   9.185   9.992
   12        0.443   0.372   9.176   9.991
   13        0.443   0.365   9.184   9.992
   14        0.443   0.365   9.184   9.992
   15        0.438   0.369   9.177   9.985
   16        0.445   0.372   9.173   9.990
   17        0.437   0.370   9.178   9.985
   18        0.437   0.370   9.178   9.985
   19        0.441   0.368   9.181   9.990
   20        0.464   0.397   9.157  10.018
   21        0.464   0.397   9.157  10.018
   22        0.428   0.372   9.182   9.981
   23        0.468   0.395   9.159  10.022
   24        0.428   0.372   9.182   9.981
   25        0.443   0.367   9.183   9.993
   26        0.443   0.367   9.183   9.993
   27        0.430   0.370   9.183   9.983
   28        0.449   0.292   9.182   9.923
   29        0.473   0.312   9.167   9.952
   30        0.473   0.312   9.167   9.952
   31        0.469   0.305   9.173   9.948
   32        0.469   0.305   9.173   9.948
   33        0.473   0.312   9.169   9.953
   34        0.473   0.312   9.169   9.953
   35        0.440   0.295   9.185   9.920
   36        0.450   0.414   4.324   5.188
   37        1.354   2.447   0.000   3.801
   38        1.354   2.447   0.000   3.801
--------------------------------------------------
tot         18.893  17.038 325.560 361.491
 
    CHARGE:  cpu time    0.4156: real time    0.4157
    FORLOC:  cpu time    0.0075: real time    0.0075
    FORNL :  cpu time    2.4141: real time    2.4143
    STRESS:  cpu time    7.1957: real time    7.1959
    FORCOR:  cpu time    0.0281: real time    0.0283
    FORHAR:  cpu time    0.0116: real time    0.0117
    OFIELD:  cpu time    0.0001: real time    0.0001

  FORCE on cell =-STRESS in cart. coord.  units (eV):
  Direction    XX          YY          ZZ          XY          YZ          ZX
  --------------------------------------------------------------------------------------
  Alpha Z   912.35630   912.35630   912.35630
  Ewald  169515.98008169210.94662************     0.00038    -0.30255     0.00017
  Hartree182474.13468182366.92922************     0.00003    -0.02146     0.00006
  E(xc)   -2316.12826 -2316.89017 -2320.93699    -0.00027     0.08955    -0.00004
  Local  ************************364662.33357     0.02018     0.61419    -0.00073
  n-local  -799.51830  -786.41461  -804.53090     1.68683     0.28005     0.08254
  augment  3317.90269  3316.73200  3341.12270    -0.01844    -0.13596     0.00031
  Kinetic  3386.27438  3396.93074  3428.39782     1.11779    -0.66078    -0.17964
  Fock        0.00000     0.00000     0.00000     0.00000     0.00000     0.00000
  -------------------------------------------------------------------------------------
  Total      -4.32597    -4.55786     0.87663     0.00000    -0.13697     0.00000
  in kB      -6.34722    -6.68745     1.28623     0.00000    -0.20097     0.00000
  external pressure =       -3.92 kB  Pullay stress =        0.00 kB


 VOLUME and BASIS-vectors are now :
 -----------------------------------------------------------------------------
  energy-cutoff  :      500.00
  volume of cell :     1091.97
      direct lattice vectors                 reciprocal lattice vectors
     7.696786404  0.000000000  0.000000000     0.129924354 -0.075011849  0.000000000
     3.848392758  6.665612809  0.000000000     0.000000000  0.150023716  0.000000000
     0.000000000  0.000000000 21.284399033     0.000000000  0.000000000  0.046982769

  length of vectors
     7.696786404  7.696786404 21.284399033     0.150023716  0.150023716  0.046982769


 FORCES acting on ions
    electron-ion (+dipol)            ewald-force                    non-local-force                 convergence-correction
 -----------------------------------------------------------------------------------------------
   -.407E-04 0.114E+00 0.348E+04   0.580E-04 -.113E-01 -.348E+04   -.139E-08 0.208E-01 -.270E+01   -.354E-03 -.117E+00 -.316E+00
   -.102E+01 -.419E+00 0.348E+04   0.639E+00 0.338E+00 -.348E+04   0.231E+00 0.138E+00 -.178E+01   0.146E+00 -.428E-01 -.313E+00
   0.102E+01 -.419E+00 0.348E+04   -.639E+00 0.338E+00 -.348E+04   -.231E+00 0.138E+00 -.178E+01   -.145E+00 -.403E-01 -.312E+00
   -.768E+00 -.522E+00 0.348E+04   0.622E+00 0.378E+00 -.348E+04   0.110E+00 0.140E-01 -.178E+01   0.615E-01 0.121E+00 -.261E+00
   -.622E-04 -.194E+00 0.348E+04   0.116E-03 -.784E-03 -.347E+04   -.387E-08 0.581E-01 -.153E+01   0.121E-01 0.132E+00 -.199E+00
   0.768E+00 -.522E+00 0.348E+04   -.622E+00 0.377E+00 -.348E+04   -.110E+00 0.140E-01 -.178E+01   -.631E-01 0.122E+00 -.260E+00
   -.300E+00 0.987E+00 0.348E+04   -.168E-01 -.716E+00 -.348E+04   0.197E+00 -.185E+00 -.183E+01   0.113E+00 -.907E-01 -.380E+00
   0.300E+00 0.987E+00 0.348E+04   0.165E-01 -.716E+00 -.348E+04   -.197E+00 -.185E+00 -.183E+01   -.109E+00 -.921E-01 -.380E+00
   -.143E-03 -.148E-01 0.348E+04   0.263E-03 0.121E-01 -.348E+04   0.778E-09 -.117E-01 -.234E+01   -.131E-01 0.114E-01 -.322E+00
   -.346E+01 -.189E+01 0.119E+04   0.398E+01 0.220E+01 -.119E+04   -.560E+00 -.307E+00 -.119E+01   0.407E-01 0.108E-01 -.354E+00
   -.914E-04 -.386E+01 0.117E+04   0.190E-03 0.336E+01 -.117E+04   -.222E-07 0.333E+00 -.912E-01   0.120E-01 0.106E+00 -.317E+00
   0.346E+01 -.189E+01 0.119E+04   -.398E+01 0.220E+01 -.119E+04   0.560E+00 -.307E+00 -.119E+01   -.424E-01 0.119E-01 -.354E+00
   -.352E+01 0.193E+01 0.118E+04   0.300E+01 -.167E+01 -.117E+04   0.359E+00 -.213E+00 -.289E+00   0.126E+00 -.206E-01 -.403E+00
   0.352E+01 0.193E+01 0.118E+04   -.300E+01 -.167E+01 -.117E+04   -.359E+00 -.213E+00 -.289E+00   -.102E+00 -.222E-01 -.405E+00
   -.141E-03 -.263E+01 0.118E+04   0.297E-03 0.226E+01 -.118E+04   -.126E-07 0.189E+00 -.983E+00   -.337E-02 0.164E+00 -.321E+00
   -.926E-04 0.395E+01 0.119E+04   0.186E-03 -.456E+01 -.119E+04   -.455E-07 0.684E+00 -.108E+01   -.836E-03 -.737E-01 -.432E+00
   -.213E+01 0.124E+01 0.118E+04   0.191E+01 -.106E+01 -.118E+04   0.143E+00 -.974E-01 -.947E+00   0.656E-01 -.799E-01 -.375E+00
   0.213E+01 0.124E+01 0.118E+04   -.191E+01 -.106E+01 -.118E+04   -.143E+00 -.974E-01 -.947E+00   -.640E-01 -.772E-01 -.373E+00
   -.662E-04 -.588E+01 -.111E+04   0.708E-04 0.574E+01 0.111E+04   -.446E-08 0.670E-01 0.112E+01   -.108E-01 0.617E-01 -.271E-01
   -.458E+02 -.261E+02 -.116E+04   0.473E+02 0.268E+02 0.116E+04   -.159E+01 -.681E+00 -.101E+01   0.394E-01 0.814E-02 -.106E+00
   0.458E+02 -.261E+02 -.116E+04   -.473E+02 0.268E+02 0.116E+04   0.159E+01 -.681E+00 -.101E+01   -.582E-01 0.653E-02 -.106E+00
   -.239E+02 0.133E+02 -.113E+04   0.234E+02 -.129E+02 0.113E+04   0.552E+00 -.415E+00 0.816E+00   -.316E-01 -.361E-01 -.196E+00
   -.845E-04 0.521E+02 -.116E+04   0.150E-03 -.539E+02 0.116E+04   -.128E-06 0.193E+01 -.137E+01   -.121E-01 -.689E-01 -.243E+00
   0.239E+02 0.133E+02 -.113E+04   -.234E+02 -.129E+02 0.113E+04   -.552E+00 -.415E+00 0.816E+00   0.332E-01 -.373E-01 -.196E+00
   0.545E+01 0.326E+01 -.111E+04   -.533E+01 -.330E+01 0.111E+04   -.397E-01 0.408E-01 0.103E+01   -.833E-01 -.185E-02 -.828E-01
   -.545E+01 0.326E+01 -.111E+04   0.533E+01 -.330E+01 0.111E+04   0.397E-01 0.408E-01 0.103E+01   0.620E-01 -.164E-02 -.823E-01
   -.121E-03 -.277E+02 -.113E+04   0.240E-03 0.270E+02 0.113E+04   -.486E-07 0.729E+00 0.761E+00   0.109E-02 0.630E-01 -.206E+00
   -.382E-04 0.271E+01 -.336E+04   0.402E-04 -.299E+01 0.335E+04   -.895E-08 0.134E+00 0.190E+01   -.187E-03 0.124E+00 0.286E+00
   -.280E+02 -.443E+02 -.334E+04   0.286E+02 0.446E+02 0.334E+04   -.679E+00 -.497E+00 0.111E+01   0.219E-01 0.642E-01 0.233E+00
   0.280E+02 -.443E+02 -.334E+04   -.286E+02 0.446E+02 0.334E+04   0.679E+00 -.497E+00 0.111E+01   -.209E-01 0.654E-01 0.232E+00
   -.505E+02 0.105E+01 -.333E+04   0.512E+02 -.887E+00 0.333E+04   -.753E+00 -.176E+00 0.209E+01   -.676E-01 0.186E-01 0.285E+00
   0.505E+02 0.105E+01 -.333E+04   -.512E+02 -.888E+00 0.333E+04   0.753E+00 -.176E+00 0.209E+01   0.678E-01 0.193E-01 0.285E+00
   -.294E+02 0.431E+02 -.334E+04   0.297E+02 -.436E+02 0.334E+04   -.277E+00 0.728E+00 0.127E+01   -.172E-01 -.597E-01 0.319E+00
   0.294E+02 0.431E+02 -.334E+04   -.297E+02 -.436E+02 0.334E+04   0.277E+00 0.728E+00 0.127E+01   0.199E-01 -.601E-01 0.320E+00
   -.147E-03 -.300E+01 -.337E+04   0.253E-03 0.319E+01 0.337E+04   0.254E-08 -.382E-01 0.248E+01   -.125E-01 -.112E+00 0.376E+00
   -.407E-04 0.188E+00 -.171E+04   0.738E-04 -.265E+00 0.171E+04   0.250E-08 -.376E-01 0.287E+01   0.493E-03 -.132E-01 0.103E+00
   0.213E+03 0.642E-01 -.164E+04   -.255E+03 -.763E-01 0.164E+04   0.419E+02 -.689E-02 -.730E+01   -.220E-01 0.195E-01 0.484E-01
   -.213E+03 0.642E-01 -.164E+04   0.255E+03 -.763E-01 0.164E+04   -.419E+02 -.689E-02 -.730E+01   0.221E-01 0.195E-01 0.482E-01
 -----------------------------------------------------------------------------------------------
   -.144E-03 -.845E+00 0.253E+02   0.568E-13 0.127E-12 0.682E-12   -.495E-07 0.744E+00 -.206E+02   -.358E-01 0.101E+00 -.479E+01
 
 
 POSITION                                       TOTAL-FORCE (eV/Angst)
 -----------------------------------------------------------------------------------
      0.00000      0.00000      5.37156        -0.000000      0.006121     -0.037928
      2.56560      0.00000      5.37156        -0.009715      0.015103      0.065775
      5.13119      0.00000      5.37156         0.009715      0.015103      0.065775
      1.28280      2.22187      5.37156         0.026010     -0.008733      0.047898
      3.84839      2.22187      5.37156         0.000000     -0.005336      0.028861
      6.41399      2.22187      5.37156        -0.026010     -0.008733      0.047898
      2.56560      4.44374      5.37156        -0.008707     -0.004828      0.075481
      5.13119      4.44374      5.37156         0.008707     -0.004828      0.075481
      7.69679      4.44374      5.37156         0.000000     -0.002949      0.012263
      1.28280      0.74062      7.46636         0.002686      0.013278     -0.077566
      3.84839      0.74062      7.46636         0.000000     -0.061342     -0.042695
      6.41399      0.74062      7.46636        -0.002686      0.013278     -0.077566
      2.56560      2.96249      7.46636        -0.049008      0.023099     -0.053267
      5.13119      2.96249      7.46636         0.049008      0.023099     -0.053267
      7.69679      2.96249      7.46636         0.000000     -0.023011      0.003636
      3.84839      5.18437      7.46636        -0.000000      0.002978     -0.074030
      6.41399      5.18437      7.46636        -0.013112      0.002136      0.014133
      8.97958      5.18437      7.46636         0.013112      0.002136      0.014133
      7.69679      1.48128      9.55134         0.000000     -0.009269      0.043943
      2.56091      1.47854      9.54628        -0.058474     -0.013656     -0.139209
      5.13587      1.47854      9.54628         0.058474     -0.013656     -0.139209
      8.97673      3.70477      9.56818         0.040396     -0.026858      0.006672
      3.84839      3.70853      9.54628        -0.000000      0.103478     -0.152258
      6.41684      3.70477      9.56818        -0.040396     -0.026858      0.006672
     10.26235      5.92497      9.55134         0.009788      0.002307      0.014641
      5.13122      5.92497      9.55134        -0.009788      0.002307      0.014641
      7.69679      5.92169      9.56818        -0.000000      0.058671     -0.002815
      0.00000      0.00000     11.64671         0.000000     -0.024425     -0.039005
      6.40484      6.65345     11.67351        -0.065686     -0.106926     -0.152043
      8.98873      6.65345     11.67351         0.065686     -0.106926     -0.152043
      8.96447      2.22003     11.67351        -0.116642      0.008772     -0.079951
      6.42910      2.22003     11.67351         0.116642      0.008772     -0.079951
     10.25642      4.45775     11.67351        -0.077589      0.118328     -0.177191
      5.13715      4.45775     11.67351         0.077589      0.118328     -0.177191
      7.69679      4.44374     11.65978        -0.000000      0.037984     -0.033828
      3.84839      2.22187     11.64991         0.000000     -0.128125      1.231573
      3.27154      2.22642     13.92720         0.005763      0.000591     -0.014232
      4.42525      2.22642     13.92720        -0.005763      0.000591     -0.014232
 -----------------------------------------------------------------------------------
    total drift:                               -0.035907     -0.000258     -0.032528


--------------------------------------------------------------------------------------------------------



  FREE ENERGIE OF THE ION-ELECTRON SYSTEM (eV)
  ---------------------------------------------------
  free  energy   TOTEN  =      -147.60147366 eV

  energy  without entropy=     -147.60147366  energy(sigma->0) =     -147.60147366
 


--------------------------------------------------------------------------------------------------------


    POTLOK:  cpu time    0.0280: real time    0.0281


--------------------------------------------------------------------------------------------------------


 stress matrix after NEB project (eV)
     -4.32597      0.00000      0.00000
      0.00000     -4.55786     -0.13697
      0.00000     -0.13697      0.87663
  FORCES: max atom, RMS     0.015366    0.003525
  FORCE total and by dimension    0.021731    0.014232
  Stress total and by dimension    6.347768    4.557862
     LOOP+:  cpu time  129.1902: real time  129.2043
 -----------------------------------------------------------------------------
|                                                                             |
|           W    W    AA    RRRRR   N    N  II  N    N   GGGG   !!!           |
|           W    W   A  A   R    R  NN   N  II  NN   N  G    G  !!!           |
|           W    W  A    A  R    R  N N  N  II  N N  N  G       !!!           |
|           W WW W  AAAAAA  RRRRR   N  N N  II  N  N N  G  GGG   !            |
|           WW  WW  A    A  R   R   N   NN  II  N   NN  G    G                |
|           W    W  A    A  R    R  N    N  II  N    N   GGGG   !!!           |
|                                                                             |
|     Tetrahedron method does not include variations of the Fermi             |
|     occupations, so forces and stress will be inaccurate. We suggest        |
|     using a different smearing scheme ISMEAR = 1 or 2 for metals in         |
|     relaxations.                                                            |
|                                                                             |
 -----------------------------------------------------------------------------

    4ORBIT:  cpu time    0.0000: real time    0.0000



 total charge

# of ion       s       p       d       tot
------------------------------------------
    1        0.449   0.283   9.189   9.921
    2        0.448   0.286   9.185   9.919
    3        0.448   0.286   9.185   9.919
    4        0.450   0.285   9.186   9.921
    5        0.448   0.285   9.181   9.914
    6        0.450   0.285   9.186   9.921
    7        0.447   0.285   9.186   9.918
    8        0.447   0.285   9.186   9.918
    9        0.447   0.282   9.190   9.920
   10        0.443   0.372   9.176   9.991
   11        0.443   0.364   9.185   9.992
   12        0.443   0.372   9.176   9.991
   13        0.443   0.365   9.184   9.992
   14        0.443   0.365   9.184   9.992
   15        0.438   0.369   9.177   9.985
   16        0.445   0.372   9.173   9.990
   17        0.437   0.370   9.178   9.985
   18        0.437   0.370   9.178   9.985
   19        0.441   0.368   9.181   9.990
   20        0.464   0.397   9.157  10.018
   21        0.464   0.397   9.157  10.018
   22        0.428   0.372   9.182   9.981
   23        0.468   0.395   9.159  10.022
   24        0.428   0.372   9.182   9.981
   25        0.443   0.367   9.183   9.993
   26        0.443   0.367   9.183   9.993
   27        0.430   0.370   9.183   9.983
   28        0.449   0.292   9.182   9.923
   29        0.473   0.312   9.167   9.952
   30        0.473   0.312   9.167   9.952
   31        0.469   0.305   9.173   9.948
   32        0.469   0.305   9.173   9.948
   33        0.473   0.312   9.169   9.953
   34        0.473   0.312   9.169   9.953
   35        0.440   0.295   9.185   9.920
   36        0.450   0.414   4.324   5.188
   37        1.354   2.447   0.000   3.801
   38        1.354   2.447   0.000   3.801
--------------------------------------------------
tot         18.893  17.038 325.560 361.491
 
 BZINTS: Fermi energy:    0.191934;  401.000000 electrons
         Band energy:-0.112874E+04;  BLOECHL correction:   -0.023546

 total amount of memory used by VASP MPI-rank0   150080. kBytes
=======================================================================

   base      :      30000. kBytes
   nonlr-proj:      18073. kBytes
   fftplans  :       2916. kBytes
   grid      :      12390. kBytes
   one-center:        590. kBytes
   wavefun   :      86111. kBytes
 
  
  
 General timing and accounting informations for this job:
 ========================================================
  
                  Total CPU time used (sec):      140.296
                            User time (sec):      134.895
                          System time (sec):        5.401
                         Elapsed time (sec):      140.786
  
                   Maximum memory used (kb):      399320.
                   Average memory used (kb):          N/A
  
                          Minor page faults:       105386
                          Major page faults:            0
                 Voluntary context switches:         5400
