 vasp.6.2.0 18Jan21 (build Jun 12 2021 23:27:24) complex                        
  
 executed on             LinuxIFC date 2022.05.27  05:38:49
 running on   28 total cores
 distrk:  each k-point on   28 cores,    1 groups
 distr:  one band on NCORE=   1 cores,   28 groups


--------------------------------------------------------------------------------------------------------


 INCAR:
   ISMEAR = -5
   SIGMA = 0.1
   ISPIN = 1
   EDIFF = 1.d-5
   EDIFFG = -0.01
   NSW = 0
   NELM = 150
   ENCUT = 500
   ISIF = 2
   IBRION = 2
   LREAL = Auto
   ALGO = Fast
   ICHARG = 11
   LORBIT = 10
   LCHARG = .F.
   LWAVE = .F.

 POTCAR:    PAW_PBE Ag 02Apr2005                  
 POTCAR:    PAW_PBE Zr_sv 04Jan2005               
 POTCAR:    PAW_PBE N 08Apr2002                   
 -----------------------------------------------------------------------------
|                                                                             |
|           W    W    AA    RRRRR   N    N  II  N    N   GGGG   !!!           |
|           W    W   A  A   R    R  NN   N  II  NN   N  G    G  !!!           |
|           W    W  A    A  R    R  N N  N  II  N N  N  G       !!!           |
|           W WW W  AAAAAA  RRRRR   N  N N  II  N  N N  G  GGG   !            |
|           WW  WW  A    A  R   R   N   NN  II  N   NN  G    G                |
|           W    W  A    A  R    R  N    N  II  N    N   GGGG   !!!           |
|                                                                             |
|     For optimal performance we recommend to set                             |
|       NCORE = 2 up to number-of-cores-per-socket                            |
|     NCORE specifies how many cores store one orbital (NPAR=cpu/NCORE).      |
|     This setting can greatly improve the performance of VASP for DFT.       |
|     The default, NCORE=1 might be grossly inefficient on modern             |
|     multi-core architectures or massively parallel machines. Do your        |
|     own testing! More info at https://www.vasp.at/wiki/index.php/NCORE      |
|     Unfortunately you need to use the default for GW and RPA                |
|     calculations (for HF NCORE is supported but not extensively tested      |
|     yet).                                                                   |
|                                                                             |
 -----------------------------------------------------------------------------

 POTCAR:    PAW_PBE Ag 02Apr2005                  
   VRHFIN =Ag : s1 d10                                                                              
   LEXCH  = PE                                                                                      
   EATOM  =  1037.2675 eV,   76.2370 Ry                                                             
                                                                                                    
   TITEL  = PAW_PBE Ag 02Apr2005                                                                    
   LULTRA =        F    use ultrasoft PP ?                                                          
   IUNSCR =        1    unscreen: 0-lin 1-nonlin 2-no                                               
   RPACOR =    2.000    partial core radius                                                         
   POMASS =  107.868; ZVAL   =   11.000    mass and valenz                                          
   RCORE  =    2.500    outmost cutoff radius                                                       
   RWIGS  =    2.840; RWIGS  =    1.503    wigner-seitz radius (au A)                               
   ENMAX  =  249.844; ENMIN  =  187.383 eV                                                          
   ICORE  =        3    local potential                                                             
   LCOR   =        T    correct aug charges                                                         
   LPAW   =        T    paw PP                                                                      
   EAUG   =  412.496                                                                                
   DEXC   =    0.000                                                                                
   RMAX   =    2.560    core radius for proj-oper                                                   
   RAUG   =    1.300    factor for augmentation sphere                                              
   RDEP   =    2.576    radius for radial grids                                                     
   RDEPT  =    2.072    core radius for aug-charge                                                  
                                                                                                    
   Atomic configuration                                                                             
   12 entries                                                                                       
     n  l   j            E        occ.                                                              
     1  0  0.50    -25324.9161   2.0000                                                             
     2  0  0.50     -3728.5341   2.0000                                                             
     2  1  1.50     -3344.0404   6.0000                                                             
     3  0  0.50      -683.5581   2.0000                                                             
     3  1  1.50      -557.3225   6.0000                                                             
     3  2  2.50      -358.3853  10.0000                                                             
     4  0  0.50       -95.0341   2.0000                                                             
     4  1  1.50       -58.5511   6.0000                                                             
     4  2  2.50        -7.4440  10.0000                                                             
     5  0  0.50        -4.4045   1.0000                                                             
     5  1  0.50        -1.3606   0.0000                                                             
     4  3  2.50        -1.3606   0.0000                                                             
   Description                                                                                      
     l       E           TYP  RCUT    TYP  RCUT                                                     
     2     -7.4439781     23  2.400                                                                 
     2     -8.8045607     23  2.400                                                                 
     0     -4.4044681     23  2.400                                                                 
     0      1.9520038     23  2.400                                                                 
     1     -1.3605826     23  2.500                                                                 
     1     27.2116520     23  2.500                                                                 
     3     -4.0817478     23  2.400                                                                 
  local pseudopotential read in
  partial core-charges read in
  partial kinetic energy density read in
  atomic valenz-charges read in
  non local Contribution for L=           2  read in
    real space projection operators read in
  non local Contribution for L=           2  read in
    real space projection operators read in
  non local Contribution for L=           0  read in
    real space projection operators read in
  non local Contribution for L=           0  read in
    real space projection operators read in
  non local Contribution for L=           1  read in
    real space projection operators read in
  non local Contribution for L=           1  read in
    real space projection operators read in
    PAW grid and wavefunctions read in
 
   number of l-projection  operators is LMAX  =           6
   number of lm-projection operators is LMMAX =          18
 
 POTCAR:    PAW_PBE Zr_sv 04Jan2005               
   VRHFIN =Zr: 4s4p5s4d                                                                             
   LEXCH  = PE                                                                                      
   EATOM  =  1284.2219 eV,   94.3876 Ry                                                             
                                                                                                    
   TITEL  = PAW_PBE Zr_sv 04Jan2005                                                                 
   LULTRA =        F    use ultrasoft PP ?                                                          
   IUNSCR =        1    unscreen: 0-lin 1-nonlin 2-no                                               
   RPACOR =    2.200    partial core radius                                                         
   POMASS =   91.224; ZVAL   =   12.000    mass and valenz                                          
   RCORE  =    2.500    outmost cutoff radius                                                       
   RWIGS  =    3.070; RWIGS  =    1.625    wigner-seitz radius (au A)                               
   ENMAX  =  229.898; ENMIN  =  172.424 eV                                                          
   ICORE  =        3    local potential                                                             
   LCOR   =        T    correct aug charges                                                         
   LPAW   =        T    paw PP                                                                      
   EAUG   =  461.257                                                                                
   DEXC   =    0.000                                                                                
   RMAX   =    2.561    core radius for proj-oper                                                   
   RAUG   =    1.300    factor for augmentation sphere                                              
   RDEP   =    2.597    radius for radial grids                                                     
   RDEPT  =    2.007    core radius for aug-charge                                                  
                                                                                                    
   Atomic configuration                                                                             
   11 entries                                                                                       
     n  l   j            E        occ.                                                              
     1  0  0.50    -17820.0161   2.0000                                                             
     2  0  0.50     -2467.0882   2.0000                                                             
     2  1  1.50     -2199.6095   6.0000                                                             
     3  0  0.50      -402.4863   2.0000                                                             
     3  1  1.50      -315.3675   6.0000                                                             
     3  2  2.50      -172.4472  10.0000                                                             
     4  0  0.50       -52.4146   2.0000                                                             
     5  0  0.50        -3.8421   1.0000                                                             
     4  1  1.50       -30.5054   6.0000                                                             
     4  2  2.50        -2.3341   3.0000                                                             
     4  3  2.50        -1.3606   0.0000                                                             
   Description                                                                                      
     l       E           TYP  RCUT    TYP  RCUT                                                     
     0    -52.4145962     23  2.200                                                                 
     0     -3.8421270     23  2.500                                                                 
     1    -30.5053914     23  2.200                                                                 
     1     20.4087390     23  2.200                                                                 
     2     -2.3340816     23  2.500                                                                 
     2     -0.6120942     23  2.500                                                                 
     3     -4.0817478     23  2.500                                                                 
  local pseudopotential read in
  partial core-charges read in
  partial kinetic energy density read in
  atomic valenz-charges read in
  non local Contribution for L=           0  read in
    real space projection operators read in
  non local Contribution for L=           0  read in
    real space projection operators read in
  non local Contribution for L=           1  read in
    real space projection operators read in
  non local Contribution for L=           1  read in
    real space projection operators read in
  non local Contribution for L=           2  read in
    real space projection operators read in
  non local Contribution for L=           2  read in
    real space projection operators read in
    PAW grid and wavefunctions read in
 
   number of l-projection  operators is LMAX  =           6
   number of lm-projection operators is LMMAX =          18
 
 POTCAR:    PAW_PBE N 08Apr2002                   
   VRHFIN =N: s2p3                                                                                  
   LEXCH  = PE                                                                                      
   EATOM  =   264.5486 eV,   19.4438 Ry                                                             
                                                                                                    
   TITEL  = PAW_PBE N 08Apr2002                                                                     
   LULTRA =        F    use ultrasoft PP ?                                                          
   IUNSCR =        1    unscreen: 0-lin 1-nonlin 2-no                                               
   RPACOR =    1.200    partial core radius                                                         
   POMASS =   14.001; ZVAL   =    5.000    mass and valenz                                          
   RCORE  =    1.500    outmost cutoff radius                                                       
   RWIGS  =    1.400; RWIGS  =    0.741    wigner-seitz radius (au A)                               
   ENMAX  =  400.000; ENMIN  =  300.000 eV                                                          
   ICORE  =        2    local potential                                                             
   LCOR   =        T    correct aug charges                                                         
   LPAW   =        T    paw PP                                                                      
   EAUG   =  627.112                                                                                
   DEXC   =    0.000                                                                                
   RMAX   =    1.529    core radius for proj-oper                                                   
   RAUG   =    1.300    factor for augmentation sphere                                              
   RDEP   =    1.514    radius for radial grids                                                     
   RDEPT  =    1.338    core radius for aug-charge                                                  
                                                                                                    
   Atomic configuration                                                                             
    4 entries                                                                                       
     n  l   j            E        occ.                                                              
     1  0  0.50      -384.7179   2.0000                                                             
     2  0  0.50       -18.5828   2.0000                                                             
     2  1  0.50        -7.0898   3.0000                                                             
     3  2  1.50        -6.8029   0.0000                                                             
   Description                                                                                      
     l       E           TYP  RCUT    TYP  RCUT                                                     
     0    -18.5828119     23  1.200                                                                 
     0    -13.5018863     23  1.200                                                                 
     1     -7.0897853     23  1.500                                                                 
     1      9.5240782     23  1.500                                                                 
     2     -6.8029130      7  1.500                                                                 
  local pseudopotential read in
  partial core-charges read in
  partial kinetic energy density read in
  atomic valenz-charges read in
  non local Contribution for L=           0  read in
    real space projection operators read in
  non local Contribution for L=           0  read in
    real space projection operators read in
  non local Contribution for L=           1  read in
    real space projection operators read in
  non local Contribution for L=           1  read in
    real space projection operators read in
    PAW grid and wavefunctions read in
 
   number of l-projection  operators is LMAX  =           4
   number of lm-projection operators is LMMAX =           8
 
 Optimization of the real space projectors (new method)

 maximal supplied QI-value         = 15.12
 optimisation between [QCUT,QGAM] = [ 11.34, 22.83] = [ 36.00,145.93] Ry 
 Optimized for a Real-space Cutoff    1.43 Angstroem

   l    n(q)    QCUT    max X(q) W(low)/X(q) W(high)/X(q)  e(spline) 
   2      9    11.338    53.897    0.16E-03    0.20E-03    0.28E-06
   2      9    11.338    52.416    0.16E-03    0.20E-03    0.29E-06
   0     10    11.338   122.045    0.31E-04    0.76E-04    0.15E-06
   0     10    11.338    73.629    0.30E-04    0.72E-04    0.15E-06
   1      9    11.338    15.255    0.20E-03    0.19E-04    0.17E-06
   1      9    11.338     9.562    0.16E-03    0.15E-04    0.14E-06
 Optimization of the real space projectors (new method)

 maximal supplied QI-value         = 15.12
 optimisation between [QCUT,QGAM] = [ 11.34, 22.83] = [ 36.00,145.93] Ry 
 Optimized for a Real-space Cutoff    1.47 Angstroem

   l    n(q)    QCUT    max X(q) W(low)/X(q) W(high)/X(q)  e(spline) 
   0     10    11.338    12.107    0.38E-04    0.13E-04    0.27E-07
   0     10    11.338     9.948    0.69E-04    0.30E-04    0.38E-07
   1     10    11.338     3.563    0.26E-04    0.18E-04    0.40E-07
   1     10    11.338     4.524    0.25E-03    0.39E-04    0.44E-06
   2      9    11.338    87.261    0.26E-03    0.91E-05    0.26E-06
   2      9    11.338    70.950    0.25E-03    0.91E-05    0.25E-06
 Optimization of the real space projectors (new method)

 maximal supplied QI-value         = 25.13
 optimisation between [QCUT,QGAM] = [ 11.31, 22.87] = [ 35.82,146.48] Ry 
 Optimized for a Real-space Cutoff    1.27 Angstroem

   l    n(q)    QCUT    max X(q) W(low)/X(q) W(high)/X(q)  e(spline) 
   0      9    11.310    79.467    0.75E-04    0.16E-03    0.36E-06
   0      9    11.310    66.151    0.74E-04    0.16E-03    0.36E-06
   1      8    11.310    17.416    0.35E-03    0.12E-03    0.95E-06
   1      8    11.310    12.382    0.37E-03    0.13E-03    0.98E-06
  PAW_PBE Ag 02Apr2005                  :
 energy of atom  1       EATOM=-1037.2675
 kinetic energy error for atom=    0.0052 (will be added to EATOM!!)
  PAW_PBE Zr_sv 04Jan2005               :
 energy of atom  2       EATOM=-1284.2219
 kinetic energy error for atom=    0.0049 (will be added to EATOM!!)
  PAW_PBE N 08Apr2002                   :
 energy of atom  3       EATOM= -264.5486
 kinetic energy error for atom=    0.0138 (will be added to EATOM!!)
 
 
 POSCAR: Ag-Zr-N2
  positions in direct lattice
  velocities in cartesian coordinates
 exchange correlation table for  LEXCH =        8
   RHO(1)=    0.500       N(1)  =     2000
   RHO(2)=  100.500       N(2)  =     4000

 VTST: version 3.2, (02/03/18)

 CHAIN: initializing optimizer
 
 OPT: Using VASP Conjugate-Gradient optimizer
 CHAIN: Read ICHAIN            0
 
 POSCAR: Ag-Zr-N2
  positions in direct lattice
  velocities in cartesian coordinates
 


--------------------------------------------------------------------------------------------------------


 ion  position               nearest neighbor table
   1  0.000  0.000  0.238-   2 2.93   8 2.93   7 2.93   6 2.93   4 2.93  12 2.93  16 2.93  10 2.93
                             3 2.93
   2  0.333  0.000  0.238-   1 2.93   8 2.93   9 2.93   3 2.93   4 2.93   5 2.93  10 2.93  17 2.93
                            11 2.93
   3  0.667  0.000  0.238-   9 2.93   2 2.93   5 2.93  11 2.93   7 2.93  18 2.93   1 2.93   6 2.93
                            12 2.93
   4  0.000  0.333  0.238-   5 2.93   6 2.93   2 2.93   1 2.93   7 2.93  13 2.93  15 2.93   9 2.93
                            10 2.93
   5  0.333  0.333  0.238-   4 2.93   3 2.93   7 2.93   2 2.93   8 2.93  14 2.93  13 2.93  11 2.93
                             6 2.93
   6  0.667  0.333  0.238-   4 2.93   9 2.93   1 2.93  15 2.93   8 2.93  12 2.93   3 2.93   5 2.93
                            14 2.93
   7  0.000  0.667  0.238-   8 2.93   1 2.93   5 2.93   3 2.93   4 2.93  16 2.93  18 2.93  13 2.93
                             9 2.93
   8  0.333  0.667  0.238-   7 2.93   1 2.93   2 2.93   9 2.93   5 2.93  16 2.93   6 2.93  17 2.93
                            14 2.93
   9  0.667  0.667  0.238-   3 2.93   2 2.93   8 2.93   6 2.93  17 2.93   4 2.93  15 2.93   7 2.93
                            18 2.93
  10  0.111  0.111  0.346-  20 2.91  19 2.92  26 2.92  12 2.93  16 2.93  15 2.93  17 2.93  13 2.93
                            11 2.93   2 2.93   1 2.93   4 2.93
  11  0.444  0.111  0.346-  21 2.91  20 2.91  14 2.93  17 2.93  18 2.93   3 2.93  12 2.93  13 2.93
                            10 2.93   5 2.93   2 2.93  27 2.93
  12  0.778  0.111  0.346-  21 2.91  25 2.92  19 2.92  10 2.93  16 2.93  18 2.93  15 2.93  11 2.93
                             1 2.93  14 2.93   6 2.93   3 2.93
  13  0.111  0.444  0.346-  20 2.91  23 2.91  15 2.93  14 2.93  18 2.93  10 2.93  11 2.93  16 2.93
                             4 2.93   5 2.93   7 2.93  22 2.93
  14  0.444  0.444  0.346-  23 2.91  21 2.91  13 2.93  11 2.93  16 2.93   5 2.93  12 2.93  17 2.93
                             8 2.93  15 2.93   6 2.93  24 2.93
  15  0.778  0.444  0.346-  19 2.92  13 2.93  10 2.93  12 2.93  17 2.93  18 2.93   4 2.93   6 2.93
                             9 2.93  14 2.93  24 2.93  22 2.93
  16  0.111  0.778  0.346-  23 2.91  26 2.92  25 2.92  18 2.93  12 2.93  10 2.93  14 2.93  17 2.93
                            13 2.93   7 2.93   8 2.93   1 2.93
  17  0.444  0.778  0.346-  26 2.92  11 2.93  10 2.93   9 2.93  18 2.93  15 2.93  16 2.93   2 2.93
                            14 2.93   8 2.93  27 2.93  24 2.93
  18  0.778  0.778  0.346-  25 2.92  16 2.93  12 2.93  13 2.93  11 2.93  17 2.93  15 2.93   7 2.93
                             3 2.93   9 2.93  22 2.93  27 2.93
  19  0.889  0.222  0.453-  10 2.92  12 2.92  15 2.92  26 2.93  25 2.93  20 2.93  21 2.93  24 2.93
                            22 2.93  28 2.93  32 2.97  31 2.97
  20  0.222  0.222  0.453-  13 2.91  11 2.91  10 2.91  36 2.92  21 2.93  23 2.93  27 2.93  22 2.93
                            19 2.93  26 2.93  31 2.97  29 2.97
  21  0.555  0.222  0.453-  11 2.91  14 2.91  12 2.91  36 2.92  20 2.93  23 2.93  27 2.93  24 2.93
                            25 2.93  19 2.93  30 2.97  32 2.97
  22  0.889  0.556  0.454-  24 2.93  27 2.93  23 2.93  20 2.93  18 2.93  15 2.93  13 2.93  25 2.93
                            19 2.93  35 2.94  33 2.95  31 2.95
  23  0.222  0.555  0.453-  14 2.91  13 2.91  16 2.91  36 2.92  21 2.93  20 2.93  22 2.93  24 2.93
                            26 2.93  25 2.93  34 2.97  33 2.97
  24  0.556  0.556  0.454-  27 2.93  22 2.93  23 2.93  21 2.93  15 2.93  17 2.93  14 2.93  19 2.93
                            26 2.93  35 2.94  32 2.95  34 2.95
  25  0.889  0.889  0.453-  16 2.92  12 2.92  18 2.92  26 2.93  19 2.93  23 2.93  21 2.93  22 2.93
                            27 2.93  28 2.93  33 2.97  30 2.97
  26  0.222  0.889  0.453-  16 2.92  10 2.92  17 2.92  25 2.93  19 2.93  23 2.93  20 2.93  27 2.93
                            24 2.93  28 2.93  34 2.97  29 2.97
  27  0.556  0.889  0.454-  24 2.93  22 2.93  20 2.93  21 2.93  17 2.93  18 2.93  11 2.93  26 2.93
                            25 2.93  35 2.94  29 2.95  30 2.95
  28  0.000  0.000  0.561-  29 2.93  34 2.93  33 2.93  32 2.93  31 2.93  30 2.93  26 2.93  25 2.93
                            19 2.93
  29  0.334  0.000  0.563-  30 2.93  36 2.93  35 2.93  31 2.93  28 2.93  34 2.94  27 2.95  26 2.97
                            20 2.97
  30  0.666  0.000  0.563-  29 2.93  36 2.93  35 2.93  32 2.93  28 2.93  33 2.94  27 2.95  25 2.97
                            21 2.97
  31  0.000  0.334  0.563-  33 2.93  36 2.93  35 2.93  29 2.93  28 2.93  32 2.94  22 2.95  19 2.97
                            20 2.97
  32  0.666  0.334  0.563-  34 2.93  36 2.93  35 2.93  30 2.93  28 2.93  31 2.94  24 2.95  19 2.97
                            21 2.97
  33  0.000  0.666  0.563-  31 2.93  36 2.93  35 2.93  34 2.93  28 2.93  30 2.94  22 2.95  25 2.97
                            23 2.97
  34  0.334  0.666  0.563-  32 2.93  36 2.93  35 2.93  33 2.93  28 2.93  29 2.94  24 2.95  26 2.97
                            23 2.97
  35  0.667  0.667  0.563-  30 2.93  29 2.93  32 2.93  34 2.93  31 2.93  33 2.93  24 2.94  27 2.94
                            22 2.94
  36  0.333  0.333  0.560-  37 2.46  38 2.46  21 2.92  20 2.92  23 2.92  31 2.93  33 2.93  30 2.93
                            29 2.93  34 2.93  32 2.93
  37  0.267  0.335  0.668-  38 1.15  36 2.46
  38  0.398  0.335  0.668-  37 1.15  36 2.46
 
  LATTYP: Found a hexagonal cell.
 ALAT       =     8.7913665772
 C/A-ratio  =     2.5227160501
  
  Lattice vectors:
  
 A1 = (  -4.3956832886,  -7.6135467898,   0.0000000000)
 A2 = (   8.7913665771,   0.0000000000,   0.0000000000)
 A3 = (   0.0000000000,   0.0000000000,  22.1781215668)


Analysis of symmetry for initial positions (statically):
=====================================================================
 Subroutine PRICEL returns:
 Original cell was already a primitive cell.
 

 Routine SETGRP: Setting up the symmetry group for a 
 hexagonal supercell.


 Subroutine GETGRP returns: Found  2 space group operations
 (whereof  2 operations were pure point group operations)
 out of a pool of 24 trial point group operations.


The static configuration has the point symmetry C_1h.


Analysis of symmetry for dynamics (positions and initial velocities):
=====================================================================
 Subroutine PRICEL returns:
 Original cell was already a primitive cell.
 

 Routine SETGRP: Setting up the symmetry group for a 
 hexagonal supercell.


 Subroutine GETGRP returns: Found  2 space group operations
 (whereof  2 operations were pure point group operations)
 out of a pool of 24 trial point group operations.


The dynamic configuration has the point symmetry C_1h.


Analysis of constrained symmetry for selective dynamics:
=====================================================================
 Subroutine PRICEL returns:
 Original cell was already a primitive cell.
 

 Routine SETGRP: Setting up the symmetry group for a 
 hexagonal supercell.


 Subroutine GETGRP returns: Found  2 space group operations
 (whereof  2 operations were pure point group operations)
 out of a pool of 24 trial point group operations.


The constrained configuration has the point symmetry C_1h.


 Subroutine INISYM returns: Found  2 space group operations
 (whereof  2 operations are pure point group operations),
 and found     1 'primitive' translations


----------------------------------------------------------------------------------------

                                     Primitive cell                                     

  volume of cell :    1484.4589

  direct lattice vectors                    reciprocal lattice vectors
     8.791366577  0.000000000  0.000000000     0.113747958 -0.065672414  0.000000000
     4.395683289  7.613546790  0.000000000     0.000000000  0.131344829  0.000000000
     0.000000000  0.000000000 22.178121567     0.000000000  0.000000000  0.045089481

  length of vectors
     8.791366577  8.791366577 22.178121567     0.131344829  0.131344829  0.045089481

  position of ions in fractional coordinates (direct lattice)
     0.000000000  0.000000000  0.238171124
     0.333333313  0.000000000  0.238171124
     0.666666627  0.000000000  0.238171124
     0.000000000  0.333333343  0.238171124
     0.333333313  0.333333343  0.238171124
     0.666666687  0.333333343  0.238171124
     0.000000000  0.666666687  0.238171124
     0.333333313  0.666666687  0.238171124
     0.666666627  0.666666687  0.238171124
     0.111111104  0.111111112  0.346057051
     0.444444448  0.111111112  0.346057051
     0.777777791  0.111111112  0.346057051
     0.111111097  0.444444448  0.346057051
     0.444444418  0.444444448  0.346057051
     0.777777791  0.444444448  0.346057051
     0.111111104  0.777777791  0.346057051
     0.444444448  0.777777791  0.346057051
     0.777777791  0.777777791  0.346057051
     0.888999251  0.222001514  0.453117813
     0.222276674  0.222276689  0.452809142
     0.555446592  0.222276689  0.452809142
     0.888861266  0.555569397  0.453971523
     0.222276689  0.555446652  0.452809142
     0.555569397  0.555569397  0.453971523
     0.888999251  0.888999251  0.453117813
     0.222001484  0.888999251  0.453117813
     0.555569337  0.888861266  0.453971523
     0.000000000  0.000000000  0.561223855
     0.333557519  0.000155156  0.562875279
     0.666287264  0.000155156  0.562875279
     0.000155156  0.333557549  0.562875279
     0.666287324  0.333557549  0.562875279
     0.000155156  0.666287324  0.562875279
     0.333557519  0.666287324  0.562875279
     0.666666627  0.666666687  0.562514478
     0.333333313  0.333333343  0.560297282
     0.266738495  0.335281204  0.668135738
     0.397980271  0.335281204  0.668135738

  ion indices of the primitive-cell ions
   primitive index   ion index
                 1           1
                 2           2
                 3           3
                 4           4
                 5           5
                 6           6
                 7           7
                 8           8
                 9           9
                10          10
                11          11
                12          12
                13          13
                14          14
                15          15
                16          16
                17          17
                18          18
                19          19
                20          20
                21          21
                22          22
                23          23
                24          24
                25          25
                26          26
                27          27
                28          28
                29          29
                30          30
                31          31
                32          32
                33          33
                34          34
                35          35
                36          36
                37          37
                38          38

----------------------------------------------------------------------------------------

 
 
 KPOINTS: Automatic mesh                          

Automatic generation of k-mesh.
 Grid dimensions read from file:
 generate k-points for:    8    8    1

 Generating k-lattice:

  Cartesian coordinates                     Fractional coordinates (reciprocal lattice)
     0.014218495 -0.008209052  0.000000000     0.125000000  0.000000000  0.000000000
     0.000000000  0.016418104  0.000000000     0.000000000  0.125000000  0.000000000
     0.000000000  0.000000000  0.045089481     0.000000000  0.000000000  1.000000000

  Length of vectors
     0.016418104  0.016418104  0.045089481

  Shift w.r.t. Gamma in fractional coordinates (k-lattice)
     0.000000000  0.000000000  0.000000000

 TETIRR: Found    100 inequivalent tetrahedra from      384
 
 Subroutine IBZKPT returns following result:
 ===========================================
 
 Found     21 irreducible k-points:
 
 Following reciprocal coordinates:
            Coordinates               Weight
  0.000000  0.000000  0.000000      1.000000
  0.125000 -0.000000  0.000000      4.000000
  0.000000  0.125000  0.000000      2.000000
  0.250000 -0.000000  0.000000      4.000000
  0.000000  0.250000  0.000000      2.000000
  0.375000 -0.000000  0.000000      4.000000
  0.000000  0.375000  0.000000      2.000000
  0.500000 -0.000000  0.000000      2.000000
  0.000000  0.500000  0.000000      1.000000
  0.250000  0.125000  0.000000      2.000000
  0.125000  0.250000  0.000000      4.000000
  0.375000  0.125000  0.000000      4.000000
  0.250000  0.375000  0.000000      4.000000
 -0.125000  0.250000  0.000000      4.000000
  0.500000  0.125000  0.000000      4.000000
  0.375000  0.500000  0.000000      4.000000
 -0.125000  0.375000  0.000000      4.000000
  0.500000  0.250000  0.000000      2.000000
  0.250000  0.500000  0.000000      4.000000
 -0.375000  0.250000  0.000000      4.000000
 -0.250000  0.375000  0.000000      2.000000
 
 Following cartesian coordinates:
            Coordinates               Weight
  0.000000  0.000000  0.000000      1.000000
  0.014218 -0.008209  0.000000      4.000000
  0.000000  0.016418  0.000000      2.000000
  0.028437 -0.016418  0.000000      4.000000
  0.000000  0.032836  0.000000      2.000000
  0.042655 -0.024627  0.000000      4.000000
  0.000000  0.049254  0.000000      2.000000
  0.056874 -0.032836  0.000000      2.000000
  0.000000  0.065672  0.000000      1.000000
  0.028437 -0.000000  0.000000      2.000000
  0.014218  0.024627  0.000000      4.000000
  0.042655 -0.008209  0.000000      4.000000
  0.028437  0.032836  0.000000      4.000000
 -0.014218  0.041045  0.000000      4.000000
  0.056874 -0.016418  0.000000      4.000000
  0.042655  0.041045  0.000000      4.000000
 -0.014218  0.057463  0.000000      4.000000
  0.056874 -0.000000  0.000000      2.000000
  0.028437  0.049254  0.000000      4.000000
 -0.042655  0.057463  0.000000      4.000000
 -0.028437  0.065672  0.000000      2.000000
 


--------------------------------------------------------------------------------------------------------




 Dimension of arrays:
   k-points           NKPTS =     21   k-points in BZ     NKDIM =     21   number of bands    NBANDS=    252
   number of dos      NEDOS =    301   number of ions     NIONS =     38
   non local maximal  LDIM  =      6   non local SUM 2l+1 LMDIM =     18
   total plane-waves  NPLWV = 290304
   max r-space proj   IRMAX =   2675   max aug-charges    IRDMAX=   9814
   dimension x,y,z NGX =    48 NGY =   48 NGZ =  126
   dimension x,y,z NGXF=    96 NGYF=   96 NGZF=  252
   support grid    NGXF=    96 NGYF=   96 NGZF=  252
   ions per type =              35   1   2
   NGX,Y,Z   is equivalent  to a cutoff of   9.08,  9.08,  9.44 a.u.
   NGXF,Y,Z  is equivalent  to a cutoff of  18.15, 18.15, 18.89 a.u.

 SYSTEM =  unknown system                          
 POSCAR =  Ag-Zr-N2                                

 Startparameter for this run:
   NWRITE =      2    write-flag & timer
   PREC   = normal    normal or accurate (medium, high low for compatibility)
   ISTART =      0    job   : 0-new  1-cont  2-samecut
   ICHARG =     11    charge: 1-file 2-atom 10-const
   ISPIN  =      1    spin polarized calculation?
   LNONCOLLINEAR =      F non collinear calculations
   LSORBIT =      F    spin-orbit coupling
   INIWAV =      1    electr: 0-lowe 1-rand  2-diag
   LASPH  =      F    aspherical Exc in radial PAW
   METAGGA=      F    non-selfconsistent MetaGGA calc.

 Electronic Relaxation 1
   ENCUT  =  500.0 eV  36.75 Ry    6.06 a.u.  16.03 16.03 40.44*2*pi/ulx,y,z
   ENINI  =  500.0     initial cutoff
   ENAUG  =  627.1 eV  augmentation charge cutoff
   NELM   =    150;   NELMIN=  2; NELMDL= -5     # of ELM steps 
   EDIFF  = 0.1E-04   stopping-criterion for ELM
   LREAL  =      T    real-space projection
   NLSPLINE    = F    spline interpolate recip. space projectors
   LCOMPAT=      F    compatible to vasp.4.4
   GGA_COMPAT  = T    GGA compatible to vasp.4.4-vasp.4.6
   LMAXPAW     = -100 max onsite density
   LMAXMIX     =    2 max onsite mixed and CHGCAR
   VOSKOWN=      0    Vosko Wilk Nusair interpolation
   ROPT   =   -0.00050  -0.00050  -0.00050
 Ionic relaxation
   EDIFFG = -.1E-01   stopping-criterion for IOM
   NSW    =      0    number of steps for IOM
   NBLOCK =      1;   KBLOCK =      1    inner block; outer block 
   IBRION =     -1    ionic relax: 0-MD 1-quasi-New 2-CG
   NFREE  =      1    steps in history (QN), initial steepest desc. (CG)
   ISIF   =      2    stress and relaxation
   IWAVPR =     10    prediction:  0-non 1-charg 2-wave 3-comb
   ISYM   =      2    0-nonsym 1-usesym 2-fastsym
   LCORR  =      T    Harris-Foulkes like correction to forces

   POTIM  = 0.5000    time-step for ionic-motion
   TEIN   =    0.0    initial temperature
   TEBEG  =    0.0;   TEEND  =   0.0 temperature during run
   SMASS  =  -3.00    Nose mass-parameter (am)
   estimated Nose-frequenzy (Omega)   =  0.10E-29 period in steps = 0.13E+47 mass=  -0.177E-26a.u.
   SCALEE = 1.0000    scale energy and forces
   NPACO  =    256;   APACO  = 16.0  distance and # of slots for P.C.
   PSTRESS=    0.0 pullay stress

  Mass of Ions in am
   POMASS = 107.87 91.22 14.00
  Ionic Valenz
   ZVAL   =  11.00 12.00  5.00
  Atomic Wigner-Seitz radii
   RWIGS  =  -1.00 -1.00 -1.00
  virtual crystal weights 
   VCA    =   1.00  1.00  1.00
   NELECT =     407.0000    total number of electrons
   NUPDOWN=      -1.0000    fix difference up-down

 DOS related values:
   EMIN   =  10.00;   EMAX   =-10.00  energy-range for DOS
   EFERMI =   0.00
   ISMEAR =    -5;   SIGMA  =   0.10  broadening in eV -4-tet -1-fermi 0-gaus

 Electronic relaxation 2 (details)
   IALGO  =     68    algorithm
   LDIAG  =      T    sub-space diagonalisation (order eigenvalues)
   LSUBROT=      F    optimize rotation matrix (better conditioning)
   TURBO    =      0    0=normal 1=particle mesh
   IRESTART =      0    0=no restart 2=restart with 2 vectors
   NREBOOT  =      0    no. of reboots
   NMIN     =      0    reboot dimension
   EREF     =   0.00    reference energy to select bands
   IMIX   =      4    mixing-type and parameters
     AMIX     =   0.40;   BMIX     =  1.00
     AMIX_MAG =   1.60;   BMIX_MAG =  1.00
     AMIN     =   0.10
     WC   =   100.;   INIMIX=   1;  MIXPRE=   1;  MAXMIX= -45

 Intra band minimization:
   WEIMIN = 0.0000     energy-eigenvalue tresh-hold
   EBREAK =  0.99E-08  absolut break condition
   DEPER  =   0.30     relativ break condition  

   TIME   =   0.40     timestep for ELM

  volume/ion in A,a.u.               =      39.06       263.62
  Fermi-wavevector in a.u.,A,eV,Ry     =   1.063531  2.009783 15.389532  1.131099
  Thomas-Fermi vector in A             =   2.199019
 
 Write flags
   LWAVE        =      F    write WAVECAR
   LDOWNSAMPLE  =      F    k-point downsampling of WAVECAR
   LCHARG       =      F    write CHGCAR
   LVTOT        =      F    write LOCPOT, total local potential
   LVHAR        =      F    write LOCPOT, Hartree potential only
   LELF         =      F    write electronic localiz. function (ELF)
   LORBIT       =     10    0 simple, 1 ext, 2 COOP (PROOUT), +10 PAW based schemes


 Dipole corrections
   LMONO  =      F    monopole corrections only (constant potential shift)
   LDIPOL =      F    correct potential (dipole corrections)
   IDIPOL =      0    1-x, 2-y, 3-z, 4-all directions 
   EPSILON=  1.0000000 bulk dielectric constant

 Exchange correlation treatment:
   GGA     =    --    GGA type
   LEXCH   =     8    internal setting for exchange type
   VOSKOWN=      0    Vosko Wilk Nusair interpolation
   LHFCALC =     F    Hartree Fock is set to
   LHFONE  =     F    Hartree Fock one center treatment
   AEXX    =    0.0000 exact exchange contribution

 Linear response parameters
   LEPSILON=     F    determine dielectric tensor
   LRPA    =     F    only Hartree local field effects (RPA)
   LNABLA  =     F    use nabla operator in PAW spheres
   LVEL    =     F    velocity operator in full k-point grid
   LINTERFAST=   F  fast interpolation
   KINTER  =     0    interpolate to denser k-point grid
   CSHIFT  =0.1000    complex shift for real part using Kramers Kronig
   OMEGAMAX=  -1.0    maximum frequency
   DEG_THRESHOLD= 0.2000000E-02 threshold for treating states as degnerate
   RTIME   =   -0.100 relaxation time in fs
  (WPLASMAI=    0.000 imaginary part of plasma frequency in eV, 0.658/RTIME)
   DFIELD  = 0.0000000 0.0000000 0.0000000 field for delta impulse in time
 
 Orbital magnetization related:
   ORBITALMAG=     F  switch on orbital magnetization
   LCHIMAG   =     F  perturbation theory with respect to B field
   DQ        =  0.001000  dq finite difference perturbation B field
   LLRAUG    =     F  two centre corrections for induced B field



--------------------------------------------------------------------------------------------------------


 Static calculation
 charge density and potential remain constant during run
 non-spin polarized calculation
 RMM-DIIS sequential band-by-band and
  variant of blocked Davidson during initial phase
 perform sub-space diagonalisation
    before iterative eigenvector-optimisation
 no mixing
 using additional bands           48
 real space projection scheme for non local part
 use partial core corrections
 calculate Harris-corrections to forces 
   (improved forces if not selfconsistent)
 use gradient corrections 
 WARNING: stress and forces are not correct
  (second derivative of E(xc) not defined)
 use of overlap-Matrix (Vanderbilt PP)
 Fermi weights with tetrahedron method with Bloechl corrections


--------------------------------------------------------------------------------------------------------


  energy-cutoff  :      500.00
  volume of cell :     1484.46
      direct lattice vectors                 reciprocal lattice vectors
     8.791366577  0.000000000  0.000000000     0.113747958 -0.065672414  0.000000000
     4.395683289  7.613546790  0.000000000     0.000000000  0.131344829  0.000000000
     0.000000000  0.000000000 22.178121567     0.000000000  0.000000000  0.045089481

  length of vectors
     8.791366577  8.791366577 22.178121567     0.131344829  0.131344829  0.045089481


 
 k-points in units of 2pi/SCALE and weight: Automatic mesh                          
   0.00000000  0.00000000  0.00000000       0.016
   0.01421849 -0.00820905  0.00000000       0.062
   0.00000000  0.01641810  0.00000000       0.031
   0.02843699 -0.01641810  0.00000000       0.062
   0.00000000  0.03283621  0.00000000       0.031
   0.04265548 -0.02462716  0.00000000       0.062
   0.00000000  0.04925431  0.00000000       0.031
   0.05687398 -0.03283621  0.00000000       0.031
   0.00000000  0.06567241  0.00000000       0.016
   0.02843699 -0.00000000  0.00000000       0.031
   0.01421849  0.02462716  0.00000000       0.062
   0.04265548 -0.00820905  0.00000000       0.062
   0.02843699  0.03283621  0.00000000       0.062
  -0.01421849  0.04104526  0.00000000       0.062
   0.05687398 -0.01641810  0.00000000       0.062
   0.04265548  0.04104526  0.00000000       0.062
  -0.01421849  0.05746336  0.00000000       0.062
   0.05687398 -0.00000000  0.00000000       0.031
   0.02843699  0.04925431  0.00000000       0.062
  -0.04265548  0.05746336  0.00000000       0.062
  -0.02843699  0.06567241  0.00000000       0.031
 
 k-points in reciprocal lattice and weights: Automatic mesh                          
   0.00000000  0.00000000  0.00000000       0.016
   0.12500000 -0.00000000  0.00000000       0.062
   0.00000000  0.12500000  0.00000000       0.031
   0.25000000 -0.00000000  0.00000000       0.062
   0.00000000  0.25000000  0.00000000       0.031
   0.37500000 -0.00000000  0.00000000       0.062
   0.00000000  0.37500000  0.00000000       0.031
   0.50000000 -0.00000000  0.00000000       0.031
   0.00000000  0.50000000  0.00000000       0.016
   0.25000000  0.12500000  0.00000000       0.031
   0.12500000  0.25000000  0.00000000       0.062
   0.37500000  0.12500000  0.00000000       0.062
   0.25000000  0.37500000  0.00000000       0.062
  -0.12500000  0.25000000  0.00000000       0.062
   0.50000000  0.12500000  0.00000000       0.062
   0.37500000  0.50000000  0.00000000       0.062
  -0.12500000  0.37500000  0.00000000       0.062
   0.50000000  0.25000000  0.00000000       0.031
   0.25000000  0.50000000  0.00000000       0.062
  -0.37500000  0.25000000  0.00000000       0.062
  -0.25000000  0.37500000  0.00000000       0.031
 
 position of ions in fractional coordinates (direct lattice) 
   0.00000000  0.00000000  0.23817112
   0.33333331  0.00000000  0.23817112
   0.66666663  0.00000000  0.23817112
   0.00000000  0.33333334  0.23817112
   0.33333331  0.33333334  0.23817112
   0.66666669  0.33333334  0.23817112
   0.00000000  0.66666669  0.23817112
   0.33333331  0.66666669  0.23817112
   0.66666663  0.66666669  0.23817112
   0.11111110  0.11111111  0.34605705
   0.44444445  0.11111111  0.34605705
   0.77777779  0.11111111  0.34605705
   0.11111110  0.44444445  0.34605705
   0.44444442  0.44444445  0.34605705
   0.77777779  0.44444445  0.34605705
   0.11111110  0.77777779  0.34605705
   0.44444445  0.77777779  0.34605705
   0.77777779  0.77777779  0.34605705
   0.88899925  0.22200151  0.45311781
   0.22227667  0.22227669  0.45280914
   0.55544659  0.22227669  0.45280914
   0.88886127  0.55556940  0.45397152
   0.22227669  0.55544665  0.45280914
   0.55556940  0.55556940  0.45397152
   0.88899925  0.88899925  0.45311781
   0.22200148  0.88899925  0.45311781
   0.55556934  0.88886127  0.45397152
   0.00000000  0.00000000  0.56122385
   0.33355752  0.00015516  0.56287528
   0.66628726  0.00015516  0.56287528
   0.00015516  0.33355755  0.56287528
   0.66628732  0.33355755  0.56287528
   0.00015516  0.66628732  0.56287528
   0.33355752  0.66628732  0.56287528
   0.66666663  0.66666669  0.56251448
   0.33333331  0.33333334  0.56029728
   0.26673849  0.33528120  0.66813574
   0.39798027  0.33528120  0.66813574
 
 position of ions in cartesian coordinates  (Angst):
   0.00000000  0.00000000  5.28218814
   2.93045535  0.00000000  5.28218814
   5.86091070  0.00000000  5.28218814
   1.46522781  2.53784900  5.28218814
   4.39568315  2.53784900  5.28218814
   7.32613904  2.53784900  5.28218814
   2.93045562  5.07569801  5.28218814
   5.86091096  5.07569801  5.28218814
   8.79136632  5.07569801  5.28218814
   1.46522770  0.84594965  7.67489535
   4.39568332  0.84594965  7.67489535
   7.32613893  0.84594965  7.67489535
   2.93045542  3.38379860  7.67489535
   5.86091083  3.38379860  7.67489535
   8.79136671  3.38379860  7.67489535
   4.39568328  5.92164760  7.67489535
   7.32613890  5.92164760  7.67489535
  10.25659451  5.92164760  7.67489535
   8.79136665  1.69021891 10.04930193
   2.93117365  1.69231397 10.04245621
   5.86019253  1.69231397 10.04245621
  10.25641234  4.22985360 10.06823562
   4.39568342  4.22891908 10.04245621
   7.32632134  4.22985360 10.06823562
  11.72327746  6.76843739 10.04930193
   5.85945558  6.76843739 10.04930193
   8.79136631  6.76738684 10.06823562
   0.00000000  0.00000000 12.44689088
   2.93310845  0.00118129 12.48351635
   5.85825760  0.00118129 12.48351635
   1.46757738  2.53955601 12.48351635
   7.32378946  2.53955601 12.48351635
   2.93015209  5.07280972 12.48351635
   5.86121449  5.07280972 12.48351635
   8.79136632  5.07569801 12.47551447
   4.39568315  2.53784900 12.42634123
   3.81878587  2.55267913 14.81799562
   4.97258043  2.55267913 14.81799562
 


--------------------------------------------------------------------------------------------------------


 k-point   1 :   0.0000 0.0000 0.0000  plane waves:   37683
 k-point   2 :   0.1250-0.0000 0.0000  plane waves:   37658
 k-point   3 :   0.0000 0.1250 0.0000  plane waves:   37658
 k-point   4 :   0.2500-0.0000 0.0000  plane waves:   37682
 k-point   5 :   0.0000 0.2500 0.0000  plane waves:   37682
 k-point   6 :   0.3750-0.0000 0.0000  plane waves:   37686
 k-point   7 :   0.0000 0.3750 0.0000  plane waves:   37686
 k-point   8 :   0.5000-0.0000 0.0000  plane waves:   37668
 k-point   9 :   0.0000 0.5000 0.0000  plane waves:   37668
 k-point  10 :   0.2500 0.1250 0.0000  plane waves:   37666
 k-point  11 :   0.1250 0.2500 0.0000  plane waves:   37666
 k-point  12 :   0.3750 0.1250 0.0000  plane waves:   37708
 k-point  13 :   0.2500 0.3750 0.0000  plane waves:   37708
 k-point  14 :  -0.1250 0.2500 0.0000  plane waves:   37708
 k-point  15 :   0.5000 0.1250 0.0000  plane waves:   37726
 k-point  16 :   0.3750 0.5000 0.0000  plane waves:   37726
 k-point  17 :  -0.1250 0.3750 0.0000  plane waves:   37726
 k-point  18 :   0.5000 0.2500 0.0000  plane waves:   37706
 k-point  19 :   0.2500 0.5000 0.0000  plane waves:   37706
 k-point  20 :  -0.3750 0.2500 0.0000  plane waves:   37686
 k-point  21 :  -0.2500 0.3750 0.0000  plane waves:   37686

 maximum and minimum number of plane-waves per node :     37726    37658

 maximum number of plane-waves:     37726
 maximum index in each direction: 
   IXMAX=   16   IYMAX=   16   IZMAX=   40
   IXMIN=  -16   IYMIN=  -16   IZMIN=  -40


 serial   3D FFT for wavefunctions
 parallel 3D FFT for charge:
    minimum data exchange during FFTs selected (reduces bandwidth)


 total amount of memory used by VASP MPI-rank0   184155. kBytes
=======================================================================

   base      :      30000. kBytes
   nonlr-proj:      15187. kBytes
   fftplans  :       4330. kBytes
   grid      :      17879. kBytes
   one-center:        590. kBytes
   wavefun   :     116169. kBytes
 
     INWAV:  cpu time    0.0000: real time    0.0000
 initial charge density was supplied:
 number of electron     407.0000020 magnetization 
 keeping initial charge density in first step


--------------------------------------------------------------------------------------------------------


 Maximum index for non-local projection operator         2554
 Maximum index for augmentation-charges          707 (set IRDMAX)


--------------------------------------------------------------------------------------------------------


 First call to EWALD:  gamma=   0.155
 Maximum number of real-space cells 4x 4x 2
 Maximum number of reciprocal cells 2x 2x 5

    FEWALD:  cpu time    0.0013: real time    0.0013


--------------------------------------- Iteration      1(   1)  ---------------------------------------


    POTLOK:  cpu time    0.0427: real time    0.0430
    SETDIJ:  cpu time    0.0046: real time    0.0047
     EDDAV:  cpu time   15.0273: real time   15.0289
 BZINTS: Fermi energy:    9.900683;  407.000000 electrons
         Band energy: 0.113194E+04;  BLOECHL correction:   -0.023889
       DOS:  cpu time    0.0299: real time    0.0299
    --------------------------------------------
      LOOP:  cpu time   15.1046: real time   15.1066

 eigenvalue-minimisations  : 10612
 total energy-change (2. order) : 0.2581008E+04  (-0.1902877E+05)
 number of electron     407.0000020 magnetization 
 augmentation part      407.0000020 magnetization 

 Free energy of the ion-electron system (eV)
  ---------------------------------------------------
  alpha Z        PSCENC =       784.19384997
  Ewald energy   TEWEN  =     96578.03174737
  -Hartree energ DENC   =   -135280.28004588
  -exchange      EXHF   =         0.00000000
  -V(xc)+E(xc)   XCENC  =      -300.62429139
  PAW double counting   =     40606.84922013   -39056.56863154
  entropy T*S    EENTRO =         0.00000000
  eigenvalues    EBANDS =      1131.93876695
  atomic energy  EATOM  =     38117.46756755
  Solvation  Ediel_sol  =         0.00000000
  ---------------------------------------------------
  free energy    TOTEN  =      2581.00818317 eV

  energy without entropy =     2581.00818317  energy(sigma->0) =     2581.00818317


--------------------------------------------------------------------------------------------------------




--------------------------------------- Iteration      1(   2)  ---------------------------------------


     EDDAV:  cpu time   15.7755: real time   15.7759
 BZINTS: Fermi energy:    1.671159;  407.000000 electrons
         Band energy:-0.145559E+04;  BLOECHL correction:   -0.029431
       DOS:  cpu time    0.0289: real time    0.0289
    --------------------------------------------
      LOOP:  cpu time   15.8044: real time   15.8048

 eigenvalue-minimisations  : 11172
 total energy-change (2. order) :-0.2587532E+04  (-0.2486393E+04)
 number of electron     407.0000020 magnetization 
 augmentation part      407.0000020 magnetization 

 Free energy of the ion-electron system (eV)
  ---------------------------------------------------
  alpha Z        PSCENC =       784.19384997
  Ewald energy   TEWEN  =     96578.03174737
  -Hartree energ DENC   =   -135280.28004588
  -exchange      EXHF   =         0.00000000
  -V(xc)+E(xc)   XCENC  =      -300.62429139
  PAW double counting   =     40606.84922013   -39056.56863154
  entropy T*S    EENTRO =         0.00000000
  eigenvalues    EBANDS =     -1455.59355648
  atomic energy  EATOM  =     38117.46756755
  Solvation  Ediel_sol  =         0.00000000
  ---------------------------------------------------
  free energy    TOTEN  =        -6.52414026 eV

  energy without entropy =       -6.52414026  energy(sigma->0) =       -6.52414026


--------------------------------------------------------------------------------------------------------




--------------------------------------- Iteration      1(   3)  ---------------------------------------


     EDDAV:  cpu time   19.2904: real time   19.2907
 BZINTS: Fermi energy:    1.059917;  407.000000 electrons
         Band energy:-0.155940E+04;  BLOECHL correction:   -0.020464
       DOS:  cpu time    0.0306: real time    0.0306
    --------------------------------------------
      LOOP:  cpu time   19.3210: real time   19.3213

 eigenvalue-minimisations  : 14280
 total energy-change (2. order) :-0.1038042E+03  (-0.1021327E+03)
 number of electron     407.0000020 magnetization 
 augmentation part      407.0000020 magnetization 

 Free energy of the ion-electron system (eV)
  ---------------------------------------------------
  alpha Z        PSCENC =       784.19384997
  Ewald energy   TEWEN  =     96578.03174737
  -Hartree energ DENC   =   -135280.28004588
  -exchange      EXHF   =         0.00000000
  -V(xc)+E(xc)   XCENC  =      -300.62429139
  PAW double counting   =     40606.84922013   -39056.56863154
  entropy T*S    EENTRO =         0.00000000
  eigenvalues    EBANDS =     -1559.39775470
  atomic energy  EATOM  =     38117.46756755
  Solvation  Ediel_sol  =         0.00000000
  ---------------------------------------------------
  free energy    TOTEN  =      -110.32833848 eV

  energy without entropy =     -110.32833848  energy(sigma->0) =     -110.32833848


--------------------------------------------------------------------------------------------------------




--------------------------------------- Iteration      1(   4)  ---------------------------------------


     EDDAV:  cpu time   20.6367: real time   20.6371
 BZINTS: Fermi energy:    1.024865;  407.000000 electrons
         Band energy:-0.156231E+04;  BLOECHL correction:   -0.023505
       DOS:  cpu time    0.0305: real time    0.0305
    --------------------------------------------
      LOOP:  cpu time   20.6672: real time   20.6677

 eigenvalue-minimisations  : 15568
 total energy-change (2. order) :-0.2909113E+01  (-0.2884863E+01)
 number of electron     407.0000020 magnetization 
 augmentation part      407.0000020 magnetization 

 Free energy of the ion-electron system (eV)
  ---------------------------------------------------
  alpha Z        PSCENC =       784.19384997
  Ewald energy   TEWEN  =     96578.03174737
  -Hartree energ DENC   =   -135280.28004588
  -exchange      EXHF   =         0.00000000
  -V(xc)+E(xc)   XCENC  =      -300.62429139
  PAW double counting   =     40606.84922013   -39056.56863154
  entropy T*S    EENTRO =         0.00000000
  eigenvalues    EBANDS =     -1562.30686812
  atomic energy  EATOM  =     38117.46756755
  Solvation  Ediel_sol  =         0.00000000
  ---------------------------------------------------
  free energy    TOTEN  =      -113.23745190 eV

  energy without entropy =     -113.23745190  energy(sigma->0) =     -113.23745190


--------------------------------------------------------------------------------------------------------




--------------------------------------- Iteration      1(   5)  ---------------------------------------


     EDDAV:  cpu time   16.9218: real time   16.9221
 BZINTS: Fermi energy:    1.022494;  407.000000 electrons
         Band energy:-0.156239E+04;  BLOECHL correction:   -0.023762
       DOS:  cpu time    0.0273: real time    0.0273
    --------------------------------------------
      LOOP:  cpu time   16.9492: real time   16.9495

 eigenvalue-minimisations  : 12208
 total energy-change (2. order) :-0.8222497E-01  (-0.8214535E-01)
 number of electron     407.0000020 magnetization 
 augmentation part      407.0000020 magnetization 

 Free energy of the ion-electron system (eV)
  ---------------------------------------------------
  alpha Z        PSCENC =       784.19384997
  Ewald energy   TEWEN  =     96578.03174737
  -Hartree energ DENC   =   -135280.28004588
  -exchange      EXHF   =         0.00000000
  -V(xc)+E(xc)   XCENC  =      -300.62429139
  PAW double counting   =     40606.84922013   -39056.56863154
  entropy T*S    EENTRO =         0.00000000
  eigenvalues    EBANDS =     -1562.38909309
  atomic energy  EATOM  =     38117.46756755
  Solvation  Ediel_sol  =         0.00000000
  ---------------------------------------------------
  free energy    TOTEN  =      -113.31967688 eV

  energy without entropy =     -113.31967688  energy(sigma->0) =     -113.31967688


--------------------------------------------------------------------------------------------------------




--------------------------------------- Iteration      1(   6)  ---------------------------------------


    EDDIAG:  cpu time    3.0377: real time    3.0381
  RMM-DIIS:  cpu time   11.3133: real time   11.3133
    ORTHCH:  cpu time    0.5513: real time    0.5513
 BZINTS: Fermi energy:    1.022451;  407.000000 electrons
         Band energy:-0.156239E+04;  BLOECHL correction:   -0.023770
       DOS:  cpu time    0.0305: real time    0.0305
    --------------------------------------------
      LOOP:  cpu time   14.9328: real time   14.9332

 eigenvalue-minimisations  : 14459
 total energy-change (2. order) :-0.2573909E-02  (-0.2571397E-02)
 number of electron     407.0000020 magnetization 
 augmentation part      407.0000020 magnetization 

 Free energy of the ion-electron system (eV)
  ---------------------------------------------------
  alpha Z        PSCENC =       784.19384997
  Ewald energy   TEWEN  =     96578.03174737
  -Hartree energ DENC   =   -135280.28004588
  -exchange      EXHF   =         0.00000000
  -V(xc)+E(xc)   XCENC  =      -300.62429139
  PAW double counting   =     40606.84922013   -39056.56863154
  entropy T*S    EENTRO =         0.00000000
  eigenvalues    EBANDS =     -1562.39166700
  atomic energy  EATOM  =     38117.46756755
  Solvation  Ediel_sol  =         0.00000000
  ---------------------------------------------------
  free energy    TOTEN  =      -113.32225078 eV

  energy without entropy =     -113.32225078  energy(sigma->0) =     -113.32225078


--------------------------------------------------------------------------------------------------------




--------------------------------------- Iteration      1(   7)  ---------------------------------------


    EDDIAG:  cpu time    3.0318: real time    3.0321
  RMM-DIIS:  cpu time   16.3021: real time   16.3023
    ORTHCH:  cpu time    0.5512: real time    0.5512
 BZINTS: Fermi energy:    1.022436;  407.000000 electrons
         Band energy:-0.156239E+04;  BLOECHL correction:   -0.023772
       DOS:  cpu time    0.0305: real time    0.0305
    --------------------------------------------
      LOOP:  cpu time   19.9157: real time   19.9161

 eigenvalue-minimisations  : 20502
 total energy-change (2. order) :-0.1902925E-02  (-0.1857645E-02)
 number of electron     407.0000020 magnetization 
 augmentation part      407.0000020 magnetization 

 Free energy of the ion-electron system (eV)
  ---------------------------------------------------
  alpha Z        PSCENC =       784.19384997
  Ewald energy   TEWEN  =     96578.03174737
  -Hartree energ DENC   =   -135280.28004588
  -exchange      EXHF   =         0.00000000
  -V(xc)+E(xc)   XCENC  =      -300.62429139
  PAW double counting   =     40606.84922013   -39056.56863154
  entropy T*S    EENTRO =         0.00000000
  eigenvalues    EBANDS =     -1562.39356993
  atomic energy  EATOM  =     38117.46756755
  Solvation  Ediel_sol  =         0.00000000
  ---------------------------------------------------
  free energy    TOTEN  =      -113.32415371 eV

  energy without entropy =     -113.32415371  energy(sigma->0) =     -113.32415371


--------------------------------------------------------------------------------------------------------




--------------------------------------- Iteration      1(   8)  ---------------------------------------


    EDDIAG:  cpu time    3.0356: real time    3.0359
  RMM-DIIS:  cpu time   13.4233: real time   13.4235
    ORTHCH:  cpu time    0.5508: real time    0.5509
 BZINTS: Fermi energy:    1.022433;  407.000000 electrons
         Band energy:-0.156239E+04;  BLOECHL correction:   -0.023773
       DOS:  cpu time    0.0306: real time    0.0306
    --------------------------------------------
      LOOP:  cpu time   17.0404: real time   17.0408

 eigenvalue-minimisations  : 16003
 total energy-change (2. order) :-0.2822684E-03  (-0.2647287E-03)
 number of electron     407.0000020 magnetization 
 augmentation part      407.0000020 magnetization 

 Free energy of the ion-electron system (eV)
  ---------------------------------------------------
  alpha Z        PSCENC =       784.19384997
  Ewald energy   TEWEN  =     96578.03174737
  -Hartree energ DENC   =   -135280.28004588
  -exchange      EXHF   =         0.00000000
  -V(xc)+E(xc)   XCENC  =      -300.62429139
  PAW double counting   =     40606.84922013   -39056.56863154
  entropy T*S    EENTRO =         0.00000000
  eigenvalues    EBANDS =     -1562.39385220
  atomic energy  EATOM  =     38117.46756755
  Solvation  Ediel_sol  =         0.00000000
  ---------------------------------------------------
  free energy    TOTEN  =      -113.32443598 eV

  energy without entropy =     -113.32443598  energy(sigma->0) =     -113.32443598


--------------------------------------------------------------------------------------------------------




--------------------------------------- Iteration      1(   9)  ---------------------------------------


    EDDIAG:  cpu time    3.0330: real time    3.0332
  RMM-DIIS:  cpu time   11.7878: real time   11.7879
    ORTHCH:  cpu time    0.5510: real time    0.5511
 BZINTS: Fermi energy:    1.022431;  407.000000 electrons
         Band energy:-0.156239E+04;  BLOECHL correction:   -0.023774
       DOS:  cpu time    0.0299: real time    0.0299
    --------------------------------------------
      LOOP:  cpu time   15.4017: real time   15.4020

 eigenvalue-minimisations  : 13870
 total energy-change (2. order) :-0.1053222E-03  (-0.1010358E-03)
 number of electron     407.0000020 magnetization 
 augmentation part      407.0000020 magnetization 

 Free energy of the ion-electron system (eV)
  ---------------------------------------------------
  alpha Z        PSCENC =       784.19384997
  Ewald energy   TEWEN  =     96578.03174737
  -Hartree energ DENC   =   -135280.28004588
  -exchange      EXHF   =         0.00000000
  -V(xc)+E(xc)   XCENC  =      -300.62429139
  PAW double counting   =     40606.84922013   -39056.56863154
  entropy T*S    EENTRO =         0.00000000
  eigenvalues    EBANDS =     -1562.39395752
  atomic energy  EATOM  =     38117.46756755
  Solvation  Ediel_sol  =         0.00000000
  ---------------------------------------------------
  free energy    TOTEN  =      -113.32454130 eV

  energy without entropy =     -113.32454130  energy(sigma->0) =     -113.32454130


--------------------------------------------------------------------------------------------------------




--------------------------------------- Iteration      1(  10)  ---------------------------------------


    EDDIAG:  cpu time    3.0340: real time    3.0371
  RMM-DIIS:  cpu time   11.3556: real time   11.3557
    ORTHCH:  cpu time    0.5514: real time    0.5514
 BZINTS: Fermi energy:    1.022430;  407.000000 electrons
         Band energy:-0.156239E+04;  BLOECHL correction:   -0.023774
       DOS:  cpu time    0.0299: real time    0.0299
    --------------------------------------------
      LOOP:  cpu time   14.9709: real time   14.9741

 eigenvalue-minimisations  : 13025
 total energy-change (2. order) :-0.4605835E-04  (-0.4556765E-04)
 number of electron     407.0000020 magnetization 
 augmentation part      407.0000020 magnetization 

 Free energy of the ion-electron system (eV)
  ---------------------------------------------------
  alpha Z        PSCENC =       784.19384997
  Ewald energy   TEWEN  =     96578.03174737
  -Hartree energ DENC   =   -135280.28004588
  -exchange      EXHF   =         0.00000000
  -V(xc)+E(xc)   XCENC  =      -300.62429139
  PAW double counting   =     40606.84922013   -39056.56863154
  entropy T*S    EENTRO =         0.00000000
  eigenvalues    EBANDS =     -1562.39400358
  atomic energy  EATOM  =     38117.46756755
  Solvation  Ediel_sol  =         0.00000000
  ---------------------------------------------------
  free energy    TOTEN  =      -113.32458736 eV

  energy without entropy =     -113.32458736  energy(sigma->0) =     -113.32458736


--------------------------------------------------------------------------------------------------------




--------------------------------------- Iteration      1(  11)  ---------------------------------------


    EDDIAG:  cpu time    3.0402: real time    3.0402
  RMM-DIIS:  cpu time    9.7801: real time    9.7802
    ORTHCH:  cpu time    0.5513: real time    0.5513
 BZINTS: Fermi energy:    1.022429;  407.000000 electrons
         Band energy:-0.156239E+04;  BLOECHL correction:   -0.023774
       DOS:  cpu time    0.0305: real time    0.0305
    --------------------------------------------
      LOOP:  cpu time   13.4021: real time   13.4022

 eigenvalue-minimisations  : 11067
 total energy-change (2. order) :-0.2108724E-04  (-0.2205038E-04)
 number of electron     407.0000020 magnetization 
 augmentation part      407.0000020 magnetization 

 Free energy of the ion-electron system (eV)
  ---------------------------------------------------
  alpha Z        PSCENC =       784.19384997
  Ewald energy   TEWEN  =     96578.03174737
  -Hartree energ DENC   =   -135280.28004588
  -exchange      EXHF   =         0.00000000
  -V(xc)+E(xc)   XCENC  =      -300.62429139
  PAW double counting   =     40606.84922013   -39056.56863154
  entropy T*S    EENTRO =         0.00000000
  eigenvalues    EBANDS =     -1562.39402466
  atomic energy  EATOM  =     38117.46756755
  Solvation  Ediel_sol  =         0.00000000
  ---------------------------------------------------
  free energy    TOTEN  =      -113.32460845 eV

  energy without entropy =     -113.32460845  energy(sigma->0) =     -113.32460845


--------------------------------------------------------------------------------------------------------




--------------------------------------- Iteration      1(  12)  ---------------------------------------


    EDDIAG:  cpu time    3.0372: real time    3.0375
  RMM-DIIS:  cpu time    9.3145: real time    9.3145
    ORTHCH:  cpu time    0.5514: real time    0.5514
 BZINTS: Fermi energy:    1.022429;  407.000000 electrons
         Band energy:-0.156239E+04;  BLOECHL correction:   -0.023774
       DOS:  cpu time    0.0299: real time    0.0299
    --------------------------------------------
      LOOP:  cpu time   12.9329: real time   12.9333

 eigenvalue-minimisations  : 10354
 total energy-change (2. order) :-0.1022723E-04  (-0.1151064E-04)
 number of electron     407.0000020 magnetization 
 augmentation part      407.0000020 magnetization 

 Free energy of the ion-electron system (eV)
  ---------------------------------------------------
  alpha Z        PSCENC =       784.19384997
  Ewald energy   TEWEN  =     96578.03174737
  -Hartree energ DENC   =   -135280.28004588
  -exchange      EXHF   =         0.00000000
  -V(xc)+E(xc)   XCENC  =      -300.62429139
  PAW double counting   =     40606.84922013   -39056.56863154
  entropy T*S    EENTRO =         0.00000000
  eigenvalues    EBANDS =     -1562.39403489
  atomic energy  EATOM  =     38117.46756755
  Solvation  Ediel_sol  =         0.00000000
  ---------------------------------------------------
  free energy    TOTEN  =      -113.32461867 eV

  energy without entropy =     -113.32461867  energy(sigma->0) =     -113.32461867


--------------------------------------------------------------------------------------------------------




--------------------------------------- Iteration      1(  13)  ---------------------------------------


    EDDIAG:  cpu time    3.0397: real time    3.0399
  RMM-DIIS:  cpu time    8.7132: real time    8.7133
    ORTHCH:  cpu time    0.5514: real time    0.5514
 BZINTS: Fermi energy:    1.022428;  407.000000 electrons
         Band energy:-0.156239E+04;  BLOECHL correction:   -0.023774
       DOS:  cpu time    0.0305: real time    0.0305
    --------------------------------------------
      LOOP:  cpu time   12.3348: real time   12.3351

 eigenvalue-minimisations  :  9546
 total energy-change (2. order) :-0.5099806E-05  (-0.6134776E-05)
 number of electron     407.0000020 magnetization 
 augmentation part      407.0000020 magnetization 

 Free energy of the ion-electron system (eV)
  ---------------------------------------------------
  alpha Z        PSCENC =       784.19384997
  Ewald energy   TEWEN  =     96578.03174737
  -Hartree energ DENC   =   -135280.28004588
  -exchange      EXHF   =         0.00000000
  -V(xc)+E(xc)   XCENC  =      -300.62429139
  PAW double counting   =     40606.84922013   -39056.56863154
  entropy T*S    EENTRO =         0.00000000
  eigenvalues    EBANDS =     -1562.39403999
  atomic energy  EATOM  =     38117.46756755
  Solvation  Ediel_sol  =         0.00000000
  ---------------------------------------------------
  free energy    TOTEN  =      -113.32462377 eV

  energy without entropy =     -113.32462377  energy(sigma->0) =     -113.32462377


--------------------------------------------------------------------------------------------------------




 average (electrostatic) potential at core
  the test charge radii are     1.1249  1.0638  0.7089
  (the norm of the test charge is              1.0000)
       1 -77.8833       2 -77.8739       3 -77.8738       4 -77.8808       5 -77.8737
       6 -77.8806       7 -77.8740       8 -77.8738       9 -77.8823      10 -78.1253
      11 -78.1033      12 -78.1252      13 -78.1037      14 -78.1036      15 -78.1019
      16 -78.1296      17 -78.0999      18 -78.0999      19 -78.1211      20 -78.3070
      21 -78.3071      22 -78.0868      23 -78.3231      24 -78.0870      25 -78.1202
      26 -78.1203      27 -78.0794      28 -77.9290      29 -78.0839      30 -78.0839
      31 -78.0322      32 -78.0321      33 -78.0935      34 -78.0934      35 -77.8989
      36 -83.6300      37 -70.4260      38 -70.4256
 
 
 
 E-fermi :   1.0224     XC(G=0):  -6.0596     alpha+bet : -5.7789

 Fermi energy:         1.0224284783

 k-point     1 :       0.0000    0.0000    0.0000
  band No.  band energies     occupation 
      1     -48.6747      2.00000
      2     -26.8039      2.00000
      3     -26.7762      2.00000
      4     -26.5961      2.00000
      5     -22.1645      2.00000
      6      -8.4624      2.00000
      7      -6.4834      2.00000
      8      -6.0886      2.00000
      9      -5.9772      2.00000
     10      -5.2604      2.00000
     11      -5.0326      2.00000
     12      -4.8734      2.00000
     13      -4.8647      2.00000
     14      -4.8641      2.00000
     15      -4.8615      2.00000
     16      -4.8487      2.00000
     17      -4.8481      2.00000
     18      -4.8426      2.00000
     19      -4.8324      2.00000
     20      -4.8155      2.00000
     21      -4.8127      2.00000
     22      -4.8039      2.00000
     23      -4.8013      2.00000
     24      -4.7986      2.00000
     25      -4.6718      2.00000
     26      -4.6564      2.00000
     27      -4.6552      2.00000
     28      -4.6527      2.00000
     29      -4.6378      2.00000
     30      -4.6331      2.00000
     31      -4.6239      2.00000
     32      -4.5359      2.00000
     33      -4.4837      2.00000
     34      -4.4819      2.00000
     35      -4.4756      2.00000
     36      -4.4598      2.00000
     37      -4.4370      2.00000
     38      -4.4291      2.00000
     39      -4.4159      2.00000
     40      -4.4038      2.00000
     41      -4.4028      2.00000
     42      -4.3900      2.00000
     43      -4.3897      2.00000
     44      -4.3447      2.00000
     45      -4.3286      2.00000
     46      -4.3282      2.00000
     47      -4.3198      2.00000
     48      -4.2958      2.00000
     49      -4.2795      2.00000
     50      -4.0867      2.00000
     51      -4.0799      2.00000
     52      -4.0726      2.00000
     53      -4.0685      2.00000
     54      -4.0670      2.00000
     55      -4.0576      2.00000
     56      -4.0568      2.00000
     57      -4.0524      2.00000
     58      -4.0356      2.00000
     59      -4.0337      2.00000
     60      -3.8976      2.00000
     61      -3.8946      2.00000
     62      -3.8723      2.00000
     63      -3.8709      2.00000
     64      -3.7392      2.00000
     65      -3.7214      2.00000
     66      -3.7206      2.00000
     67      -3.6931      2.00000
     68      -3.6915      2.00000
     69      -3.6897      2.00000
     70      -3.6753      2.00000
     71      -3.6529      2.00000
     72      -3.6526      2.00000
     73      -3.6085      2.00000
     74      -3.6073      2.00000
     75      -3.5353      2.00000
     76      -3.5334      2.00000
     77      -3.5285      2.00000
     78      -3.5265      2.00000
     79      -3.5220      2.00000
     80      -3.5202      2.00000
     81      -3.5192      2.00000
     82      -3.5152      2.00000
     83      -3.4979      2.00000
     84      -3.4971      2.00000
     85      -3.4722      2.00000
     86      -3.4649      2.00000
     87      -3.4487      2.00000
     88      -3.4487      2.00000
     89      -3.4419      2.00000
     90      -3.4387      2.00000
     91      -3.4056      2.00000
     92      -3.4041      2.00000
     93      -3.3983      2.00000
     94      -3.3282      2.00000
     95      -3.3279      2.00000
     96      -3.3122      2.00000
     97      -3.3093      2.00000
     98      -3.3032      2.00000
     99      -3.3005      2.00000
    100      -3.2920      2.00000
    101      -3.2402      2.00000
    102      -3.2374      2.00000
    103      -3.2018      2.00000
    104      -3.1822      2.00000
    105      -3.1820      2.00000
    106      -3.1632      2.00000
    107      -3.1623      2.00000
    108      -3.0535      2.00000
    109      -3.0464      2.00000
    110      -2.9985      2.00000
    111      -2.9777      2.00000
    112      -2.9720      2.00000
    113      -2.9556      2.00000
    114      -2.9484      2.00000
    115      -2.9438      2.00000
    116      -2.9168      2.00000
    117      -2.9136      2.00000
    118      -2.9131      2.00000
    119      -2.8476      2.00000
    120      -2.8305      2.00000
    121      -2.8294      2.00000
    122      -2.8289      2.00000
    123      -2.7683      2.00000
    124      -2.7488      2.00000
    125      -2.7469      2.00000
    126      -2.7065      2.00000
    127      -2.7044      2.00000
    128      -2.6593      2.00000
    129      -2.6586      2.00000
    130      -2.6326      2.00000
    131      -2.6291      2.00000
    132      -2.6204      2.00000
    133      -2.6155      2.00000
    134      -2.6062      2.00000
    135      -2.6030      2.00000
    136      -2.5809      2.00000
    137      -2.5784      2.00000
    138      -2.5784      2.00000
    139      -2.5687      2.00000
    140      -2.5674      2.00000
    141      -2.5618      2.00000
    142      -2.4770      2.00000
    143      -2.4749      2.00000
    144      -2.4540      2.00000
    145      -2.4326      2.00000
    146      -2.4269      2.00000
    147      -2.4001      2.00000
    148      -2.3960      2.00000
    149      -2.3927      2.00000
    150      -2.3892      2.00000
    151      -2.3711      2.00000
    152      -2.3577      2.00000
    153      -2.3563      2.00000
    154      -2.3350      2.00000
    155      -2.3324      2.00000
    156      -2.3310      2.00000
[...]
  0.000   0.000   0.000   0.000   0.000   0.000   0.000   0.000   0.000   0.000   0.000   0.000   0.000   0.000   0.000   0.000
  0.000   0.000   0.000   0.000   0.000   0.000   0.000   0.000   0.000   0.000   0.000   0.000   0.000   0.000   0.000   0.000
  0.000   0.000   0.000   0.000   0.000   0.000   0.000   0.000   0.000   0.000   1.000   0.000   0.000   0.000   0.000   0.000
  0.000   0.000   0.000   0.000   0.000   0.000   0.000   0.000   0.000   0.000   0.000   0.000   0.000   0.000   0.000   0.000
  0.000   0.000   0.000   0.000   0.000   0.000   0.000   0.000   0.000   0.000   0.000   0.000   0.000   0.000   0.000   0.000
  0.000   0.000   0.000   0.000   0.000   0.000   0.000   0.000   0.000   0.000   0.000   0.000   0.000   0.000   0.000   0.000
  0.000   0.000   0.000   0.000   0.000   0.000   0.000   0.000   0.000   0.000   0.000   0.000   0.000   0.000   0.000   0.000
  0.000   0.000   0.000   0.000   0.000   0.000   0.000   0.000   0.000   0.000   0.000   0.000   0.000   0.000   0.000   0.000
  0.000   0.000   0.000   0.000   0.000   0.000   0.000   0.000   0.000   0.000   0.000   0.000   0.000   0.000   0.000   0.000
  0.000   0.000   0.000   0.000   0.000   0.000   0.000   0.000   0.000   0.000   0.000   0.000   0.000   0.000   0.000   0.000


------------------------ aborting loop because EDIFF is reached ----------------------------------------





 total charge

# of ion       s       p       d       tot
------------------------------------------
    1        0.421   0.200   9.178   9.799
    2        0.415   0.204   9.177   9.796
    3        0.415   0.204   9.177   9.796
    4        0.414   0.203   9.179   9.796
    5        0.420   0.202   9.176   9.797
    6        0.414   0.203   9.179   9.796
    7        0.415   0.204   9.177   9.796
    8        0.415   0.204   9.177   9.796
    9        0.417   0.202   9.178   9.796
   10        0.411   0.269   9.162   9.842
   11        0.408   0.267   9.167   9.842
   12        0.411   0.269   9.162   9.842
   13        0.406   0.266   9.169   9.841
   14        0.406   0.266   9.169   9.841
   15        0.402   0.269   9.164   9.835
   16        0.410   0.269   9.162   9.842
   17        0.402   0.269   9.165   9.836
   18        0.402   0.269   9.165   9.836
   19        0.402   0.266   9.166   9.834
   20        0.438   0.294   9.134   9.867
   21        0.438   0.294   9.134   9.867
   22        0.394   0.272   9.165   9.830
   23        0.438   0.291   9.137   9.867
   24        0.394   0.272   9.165   9.830
   25        0.406   0.264   9.166   9.836
   26        0.406   0.264   9.166   9.836
   27        0.396   0.271   9.164   9.832
   28        0.410   0.208   9.171   9.789
   29        0.455   0.221   9.148   9.823
   30        0.455   0.221   9.148   9.823
   31        0.450   0.216   9.154   9.820
   32        0.450   0.216   9.154   9.820
   33        0.455   0.220   9.149   9.823
   34        0.455   0.220   9.149   9.823
   35        0.407   0.210   9.173   9.790
   36        2.186   5.963   1.541   9.690
   37        1.353   2.452   0.000   3.805
   38        1.353   2.452   0.000   3.805
--------------------------------------------------
tot         19.544  19.329 322.266 361.139
 
    CHARGE:  cpu time    0.6783: real time    0.6784
    FORLOC:  cpu time    0.0103: real time    0.0103
    FORNL :  cpu time    3.0704: real time    3.0707
    STRESS:  cpu time    9.1838: real time    9.1841
    FORCOR:  cpu time    0.0449: real time    0.0449
    FORHAR:  cpu time    0.0168: real time    0.0168
    OFIELD:  cpu time    0.0002: real time    0.0002

  FORCE on cell =-STRESS in cart. coord.  units (eV):
  Direction    XX          YY          ZZ          XY          YZ          ZX
  --------------------------------------------------------------------------------------
  Alpha Z   784.19385   784.19385   784.19385
  Ewald  119820.89675119493.42835************     0.00004     0.88441     0.00006
  Hartree130219.39433130087.86051************     0.00002     0.43546     0.00002
  E(xc)   -2121.38273 -2122.65105 -2128.03498     0.00006     0.00832    -0.00001
  Local  ************************261000.72015     0.00085    -1.55147    -0.00017
  n-local  -349.24824  -339.40923  -338.77288     2.34163    -0.03345    -0.00802
  augment  3223.25806  3222.08206  3236.02151    -0.00020     0.09071    -0.00004
  Kinetic  5171.64341  5180.78197  5213.61969     0.56815    -0.00858     0.10915
  Fock        0.00000     0.00000     0.00000     0.00000     0.00000     0.00000
  -------------------------------------------------------------------------------------
  Total      -6.96051    -6.56161    -0.48117    -0.00000    -0.17460    -0.00000
  in kB      -7.51248    -7.08195    -0.51933    -0.00000    -0.18844    -0.00000
  external pressure =       -5.04 kB  Pullay stress =        0.00 kB


 VOLUME and BASIS-vectors are now :
 -----------------------------------------------------------------------------
  energy-cutoff  :      500.00
  volume of cell :     1484.46
      direct lattice vectors                 reciprocal lattice vectors
     8.791366577  0.000000000  0.000000000     0.113747958 -0.065672414  0.000000000
     4.395683289  7.613546790  0.000000000     0.000000000  0.131344829  0.000000000
     0.000000000  0.000000000 22.178121567     0.000000000  0.000000000  0.045089481

  length of vectors
     8.791366577  8.791366577 22.178121567     0.131344829  0.131344829  0.045089481


 FORCES acting on ions
    electron-ion (+dipol)            ewald-force                    non-local-force                 convergence-correction
 -----------------------------------------------------------------------------------------------
   0.459E-04 0.118E+00 0.253E+04   -.953E-04 -.772E-02 -.253E+04   -.474E-12 -.722E-01 -.184E+01   -.914E-04 -.433E-01 0.198E-01
   -.793E-01 0.571E+00 0.253E+04   0.833E-02 -.610E+00 -.253E+04   0.623E-01 0.122E+00 -.155E+01   0.124E-01 -.840E-01 0.490E-01
   0.794E-01 0.571E+00 0.253E+04   -.821E-02 -.610E+00 -.253E+04   -.623E-01 0.122E+00 -.155E+01   -.130E-01 -.822E-01 0.497E-01
   0.373E+00 -.363E+00 0.253E+04   -.518E+00 0.306E+00 -.253E+04   0.186E+00 -.250E-01 -.168E+01   -.404E-01 0.765E-01 0.924E-01
   -.717E-05 -.914E-02 0.253E+04   0.981E-04 -.220E-02 -.253E+04   -.188E-12 -.287E-01 -.128E+01   0.616E-02 0.407E-01 0.182E+00
   -.373E+00 -.362E+00 0.253E+04   0.517E+00 0.306E+00 -.253E+04   -.186E+00 -.250E-01 -.168E+01   0.391E-01 0.774E-01 0.931E-01
   0.546E+00 -.228E+00 0.253E+04   -.526E+00 0.304E+00 -.253E+04   0.596E-01 -.831E-01 -.160E+01   -.733E-01 0.886E-02 0.386E-01
   -.546E+00 -.228E+00 0.253E+04   0.526E+00 0.304E+00 -.253E+04   -.596E-01 -.831E-01 -.160E+01   0.749E-01 0.793E-02 0.386E-01
   0.364E-04 -.392E-01 0.253E+04   0.792E-04 0.988E-02 -.252E+04   0.300E-12 0.456E-01 -.171E+01   -.660E-02 -.996E-02 0.828E-01
   0.193E+01 0.111E+01 0.899E+03   -.160E+01 -.995E+00 -.899E+03   -.308E+00 -.184E+00 -.729E+00   -.230E-01 0.592E-01 0.146E+00
   -.286E-04 0.553E+01 0.901E+03   0.410E-04 -.570E+01 -.901E+03   0.893E-12 0.136E+00 -.232E+00   0.619E-02 -.158E-01 0.828E-01
   -.193E+01 0.111E+01 0.899E+03   0.160E+01 -.995E+00 -.899E+03   0.308E+00 -.184E+00 -.729E+00   0.218E-01 0.597E-01 0.145E+00
   0.474E+01 -.279E+01 0.901E+03   -.487E+01 0.285E+01 -.901E+03   0.167E+00 -.616E-01 -.209E+00   -.738E-01 0.435E-01 0.966E-01
   -.474E+01 -.279E+01 0.901E+03   0.487E+01 0.285E+01 -.901E+03   -.167E+00 -.616E-01 -.209E+00   0.839E-01 0.424E-01 0.943E-01
   0.158E-04 -.311E+01 0.895E+03   -.109E-03 0.308E+01 -.894E+03   0.468E-13 0.713E-02 -.767E+00   -.122E-02 0.142E-01 0.101E+00
   -.815E-05 -.223E+01 0.899E+03   0.208E-04 0.189E+01 -.899E+03   0.241E-11 0.366E+00 -.597E+00   -.387E-03 -.943E-02 0.157E+00
   -.277E+01 0.160E+01 0.895E+03   0.264E+01 -.149E+01 -.894E+03   0.762E-01 -.154E-01 -.604E+00   0.467E-01 -.974E-01 0.102E+00
   0.277E+01 0.160E+01 0.895E+03   -.264E+01 -.149E+01 -.894E+03   -.762E-01 -.154E-01 -.604E+00   -.465E-01 -.960E-01 0.103E+00
   0.404E-04 -.151E+01 -.756E+03   -.130E-03 0.148E+01 0.755E+03   0.631E-12 0.960E-01 0.955E+00   0.924E-03 -.695E-01 -.360E-01
   0.213E+02 0.128E+02 -.725E+03   -.201E+02 -.120E+02 0.725E+03   -.118E+01 -.679E+00 -.841E+00   -.136E+00 -.115E+00 -.723E-01
   -.213E+02 0.128E+02 -.725E+03   0.201E+02 -.120E+02 0.725E+03   0.118E+01 -.679E+00 -.841E+00   0.125E+00 -.116E+00 -.725E-01
   0.103E+02 -.644E+01 -.759E+03   -.105E+02 0.648E+01 0.758E+03   0.183E+00 -.116E+00 0.479E+00   -.411E-01 0.595E-01 -.120E+00
   -.562E-04 -.252E+02 -.725E+03   0.459E-04 0.237E+02 0.726E+03   0.854E-11 0.130E+01 -.546E+00   -.676E-02 0.203E+00 -.396E-01
   -.103E+02 -.644E+01 -.759E+03   0.105E+02 0.648E+01 0.758E+03   -.183E+00 -.116E+00 0.479E+00   0.532E-01 0.600E-01 -.120E+00
   0.154E+01 0.104E+01 -.757E+03   -.158E+01 -.100E+01 0.756E+03   -.231E-01 -.303E-01 0.854E+00   0.710E-01 0.817E-02 0.540E-01
   -.154E+01 0.104E+01 -.757E+03   0.158E+01 -.100E+01 0.756E+03   0.231E-01 -.303E-01 0.854E+00   -.617E-01 0.984E-02 0.543E-01
   0.209E-04 0.120E+02 -.760E+03   0.109E-03 -.120E+02 0.759E+03   0.107E-11 0.163E+00 0.507E+00   0.449E-02 -.546E-01 -.285E-01
   0.555E-04 0.182E+01 -.241E+04   -.119E-03 -.186E+01 0.241E+04   0.522E-12 0.795E-01 0.153E+01   0.347E-04 -.380E-01 -.123E+00
   0.353E+02 0.590E+02 -.240E+04   -.345E+02 -.579E+02 0.240E+04   -.848E+00 -.120E+01 0.935E+00   -.151E-01 -.729E-01 -.639E-01
   -.353E+02 0.590E+02 -.240E+04   0.345E+02 -.579E+02 0.240E+04   0.848E+00 -.120E+01 0.935E+00   0.142E-01 -.716E-01 -.637E-01
   0.708E+02 0.393E+01 -.239E+04   -.696E+02 -.375E+01 0.239E+04   -.123E+01 -.128E+00 0.129E+01   -.693E-01 -.441E-01 -.624E-01
   -.708E+02 0.393E+01 -.239E+04   0.696E+02 -.376E+01 0.239E+04   0.123E+01 -.128E+00 0.129E+01   0.687E-01 -.433E-01 -.611E-01
   0.297E+02 -.633E+02 -.240E+04   -.292E+02 0.620E+02 0.239E+04   -.608E+00 0.132E+01 0.102E+01   0.284E-01 0.109E+00 -.882E-01
   -.297E+02 -.633E+02 -.240E+04   0.292E+02 0.620E+02 0.239E+04   0.608E+00 0.132E+01 0.102E+01   -.272E-01 0.109E+00 -.868E-01
   0.183E-04 -.227E+01 -.242E+04   0.106E-03 0.232E+01 0.242E+04   -.600E-12 -.914E-01 0.172E+01   -.632E-02 0.567E-01 -.316E-01
   0.214E-03 0.147E+01 -.239E+04   0.112E-03 -.155E+01 0.239E+04   -.316E-13 -.481E-02 0.198E+01   0.507E-02 -.514E-02 -.309E-01
   0.233E+03 -.209E+00 -.125E+04   -.274E+03 0.158E+00 0.126E+04   0.418E+02 0.621E-01 -.623E+01   -.324E-01 -.292E-02 -.304E-01
   -.233E+03 -.209E+00 -.125E+04   0.274E+03 0.158E+00 0.126E+04   -.418E+02 0.621E-01 -.623E+01   0.348E-01 -.289E-02 -.307E-01
 -----------------------------------------------------------------------------------------------
   0.688E-03 0.559E-01 0.174E+02   -.568E-13 0.799E-13 0.523E-11   -.199E-12 -.298E-01 -.180E+02   0.226E-01 -.281E-01 0.620E+00
 
 
 POSITION                                       TOTAL-FORCE (eV/Angst)
 -----------------------------------------------------------------------------------
      0.00000      0.00000      5.28219        -0.000000     -0.005158     -0.025597
      2.93046      0.00000      5.28219         0.003975      0.000098      0.035180
      5.86091      0.00000      5.28219        -0.003975      0.000098      0.035180
      1.46523      2.53785      5.28219         0.001849     -0.004444      0.027951
      4.39568      2.53785      5.28219         0.000000      0.000753      0.007919
      7.32614      2.53785      5.28219        -0.001849     -0.004444      0.027951
      2.93046      5.07570      5.28219         0.005586      0.001181      0.032241
      5.86091      5.07570      5.28219        -0.005586      0.001181      0.032241
      8.79137      5.07570      5.28219         0.000000      0.006462      0.009063
      1.46523      0.84595      7.67490        -0.003871     -0.005997     -0.065640
      4.39568      0.84595      7.67490        -0.000000     -0.049259     -0.040549
      7.32614      0.84595      7.67490         0.003871     -0.005997     -0.065640
      2.93046      3.38380      7.67490        -0.039202      0.034225     -0.062303
      5.86091      3.38380      7.67490         0.039202      0.034225     -0.062303
      8.79137      3.38380      7.67490        -0.000000     -0.000896      0.013154
      4.39568      5.92165      7.67490         0.000000      0.010801     -0.065752
      7.32614      5.92165      7.67490        -0.004807     -0.003493      0.030465
     10.25659      5.92165      7.67490         0.004807     -0.003493      0.030465
      8.79137      1.69022     10.04930        -0.000000     -0.002660      0.046940
      2.93117      1.69231     10.04246        -0.049640      0.002615     -0.039924
      5.86019      1.69231     10.04246         0.049640      0.002615     -0.039924
     10.25641      4.22985     10.06824         0.009543     -0.012192      0.026163
      4.39568      4.22892     10.04246         0.000000      0.049503     -0.060088
      7.32632      4.22985     10.06824        -0.009543     -0.012192      0.026163
     11.72328      6.76844     10.04930         0.005563      0.013699     -0.002696
      5.85946      6.76844     10.04930        -0.005563      0.013699     -0.002696
      8.79137      6.76739     10.06824         0.000000      0.019638      0.008417
      0.00000      0.00000     12.44689        -0.000000     -0.002465      0.018993
      2.93311      0.00118     12.48352        -0.065385     -0.107233     -0.109691
      5.85826      0.00118     12.48352         0.065385     -0.107233     -0.109691
      1.46758      2.53956     12.48352        -0.088874     -0.000780     -0.068836
      7.32379      2.53956     12.48352         0.088874     -0.000780     -0.068836
      2.93015      5.07281     12.48352        -0.071493      0.099258     -0.117454
      5.86121      5.07281     12.48352         0.071493      0.099258     -0.117454
      8.79137      5.07570     12.47551         0.000000      0.009093     -0.008026
      4.39568      2.53785     12.42634        -0.000000     -0.087259      0.750062
      3.81879      2.55268     14.81800        -0.021270      0.008786     -0.012724
      4.97258      2.55268     14.81800         0.021270      0.008786     -0.012724
 -----------------------------------------------------------------------------------
    total drift:                                0.023315     -0.002035      0.052198


--------------------------------------------------------------------------------------------------------



  FREE ENERGIE OF THE ION-ELECTRON SYSTEM (eV)
  ---------------------------------------------------
  free  energy   TOTEN  =      -113.32462377 eV

  energy  without entropy=     -113.32462377  energy(sigma->0) =     -113.32462377
 


--------------------------------------------------------------------------------------------------------


    POTLOK:  cpu time    0.0438: real time    0.0438


--------------------------------------------------------------------------------------------------------


 stress matrix after NEB project (eV)
     -6.96051     -0.00000     -0.00000
     -0.00000     -6.56161     -0.17460
     -0.00000     -0.17460     -0.48117
  FORCES: max atom, RMS     0.026297    0.006033
  FORCE total and by dimension    0.037189    0.021270
  Stress total and by dimension    9.581018    6.960511
     LOOP+:  cpu time  221.9103: real time  221.9246
 -----------------------------------------------------------------------------
|                                                                             |
|           W    W    AA    RRRRR   N    N  II  N    N   GGGG   !!!           |
|           W    W   A  A   R    R  NN   N  II  NN   N  G    G  !!!           |
|           W    W  A    A  R    R  N N  N  II  N N  N  G       !!!           |
|           W WW W  AAAAAA  RRRRR   N  N N  II  N  N N  G  GGG   !            |
|           WW  WW  A    A  R   R   N   NN  II  N   NN  G    G                |
|           W    W  A    A  R    R  N    N  II  N    N   GGGG   !!!           |
|                                                                             |
|     Tetrahedron method does not include variations of the Fermi             |
|     occupations, so forces and stress will be inaccurate. We suggest        |
|     using a different smearing scheme ISMEAR = 1 or 2 for metals in         |
|     relaxations.                                                            |
|                                                                             |
 -----------------------------------------------------------------------------

    4ORBIT:  cpu time    0.0000: real time    0.0000



 total charge

# of ion       s       p       d       tot
------------------------------------------
    1        0.421   0.200   9.178   9.799
    2        0.415   0.204   9.177   9.796
    3        0.415   0.204   9.177   9.796
    4        0.414   0.203   9.179   9.796
    5        0.420   0.202   9.176   9.797
    6        0.414   0.203   9.179   9.796
    7        0.415   0.204   9.177   9.796
    8        0.415   0.204   9.177   9.796
    9        0.417   0.202   9.178   9.796
   10        0.411   0.269   9.162   9.842
   11        0.408   0.267   9.167   9.842
   12        0.411   0.269   9.162   9.842
   13        0.406   0.266   9.169   9.841
   14        0.406   0.266   9.169   9.841
   15        0.402   0.269   9.164   9.835
   16        0.410   0.269   9.162   9.842
   17        0.402   0.269   9.165   9.836
   18        0.402   0.269   9.165   9.836
   19        0.402   0.266   9.166   9.834
   20        0.438   0.294   9.134   9.867
   21        0.438   0.294   9.134   9.867
   22        0.394   0.272   9.165   9.830
   23        0.438   0.291   9.137   9.867
   24        0.394   0.272   9.165   9.830
   25        0.406   0.264   9.166   9.836
   26        0.406   0.264   9.166   9.836
   27        0.396   0.271   9.164   9.832
   28        0.410   0.208   9.171   9.789
   29        0.455   0.221   9.148   9.823
   30        0.455   0.221   9.148   9.823
   31        0.450   0.216   9.154   9.820
   32        0.450   0.216   9.154   9.820
   33        0.455   0.220   9.149   9.823
   34        0.455   0.220   9.149   9.823
   35        0.407   0.210   9.173   9.790
   36        2.186   5.963   1.541   9.690
   37        1.353   2.452   0.000   3.805
   38        1.353   2.452   0.000   3.805
--------------------------------------------------
tot         19.544  19.329 322.266 361.139
 
 BZINTS: Fermi energy:    1.022428;  407.000000 electrons
         Band energy:-0.156239E+04;  BLOECHL correction:   -0.023774

 total amount of memory used by VASP MPI-rank0   184155. kBytes
=======================================================================

   base      :      30000. kBytes
   nonlr-proj:      15187. kBytes
   fftplans  :       4330. kBytes
   grid      :      17879. kBytes
   one-center:        590. kBytes
   wavefun   :     116169. kBytes
 
  
  
 General timing and accounting informations for this job:
 ========================================================
  
                  Total CPU time used (sec):      235.576
                            User time (sec):      228.462
                          System time (sec):        7.114
                         Elapsed time (sec):      236.018
  
                   Maximum memory used (kb):      458432.
                   Average memory used (kb):          N/A
  
                          Minor page faults:       126113
                          Major page faults:            0
                 Voluntary context switches:         8017
