PROCAR new format
# of k-points:   10         # of bands:  252         # of ions:   37

 k-point     1 :    0.00000000 0.00000000 0.00000000     weight = 0.01562500

band     1 # energy  -10.55183973 # occ.  2.00000000
 
ion      s      p      d    tot
    1  0.000  0.000  0.000  0.000
    2  0.000  0.000  0.000  0.000
    3  0.000  0.000  0.000  0.000
    4  0.000  0.000  0.000  0.000
    5  0.000  0.000  0.000  0.000
    6  0.000  0.000  0.000  0.000
    7  0.000  0.000  0.000  0.000
    8  0.000  0.000  0.000  0.000
    9  0.000  0.000  0.000  0.000
   10  0.000  0.000  0.000  0.000
   11  0.000  0.000  0.000  0.000
   12  0.000  0.000  0.000  0.000
   13  0.000  0.000  0.000  0.000
   14  0.000  0.000  0.000  0.000
   15  0.000  0.000  0.000  0.000
   16  0.000  0.000  0.000  0.000
   17  0.000  0.000  0.000  0.000
   18  0.000  0.000  0.000  0.000
   19  0.001  0.000  0.000  0.001
   20  0.002  0.000  0.000  0.003
   21  0.002  0.000  0.000  0.003
   22  0.001  0.000  0.000  0.001
   23  0.002  0.000  0.000  0.003
   24  0.001  0.000  0.000  0.001
   25  0.001  0.000  0.000  0.001
   26  0.001  0.000  0.000  0.001
   27  0.001  0.000  0.000  0.001
   28  0.001  0.000  0.000  0.001
   29  0.003  0.001  0.001  0.004
   30  0.003  0.001  0.001  0.004
   31  0.003  0.001  0.001  0.004
   32  0.003  0.001  0.001  0.004
   33  0.003  0.001  0.001  0.004
   34  0.003  0.001  0.001  0.004
   35  0.001  0.000  0.000  0.001
   36  0.119  0.062  0.111  0.292
   37  0.403  0.026  0.000  0.428
tot    0.554  0.093  0.115  0.762
 
band     2 # energy   -9.23210879 # occ.  2.00000000
 
ion      s      p      d    tot
    1  0.007  0.001  0.000  0.008
    2  0.007  0.001  0.000  0.008
    3  0.007  0.001  0.000  0.008
    4  0.007  0.001  0.000  0.008
    5  0.007  0.001  0.000  0.008
    6  0.007  0.001  0.000  0.008
    7  0.007  0.001  0.000  0.008
    8  0.007  0.001  0.000  0.008
    9  0.007  0.001  0.000  0.008
   10  0.025  0.000  0.000  0.026
   11  0.025  0.000  0.000  0.026
   12  0.025  0.000  0.000  0.026
   13  0.025  0.000  0.000  0.026
   14  0.025  0.000  0.000  0.026
   15  0.026  0.000  0.000  0.026
   16  0.025  0.000  0.000  0.026
   17  0.026  0.000  0.000  0.026
   18  0.026  0.000  0.000  0.026
   19  0.024  0.000  0.000  0.024
   20  0.023  0.000  0.000  0.023
   21  0.023  0.000  0.000  0.023
   22  0.024  0.000  0.000  0.024
   23  0.023  0.000  0.000  0.023
   24  0.024  0.000  0.000  0.024
   25  0.024  0.000  0.000  0.024
   26  0.024  0.000  0.000  0.024
   27  0.024  0.000  0.000  0.024
   28  0.006  0.001  0.000  0.006
   29  0.005  0.001  0.000  0.006
   30  0.005  0.001  0.000  0.006
   31  0.005  0.001  0.000  0.006
   32  0.005  0.001  0.000  0.006
   33  0.005  0.001  0.000  0.006
   34  0.005  0.001  0.000  0.006
   35  0.006  0.001  0.000  0.007
   36  0.000  0.007  0.005  0.012
   37  0.016  0.001  0.000  0.016
tot    0.558  0.025  0.007  0.589
 
band     3 # energy   -7.90026985 # occ.  2.00000000
 
ion      s      p      d    tot
    1  0.018  0.001  0.001  0.020
    2  0.018  0.001  0.001  0.020
    3  0.018  0.001  0.001  0.020
    4  0.018  0.001  0.001  0.020
    5  0.019  0.001  0.001  0.020
    6  0.018  0.001  0.001  0.020
    7  0.018  0.001  0.001  0.020
    8  0.018  0.001  0.001  0.020
    9  0.018  0.001  0.001  0.020
   10  0.009  0.002  0.001  0.012
   11  0.009  0.002  0.001  0.012
   12  0.009  0.002  0.001  0.012
   13  0.009  0.002  0.001  0.012
   14  0.009  0.002  0.001  0.012
   15  0.009  0.003  0.001  0.012
   16  0.009  0.002  0.001  0.012
   17  0.009  0.003  0.001  0.012
   18  0.009  0.003  0.001  0.012
   19  0.013  0.002  0.001  0.015
   20  0.010  0.002  0.001  0.013
   21  0.010  0.002  0.001  0.013
   22  0.013  0.002  0.001  0.015
   23  0.010  0.002  0.001  0.013
   24  0.013  0.002  0.001  0.015
   25  0.013  0.002  0.001  0.015
   26  0.013  0.002  0.001  0.015
   27  0.013  0.002  0.001  0.015
   28  0.018  0.001  0.000  0.019
   29  0.015  0.001  0.000  0.017
   30  0.015  0.001  0.000  0.017
   31  0.015  0.001  0.000  0.017
   32  0.015  0.001  0.000  0.017
   33  0.015  0.001  0.000  0.017
   34  0.015  0.001  0.000  0.017
   35  0.018  0.001  0.000  0.020
   36  0.005  0.006  0.010  0.021
   37  0.012  0.000  0.000  0.012
tot    0.498  0.062  0.030  0.590
 
band     4 # energy   -6.32016097 # occ.  2.00000000
 
ion      s      p      d    tot
    1  0.012  0.000  0.004  0.016
    2  0.009  0.001  0.005  0.014
    3  0.009  0.001  0.005  0.014
    4  0.009  0.001  0.005  0.014
    5  0.000  0.001  0.006  0.007
    6  0.009  0.001  0.005  0.014
    7  0.009  0.001  0.005  0.014
    8  0.009  0.001  0.005  0.014
    9  0.025  0.001  0.002  0.028
   10  0.001  0.003  0.005  0.009
   11  0.022  0.007  0.001  0.030
   12  0.001  0.003  0.005  0.009
   13  0.022  0.007  0.001  0.030
   14  0.022  0.007  0.001  0.030
   15  0.002  0.002  0.007  0.011
   16  0.001  0.003  0.005  0.009
   17  0.002  0.002  0.007  0.011
   18  0.002  0.002  0.007  0.011
   19  0.000  0.002  0.008  0.010
   20  0.030  0.006  0.002  0.039
   21  0.030  0.006  0.002  0.039
   22  0.001  0.005  0.004  0.010
   23  0.030  0.006  0.002  0.039
   24  0.001  0.005  0.004  0.010
   25  0.000  0.002  0.008  0.010
   26  0.000  0.002  0.008  0.010
   27  0.001  0.005  0.004  0.010
   28  0.019  0.000  0.002  0.021
   29  0.010  0.001  0.006  0.016
   30  0.010  0.001  0.006  0.016
   31  0.010  0.001  0.006  0.016
   32  0.010  0.001  0.006  0.016
   33  0.010  0.001  0.006  0.016
   34  0.010  0.001  0.006  0.016
   35  0.027  0.000  0.003  0.030
   36  0.001  0.003  0.022  0.025
   37  0.000  0.001  0.000  0.001
tot    0.364  0.088  0.183  0.636
 
band     5 # energy   -6.29335828 # occ.  2.00000000
 
ion      s      p      d    tot
    1  0.000  0.001  0.004  0.005
    2  0.007  0.002  0.002  0.011
    3  0.000  0.001  0.002  0.003
    4  0.006  0.002  0.002  0.010
    5  0.000  0.003  0.004  0.007
    6  0.006  0.002  0.002  0.010
    7  0.000  0.001  0.002  0.003
    8  0.007  0.002  0.002  0.011
    9  0.000  0.000  0.002  0.002
   10  0.039  0.005  0.002  0.046
   11  0.015  0.007  0.007  0.029
   12  0.008  0.001  0.013  0.021
   13  0.009  0.008  0.007  0.024
   14  0.049  0.002  0.006  0.056
   15  0.000  0.007  0.004  0.011
   16  0.012  0.002  0.011  0.025
   17  0.000  0.008  0.004  0.012
   18  0.001  0.001  0.005  0.006
   19  0.002  0.009  0.003  0.014
   20  0.064  0.003  0.006  0.073
   21  0.013  0.006  0.010  0.029
   22  0.006  0.002  0.013  0.021
   23  0.020  0.006  0.010  0.036
   24  0.030  0.005  0.002  0.037
   25  0.006  0.000  0.006  0.012
   26  0.001  0.011  0.003  0.014
   27  0.010  0.002  0.012  0.023
   28  0.000  0.001  0.003  0.004
   29  0.011  0.003  0.003  0.017
   30  0.000  0.001  0.002  0.004
   31  0.010  0.003  0.003  0.016
   32  0.006  0.002  0.002  0.011
   33  0.001  0.001  0.002  0.004
   34  0.008  0.002  0.003  0.013
   35  0.000  0.001  0.004  0.005
   36  0.000  0.006  0.009  0.014
   37  0.000  0.000  0.000  0.000
tot    0.347  0.117  0.178  0.643
 
band     6 # energy   -6.29333438 # occ.  2.00000000
 
ion      s      p      d    tot
    1  0.000  0.001  0.004  0.005
    2  0.002  0.001  0.002  0.005
    3  0.009  0.002  0.002  0.013
    4  0.003  0.001  0.002  0.006
    5  0.000  0.003  0.005  0.008
    6  0.003  0.001  0.002  0.006
    7  0.009  0.002  0.002  0.013
    8  0.002  0.001  0.002  0.005
    9  0.000  0.000  0.002  0.002
   10  0.000  0.000  0.015  0.015
   11  0.034  0.004  0.006  0.044
   12  0.031  0.004  0.005  0.040
   13  0.040  0.003  0.006  0.049
   14  0.000  0.009  0.008  0.017
   15  0.000  0.004  0.004  0.009
   16  0.027  0.003  0.006  0.036
   17  0.000  0.003  0.004  0.008
   18  0.000  0.010  0.003  0.014
   19  0.004  0.004  0.005  0.013
   20  0.000  0.007  0.011  0.019
   21  0.052  0.003  0.007  0.063
   22  0.025  0.004  0.005  0.034
   23  0.044  0.004  0.008  0.056
   24  0.000  0.001  0.016  0.017
   25  0.000  0.013  0.002  0.015
   26  0.004  0.003  0.005  0.012
   27  0.021  0.004  0.006  0.031
   28  0.000  0.001  0.003  0.004
   29  0.001  0.001  0.002  0.004
   30  0.012  0.003  0.003  0.018
   31  0.002  0.001  0.002  0.006
   32  0.006  0.002  0.003  0.011
   33  0.011  0.003  0.003  0.017
   34  0.004  0.002  0.003  0.009
   35  0.000  0.001  0.004  0.005
   36  0.000  0.006  0.009  0.014
   37  0.000  0.000  0.000  0.000
tot    0.347  0.117  0.178  0.643
 
band     7 # energy   -6.26674753 # occ.  2.00000000
 
ion      s      p      d    tot
    1  0.000  0.002  0.003  0.005
    2  0.008  0.002  0.002  0.013
    3  0.000  0.001  0.002  0.003
    4  0.006  0.002  0.002  0.010
    5  0.000  0.000  0.003  0.003
    6  0.006  0.002  0.002  0.011
    7  0.000  0.001  0.002  0.003
    8  0.008  0.002  0.002  0.013
    9  0.000  0.003  0.006  0.008
   10  0.000  0.013  0.002  0.016
   11  0.007  0.004  0.006  0.016
   12  0.018  0.002  0.006  0.026
   13  0.009  0.003  0.004  0.016
   14  0.000  0.004  0.010  0.015
   15  0.040  0.004  0.008  0.051
   16  0.014  0.005  0.005  0.024
   17  0.051  0.004  0.006  0.061
   18  0.001  0.003  0.015  0.018
   19  0.038  0.003  0.008  0.049
   20  0.000  0.007  0.008  0.015
   21  0.003  0.003  0.005  0.011
   22  0.030  0.003  0.006  0.039
   23  0.002  0.004  0.006  0.012
   24  0.000  0.013  0.003  0.017
   25  0.001  0.001  0.017  0.019
   26  0.050  0.004  0.005  0.059
   27  0.022  0.005  0.006  0.033
   28  0.000  0.003  0.006  0.008
   29  0.010  0.003  0.003  0.015
   30  0.000  0.001  0.002  0.003
   31  0.009  0.002  0.003  0.014
   32  0.005  0.002  0.002  0.009
   33  0.001  0.001  0.002  0.005
   34  0.007  0.002  0.002  0.012
   35  0.000  0.003  0.004  0.007
   36  0.000  0.000  0.003  0.003
   37  0.000  0.000  0.000  0.000
tot    0.346  0.116  0.177  0.640
 
band     8 # energy   -6.26673770 # occ.  2.00000000
 
ion      s      p      d    tot
    1  0.000  0.002  0.003  0.005
    2  0.001  0.001  0.002  0.005
    3  0.010  0.002  0.002  0.015
    4  0.003  0.002  0.002  0.007
    5  0.000  0.000  0.003  0.003
    6  0.004  0.001  0.002  0.007
    7  0.010  0.002  0.003  0.015
    8  0.002  0.001  0.002  0.005
    9  0.000  0.003  0.006  0.008
   10  0.023  0.000  0.006  0.030
   11  0.004  0.004  0.008  0.016
   12  0.002  0.011  0.003  0.017
   13  0.002  0.004  0.010  0.016
   14  0.010  0.003  0.002  0.015
   15  0.020  0.004  0.011  0.034
   16  0.006  0.009  0.004  0.019
   17  0.009  0.003  0.013  0.025
   18  0.063  0.004  0.004  0.071
   19  0.023  0.002  0.012  0.037
   20  0.003  0.003  0.005  0.011
   21  0.001  0.006  0.007  0.014
   22  0.007  0.011  0.004  0.022
   23  0.001  0.005  0.006  0.013
   24  0.031  0.001  0.008  0.040
   25  0.054  0.005  0.003  0.063
   26  0.011  0.001  0.015  0.027
   27  0.014  0.009  0.004  0.027
   28  0.000  0.003  0.006  0.008
   29  0.001  0.001  0.002  0.004
   30  0.010  0.003  0.002  0.016
   31  0.002  0.001  0.002  0.006
   32  0.006  0.002  0.003  0.010
   33  0.010  0.002  0.002  0.014
   34  0.004  0.001  0.003  0.007
   35  0.000  0.003  0.004  0.007
   36  0.000  0.000  0.003  0.003
   37  0.000  0.000  0.000  0.000
tot    0.346  0.116  0.177  0.640
 
band     9 # energy   -6.26568426 # occ.  2.00000000
 
ion      s      p      d    tot
    1  0.021  0.003  0.001  0.024
    2  0.000  0.002  0.004  0.005
    3  0.000  0.002  0.004  0.006
    4  0.000  0.002  0.004  0.005
    5  0.001  0.000  0.001  0.001
    6  0.000  0.002  0.004  0.006
    7  0.000  0.002  0.004  0.006
    8  0.000  0.002  0.004  0.006
    9  0.008  0.002  0.000  0.010
   10  0.026  0.005  0.006  0.037
   11  0.004  0.000  0.011  0.015
   12  0.029  0.005  0.006  0.040
   13  0.004  0.000  0.011  0.015
   14  0.005  0.001  0.012  0.017
   15  0.015  0.008  0.003  0.026
   16  0.029  0.005  0.006  0.040
   17  0.015  0.008  0.003  0.026
   18  0.011  0.009  0.003  0.022
   19  0.020  0.010  0.002  0.032
   20  0.000  0.002  0.010  0.012
   21  0.000  0.002  0.011  0.013
   22  0.025  0.003  0.010  0.037
   23  0.000  0.002  0.011  0.013
   24  0.030  0.003  0.009  0.041
   25  0.026  0.009  0.002  0.036
   26  0.020  0.010  0.002  0.032
   27  0.025  0.003  0.010  0.037
   28  0.021  0.003  0.000  0.024
   29  0.000  0.002  0.004  0.006
   30  0.000  0.002  0.004  0.006
   31  0.000  0.002  0.004  0.006
   32  0.000  0.002  0.004  0.006
   33  0.000  0.002  0.004  0.006
   34  0.000  0.002  0.004  0.006
   35  0.012  0.003  0.002  0.016
   36  0.000  0.000  0.000  0.000
   37  0.000  0.000  0.000  0.000
tot    0.346  0.115  0.178  0.640
 
band    10 # energy   -6.20896788 # occ.  2.00000000
 
ion      s      p      d    tot
    1  0.002  0.000  0.004  0.006
    2  0.008  0.001  0.006  0.015
    3  0.008  0.001  0.006  0.015
    4  0.008  0.001  0.006  0.015
    5  0.041  0.002  0.001  0.043
    6  0.008  0.001  0.006  0.015
    7  0.008  0.001  0.006  0.015
    8  0.008  0.001  0.006  0.015
    9  0.000  0.001  0.007  0.008
   10  0.007  0.004  0.006  0.017
   11  0.007  0.006  0.006  0.018
   12  0.007  0.004  0.006  0.017
   13  0.007  0.006  0.006  0.018
   14  0.007  0.006  0.006  0.018
   15  0.023  0.002  0.007  0.032
   16  0.007  0.004  0.006  0.017
   17  0.023  0.002  0.007  0.032
   18  0.023  0.002  0.007  0.032
   19  0.011  0.003  0.006  0.020
   20  0.009  0.004  0.005  0.017
   21  0.009  0.004  0.005  0.017
   22  0.007  0.006  0.004  0.016
   23  0.009  0.004  0.005  0.017
   24  0.007  0.006  0.004  0.016
   25  0.011  0.003  0.006  0.020
   26  0.011  0.003  0.006  0.020
   27  0.007  0.006  0.004  0.016
   28  0.003  0.000  0.005  0.008
   29  0.008  0.001  0.005  0.013
   30  0.008  0.001  0.005  0.013
   31  0.008  0.001  0.005  0.013
   32  0.008  0.001  0.005  0.013
   33  0.008  0.001  0.005  0.013
   34  0.008  0.001  0.005  0.013
   35  0.002  0.000  0.004  0.006
   36  0.018  0.006  0.015  0.040
   37  0.007  0.000  0.000  0.007
tot    0.353  0.096  0.202  0.650
 
band    11 # energy   -5.53133554 # occ.  2.00000000
 
ion      s      p      d    tot
    1  0.010  0.000  0.007  0.017
    2  0.004  0.001  0.009  0.015
    3  0.004  0.001  0.009  0.015
    4  0.004  0.001  0.009  0.015
    5  0.002  0.003  0.009  0.013
    6  0.004  0.001  0.009  0.015
    7  0.004  0.001  0.009  0.015
    8  0.004  0.001  0.009  0.015
    9  0.017  0.000  0.005  0.022
   10  0.004  0.000  0.024  0.028
   11  0.016  0.001  0.019  0.036
   12  0.004  0.000  0.024  0.028
   13  0.016  0.001  0.019  0.036
   14  0.016  0.001  0.019  0.036
   15  0.001  0.000  0.019  0.020
   16  0.004  0.000  0.024  0.028
   17  0.001  0.000  0.019  0.020
   18  0.001  0.000  0.019  0.020
   19  0.001  0.000  0.017  0.018
   20  0.013  0.002  0.024  0.039
   21  0.013  0.002  0.024  0.039
   22  0.002  0.000  0.022  0.024
   23  0.013  0.002  0.024  0.039
   24  0.002  0.000  0.022  0.024
   25  0.001  0.000  0.017  0.018
   26  0.001  0.000  0.017  0.018
   27  0.002  0.000  0.022  0.024
   28  0.007  0.000  0.004  0.011
   29  0.003  0.001  0.008  0.011
   30  0.003  0.001  0.007  0.011
   31  0.003  0.001  0.008  0.011
   32  0.003  0.001  0.007  0.011
   33  0.003  0.001  0.007  0.011
   34  0.003  0.001  0.007  0.011
   35  0.012  0.000  0.005  0.016
   36  0.002  0.004  0.025  0.032
   37  0.001  0.002  0.000  0.003
tot    0.203  0.032  0.528  0.764
 
band    12 # energy   -5.51736204 # occ.  2.00000000
 
ion      s      p      d    tot
    1  0.000  0.002  0.010  0.012
    2  0.006  0.002  0.005  0.014
    3  0.022  0.004  0.005  0.031
    4  0.005  0.002  0.005  0.012
    5  0.000  0.006  0.009  0.015
    6  0.005  0.002  0.005  0.012
    7  0.022  0.004  0.005  0.031
    8  0.006  0.002  0.005  0.014
    9  0.000  0.002  0.012  0.014
   10  0.000  0.001  0.017  0.018
   11  0.019  0.004  0.010  0.032
   12  0.010  0.003  0.011  0.023
   13  0.017  0.004  0.011  0.032
   14  0.000  0.002  0.026  0.027
   15  0.001  0.001  0.010  0.012
   16  0.010  0.003  0.010  0.024
   17  0.001  0.001  0.011  0.013
   18  0.000  0.004  0.018  0.022
   19  0.001  0.001  0.010  0.012
   20  0.000  0.001  0.032  0.033
   21  0.012  0.004  0.012  0.028
   22  0.007  0.003  0.011  0.022
   23  0.013  0.004  0.011  0.028
   24  0.000  0.001  0.013  0.013
   25  0.000  0.003  0.021  0.024
   26  0.001  0.001  0.011  0.012
   27  0.008  0.004  0.011  0.022
   28  0.000  0.001  0.011  0.013
   29  0.007  0.002  0.005  0.015
   30  0.022  0.004  0.005  0.031
   31  0.006  0.002  0.005  0.013
   32  0.004  0.002  0.005  0.011
   33  0.022  0.004  0.005  0.030
   34  0.005  0.002  0.005  0.012
   35  0.000  0.002  0.008  0.010
   36  0.000  0.009  0.008  0.017
   37  0.000  0.000  0.000  0.000
tot    0.230  0.098  0.376  0.704
 
band    13 # energy   -5.51733216 # occ.  2.00000000
 
ion      s      p      d    tot
    1  0.000  0.002  0.010  0.012
    2  0.016  0.003  0.005  0.025
    3  0.000  0.002  0.005  0.007
    4  0.017  0.003  0.005  0.026
    5  0.000  0.006  0.009  0.015
    6  0.017  0.003  0.006  0.026
    7  0.000  0.002  0.005  0.007
    8  0.015  0.003  0.006  0.024
    9  0.000  0.002  0.012  0.014
   10  0.013  0.004  0.008  0.025
   11  0.005  0.002  0.021  0.029
   12  0.004  0.002  0.015  0.020
   13  0.007  0.002  0.020  0.029
   14  0.024  0.004  0.005  0.033
   15  0.000  0.003  0.016  0.019
   16  0.003  0.001  0.015  0.020
   17  0.000  0.003  0.015  0.019
   18  0.001  0.000  0.008  0.009
   19  0.000  0.002  0.018  0.021
   20  0.017  0.005  0.004  0.026
   21  0.005  0.002  0.024  0.031
   22  0.003  0.002  0.012  0.016
   23  0.004  0.002  0.026  0.031
   24  0.010  0.004  0.011  0.025
   25  0.001  0.000  0.007  0.008
   26  0.000  0.002  0.017  0.020
   27  0.002  0.001  0.012  0.016
   28  0.000  0.001  0.011  0.013
   29  0.014  0.003  0.005  0.022
   30  0.000  0.002  0.005  0.007
   31  0.016  0.003  0.005  0.024
   32  0.018  0.003  0.005  0.026
   33  0.000  0.002  0.005  0.007
   34  0.017  0.003  0.005  0.025
   35  0.000  0.002  0.008  0.010
   36  0.000  0.009  0.008  0.017
   37  0.000  0.000  0.000  0.000
tot    0.230  0.098  0.376  0.704
 
band    14 # energy   -5.48958300 # occ.  2.00000000
 
ion      s      p      d    tot
    1  0.034  0.004  0.000  0.038
    2  0.000  0.003  0.010  0.014
    3  0.000  0.003  0.010  0.013
    4  0.000  0.003  0.010  0.014
    5  0.000  0.000  0.000  0.000
    6  0.000  0.003  0.011  0.014
    7  0.000  0.003  0.010  0.013
    8  0.000  0.003  0.011  0.014
    9  0.030  0.003  0.000  0.034
   10  0.011  0.004  0.010  0.024
   11  0.001  0.000  0.016  0.017
   12  0.009  0.004  0.011  0.023
   13  0.001  0.000  0.016  0.017
   14  0.001  0.000  0.014  0.015
   15  0.006  0.003  0.018  0.027
   16  0.009  0.004  0.011  0.023
   17  0.006  0.003  0.018  0.027
   18  0.008  0.004  0.016  0.028
   19  0.006  0.004  0.018  0.027
   20  0.000  0.000  0.017  0.017
   21  0.000  0.000  0.015  0.015
   22  0.011  0.003  0.010  0.024
   23  0.000  0.000  0.015  0.015
   24  0.009  0.003  0.010  0.023
   25  0.004  0.004  0.019  0.027
   26  0.006  0.004  0.018  0.027
   27  0.011  0.003  0.010  0.024
   28  0.036  0.003  0.000  0.039
   29  0.000  0.003  0.010  0.013
   30  0.000  0.003  0.010  0.013
   31  0.000  0.003  0.010  0.013
   32  0.000  0.003  0.010  0.013
   33  0.000  0.003  0.010  0.013
   34  0.000  0.003  0.010  0.013
   35  0.026  0.003  0.001  0.031
   36  0.000  0.000  0.000  0.000
   37  0.000  0.000  0.000  0.000
tot    0.227  0.093  0.386  0.705
 
band    15 # energy   -5.48862958 # occ.  2.00000000
 
ion      s      p      d    tot
    1  0.000  0.005  0.011  0.015
    2  0.005  0.002  0.005  0.013
    3  0.022  0.004  0.006  0.031
    4  0.005  0.002  0.005  0.012
    5  0.000  0.000  0.012  0.012
    6  0.005  0.002  0.005  0.013
    7  0.022  0.004  0.006  0.031
    8  0.006  0.002  0.005  0.013
    9  0.000  0.005  0.008  0.013
   10  0.010  0.002  0.006  0.018
   11  0.000  0.002  0.013  0.016
   12  0.003  0.003  0.020  0.027
   13  0.000  0.002  0.013  0.016
   14  0.002  0.001  0.011  0.013
   15  0.006  0.001  0.018  0.025
   16  0.003  0.003  0.021  0.027
   17  0.006  0.001  0.017  0.025
   18  0.020  0.006  0.008  0.033
   19  0.004  0.001  0.019  0.025
   20  0.002  0.001  0.010  0.013
   21  0.001  0.002  0.015  0.017
   22  0.002  0.003  0.022  0.027
   23  0.001  0.002  0.015  0.017
   24  0.011  0.002  0.005  0.017
   25  0.021  0.006  0.006  0.033
   26  0.005  0.001  0.019  0.025
   27  0.002  0.003  0.022  0.027
   28  0.000  0.005  0.007  0.012
   29  0.007  0.002  0.006  0.014
   30  0.021  0.004  0.005  0.029
   31  0.006  0.002  0.006  0.014
   32  0.004  0.002  0.005  0.012
   33  0.021  0.004  0.005  0.029
   34  0.004  0.002  0.005  0.012
   35  0.000  0.004  0.010  0.015
   36  0.000  0.000  0.012  0.012
   37  0.000  0.000  0.000  0.000
tot    0.227  0.094  0.384  0.704
 
band    16 # energy   -5.48859777 # occ.  2.00000000
 
ion      s      p      d    tot
    1  0.000  0.005  0.011  0.015
    2  0.016  0.003  0.005  0.025
    3  0.000  0.002  0.005  0.007
    4  0.016  0.003  0.005  0.025
    5  0.000  0.000  0.012  0.012
    6  0.016  0.003  0.006  0.025
    7  0.000  0.002  0.005  0.007
    8  0.016  0.003  0.006  0.025
    9  0.000  0.005  0.008  0.013
   10  0.000  0.003  0.026  0.029
   11  0.001  0.001  0.011  0.014
   12  0.008  0.002  0.011  0.021
   13  0.001  0.001  0.011  0.014
   14  0.000  0.003  0.015  0.018
   15  0.016  0.004  0.010  0.031
   16  0.008  0.002  0.010  0.021
   17  0.016  0.004  0.011  0.031
   18  0.000  0.000  0.022  0.022
   19  0.015  0.004  0.011  0.030
   20  0.000  0.002  0.015  0.018
   21  0.002  0.002  0.012  0.015
   22  0.007  0.002  0.011  0.020
   23  0.002  0.002  0.012  0.015
   24  0.000  0.003  0.028  0.031
   25  0.000  0.000  0.022  0.023
   26  0.015  0.004  0.011  0.030
   27  0.007  0.002  0.011  0.020
   28  0.000  0.005  0.007  0.012
   29  0.014  0.003  0.005  0.023
   30  0.000  0.002  0.006  0.007
   31  0.015  0.003  0.005  0.023
   32  0.017  0.003  0.005  0.025
   33  0.000  0.002  0.006  0.007
   34  0.017  0.003  0.005  0.025
   35  0.000  0.004  0.010  0.015
   36  0.000  0.000  0.012  0.012
   37  0.000  0.000  0.000  0.000
tot    0.227  0.094  0.384  0.704
 
band    17 # energy   -5.42838066 # occ.  2.00000000
 
ion      s      p      d    tot
    1  0.005  0.001  0.002  0.009
    2  0.001  0.002  0.010  0.013
    3  0.001  0.002  0.010  0.013
    4  0.001  0.002  0.010  0.013
    5  0.043  0.002  0.000  0.046
    6  0.001  0.002  0.010  0.013
    7  0.001  0.002  0.010  0.013
    8  0.001  0.002  0.010  0.013
    9  0.003  0.001  0.003  0.007
   10  0.003  0.001  0.019  0.023
   11  0.002  0.003  0.018  0.023
   12  0.003  0.001  0.019  0.023
   13  0.002  0.003  0.018  0.023
   14  0.002  0.003  0.018  0.023
   15  0.008  0.001  0.013  0.022
   16  0.003  0.001  0.019  0.023
   17  0.008  0.001  0.013  0.022
   18  0.008  0.001  0.013  0.022
   19  0.011  0.001  0.018  0.029
   20  0.004  0.003  0.016  0.023
   21  0.004  0.003  0.016  0.023
   22  0.004  0.001  0.020  0.025
   23  0.004  0.003  0.016  0.023
   24  0.004  0.001  0.020  0.025
   25  0.011  0.001  0.018  0.029
   26  0.011  0.001  0.018  0.029
   27  0.004  0.001  0.020  0.025
   28  0.001  0.001  0.006  0.008
   29  0.002  0.002  0.012  0.016
   30  0.002  0.002  0.012  0.016
   31  0.002  0.002  0.012  0.016
   32  0.002  0.002  0.012  0.016
   33  0.002  0.002  0.012  0.016
   34  0.002  0.002  0.012  0.016
   35  0.002  0.002  0.004  0.008
   36  0.033  0.008  0.016  0.058
   37  0.006  0.000  0.000  0.006
tot    0.206  0.074  0.467  0.747
 
band    18 # energy   -4.84007193 # occ.  2.00000000
 
ion      s      p      d    tot
    1  0.000  0.002  0.001  0.004
    2  0.009  0.001  0.008  0.017
    3  0.010  0.001  0.007  0.019
    4  0.009  0.001  0.008  0.017
    5  0.000  0.001  0.024  0.025
    6  0.000  0.001  0.007  0.008
    7  0.010  0.001  0.007  0.019
    8  0.000  0.001  0.007  0.008
    9  0.000  0.000  0.016  0.017
   10  0.001  0.006  0.013  0.020
   11  0.000  0.000  0.038  0.039
   12  0.000  0.002  0.014  0.016
   13  0.000  0.000  0.038  0.038
   14  0.000  0.000  0.002  0.003
   15  0.000  0.001  0.013  0.014
   16  0.000  0.002  0.014  0.016
   17  0.000  0.001  0.013  0.014
   18  0.000  0.003  0.014  0.017
   19  0.000  0.001  0.036  0.037
   20  0.002  0.005  0.028  0.034
   21  0.000  0.001  0.015  0.017
   22  0.000  0.000  0.031  0.031
   23  0.000  0.001  0.015  0.017
   24  0.000  0.001  0.008  0.009
   25  0.001  0.003  0.006  0.009
   26  0.000  0.001  0.036  0.037
   27  0.000  0.000  0.031  0.032
   28  0.000  0.002  0.018  0.021
   29  0.019  0.001  0.013  0.033
   30  0.002  0.001  0.011  0.014
   31  0.019  0.001  0.013  0.033
   32  0.009  0.001  0.009  0.019
   33  0.002  0.001  0.011  0.014
   34  0.009  0.001  0.009  0.019
   35  0.000  0.000  0.033  0.033
   36  0.000  0.006  0.048  0.054
   37  0.000  0.013  0.000  0.013
tot    0.103  0.063  0.618  0.785
 
band    19 # energy   -4.83999628 # occ.  2.00000000
 
ion      s      p      d    tot
    1  0.000  0.002  0.001  0.004
    2  0.004  0.001  0.007  0.012
    3  0.002  0.001  0.007  0.010
    4  0.004  0.001  0.007  0.012
    5  0.000  0.001  0.024  0.025
    6  0.013  0.001  0.008  0.021
    7  0.002  0.001  0.007  0.010
    8  0.013  0.001  0.008  0.021
    9  0.000  0.000  0.016  0.017
   10  0.000  0.000  0.015  0.015
   11  0.000  0.000  0.014  0.015
   12  0.000  0.005  0.013  0.018
   13  0.000  0.000  0.014  0.015
   14  0.000  0.000  0.050  0.050
   15  0.000  0.002  0.014  0.016
   16  0.000  0.005  0.013  0.018
   17  0.000  0.002  0.014  0.016
   18  0.000  0.000  0.013  0.013
   19  0.001  0.002  0.016  0.018
   20  0.000  0.000  0.011  0.011
   21  0.001  0.004  0.024  0.029
   22  0.000  0.000  0.016  0.016
   23  0.001  0.004  0.024  0.029
   24  0.000  0.000  0.039  0.039
   25  0.000  0.000  0.046  0.046
   26  0.001  0.002  0.016  0.018
   27  0.000  0.000  0.016  0.016
   28  0.000  0.002  0.018  0.021
   29  0.001  0.001  0.009  0.011
   30  0.018  0.001  0.011  0.030
   31  0.001  0.001  0.009  0.011
   32  0.011  0.001  0.013  0.025
   33  0.018  0.001  0.011  0.030
   34  0.011  0.001  0.013  0.025
   35  0.000  0.000  0.033  0.033
   36  0.000  0.006  0.048  0.054
   37  0.000  0.013  0.000  0.013
tot    0.103  0.063  0.618  0.785
 
band    20 # energy   -4.80391925 # occ.  2.00000000
 
ion      s      p      d    tot
    1  0.000  0.000  0.034  0.034
    2  0.010  0.001  0.010  0.021
    3  0.014  0.001  0.010  0.025
    4  0.010  0.001  0.010  0.021
    5  0.000  0.002  0.004  0.006
    6  0.000  0.001  0.009  0.010
    7  0.014  0.001  0.010  0.024
    8  0.000  0.001  0.009  0.010
    9  0.000  0.002  0.017  0.020
   10  0.000  0.000  0.045  0.045
   11  0.001  0.005  0.018  0.024
   12  0.000  0.001  0.019  0.020
   13  0.001  0.005  0.018  0.023
   14  0.000  0.000  0.006  0.006
   15  0.001  0.003  0.016  0.020
   16  0.000  0.001  0.019  0.019
   17  0.001  0.003  0.017  0.020
   18  0.000  0.000  0.049  0.049
   19  0.000  0.003  0.017  0.020
   20  0.000  0.000  0.070  0.070
   21  0.001  0.000  0.021  0.022
   22  0.001  0.005  0.019  0.025
   23  0.001  0.000  0.020  0.021
   24  0.000  0.000  0.020  0.021
   25  0.000  0.000  0.019  0.020
   26  0.000  0.003  0.017  0.020
   27  0.001  0.005  0.019  0.025
   28  0.000  0.000  0.016  0.016
   29  0.014  0.001  0.010  0.025
   30  0.002  0.001  0.010  0.013
   31  0.014  0.001  0.009  0.025
   32  0.006  0.001  0.008  0.014
   33  0.002  0.001  0.010  0.013
   34  0.005  0.001  0.008  0.014
   35  0.000  0.002  0.001  0.004
   36  0.000  0.001  0.033  0.034
   37  0.000  0.000  0.000  0.000
tot    0.097  0.053  0.650  0.800
 
band    21 # energy   -4.80383547 # occ.  2.00000000
 
ion      s      p      d    tot
    1  0.000  0.000  0.034  0.034
    2  0.006  0.001  0.009  0.016
    3  0.002  0.001  0.010  0.013
    4  0.006  0.001  0.009  0.016
    5  0.000  0.002  0.004  0.006
    6  0.016  0.001  0.010  0.027
    7  0.002  0.001  0.010  0.013
    8  0.016  0.001  0.010  0.027
    9  0.000  0.002  0.017  0.020
   10  0.000  0.001  0.010  0.011
   11  0.000  0.002  0.010  0.012
   12  0.000  0.000  0.036  0.036
   13  0.000  0.002  0.010  0.012
   14  0.001  0.007  0.021  0.029
   15  0.000  0.001  0.039  0.040
   16  0.000  0.000  0.037  0.037
   17  0.000  0.001  0.038  0.039
   18  0.001  0.003  0.006  0.010
   19  0.000  0.001  0.019  0.020
   20  0.001  0.001  0.004  0.006
   21  0.000  0.000  0.053  0.054
   22  0.000  0.002  0.020  0.022
   23  0.000  0.000  0.054  0.054
   24  0.002  0.006  0.019  0.027
   25  0.000  0.003  0.016  0.020
   26  0.000  0.001  0.019  0.020
   27  0.000  0.002  0.020  0.022
   28  0.000  0.000  0.016  0.016
   29  0.000  0.001  0.009  0.010
   30  0.012  0.001  0.008  0.021
   31  0.000  0.001  0.009  0.010
   32  0.009  0.001  0.011  0.020
   33  0.012  0.001  0.008  0.021
   34  0.009  0.001  0.011  0.021
   35  0.000  0.002  0.001  0.004
   36  0.000  0.001  0.033  0.034