PROCAR new format
# of k-points:   10         # of bands:  252         # of ions:   37

 k-point     1 :    0.00000000 0.00000000 0.00000000     weight = 0.01562500

band     1 # energy   -6.39415000 # occ.  2.00000000
 
ion      s      p      d    tot
    1  0.006  0.001  0.000  0.007
    2  0.006  0.001  0.000  0.006
    3  0.006  0.001  0.000  0.006
    4  0.006  0.001  0.000  0.006
    5  0.006  0.001  0.000  0.006
    6  0.006  0.001  0.000  0.006
    7  0.006  0.001  0.000  0.006
    8  0.006  0.001  0.000  0.006
    9  0.006  0.001  0.000  0.006
   10  0.023  0.000  0.000  0.024
   11  0.024  0.000  0.000  0.024
   12  0.023  0.000  0.000  0.024
   13  0.024  0.000  0.000  0.024
   14  0.024  0.000  0.000  0.024
   15  0.023  0.000  0.000  0.023
   16  0.023  0.000  0.000  0.024
   17  0.023  0.000  0.000  0.023
   18  0.023  0.000  0.000  0.023
   19  0.023  0.000  0.000  0.023
   20  0.025  0.000  0.000  0.026
   21  0.025  0.000  0.000  0.026
   22  0.022  0.000  0.000  0.023
   23  0.025  0.000  0.000  0.026
   24  0.022  0.000  0.000  0.023
   25  0.023  0.000  0.000  0.023
   26  0.023  0.000  0.000  0.023
   27  0.022  0.000  0.000  0.023
   28  0.006  0.001  0.000  0.006
   29  0.006  0.001  0.000  0.006
   30  0.006  0.001  0.000  0.006
   31  0.006  0.001  0.000  0.006
   32  0.006  0.001  0.000  0.006
   33  0.006  0.001  0.000  0.006
   34  0.006  0.001  0.000  0.006
   35  0.005  0.001  0.000  0.006
   36  0.009  0.001  0.000  0.010
   37  0.000  0.000  0.000  0.000
tot    0.526  0.013  0.006  0.545
 
band     2 # energy   -5.52756903 # occ.  2.00000000
 
ion      s      p      d    tot
    1  0.008  0.000  0.000  0.008
    2  0.008  0.000  0.000  0.009
    3  0.008  0.000  0.000  0.009
    4  0.008  0.000  0.000  0.009
    5  0.008  0.000  0.000  0.009
    6  0.008  0.000  0.000  0.009
    7  0.008  0.000  0.000  0.009
    8  0.008  0.000  0.000  0.009
    9  0.008  0.000  0.000  0.009
   10  0.011  0.001  0.016  0.028
   11  0.011  0.001  0.014  0.027
   12  0.011  0.001  0.016  0.028
   13  0.011  0.001  0.014  0.027
   14  0.011  0.001  0.014  0.027
   15  0.011  0.001  0.013  0.025
   16  0.011  0.001  0.016  0.028
   17  0.011  0.001  0.013  0.025
   18  0.011  0.001  0.013  0.025
   19  0.011  0.001  0.016  0.028
   20  0.013  0.001  0.020  0.035
   21  0.013  0.001  0.020  0.035
   22  0.010  0.001  0.014  0.026
   23  0.013  0.001  0.020  0.035
   24  0.010  0.001  0.014  0.026
   25  0.011  0.001  0.016  0.028
   26  0.011  0.001  0.016  0.028
   27  0.010  0.001  0.014  0.026
   28  0.007  0.000  0.000  0.007
   29  0.007  0.000  0.000  0.007
   30  0.007  0.000  0.000  0.007
   31  0.007  0.000  0.000  0.007
   32  0.007  0.000  0.000  0.007
   33  0.007  0.000  0.000  0.007
   34  0.007  0.000  0.000  0.007
   35  0.006  0.000  0.000  0.007
   36  0.011  0.000  0.000  0.012
   37  0.001  0.000  0.000  0.001
tot    0.344  0.025  0.287  0.655
 
band     3 # energy   -5.23604698 # occ.  2.00000000
 
ion      s      p      d    tot
    1  0.011  0.000  0.025  0.035
    2  0.013  0.000  0.020  0.034
    3  0.013  0.000  0.020  0.034
    4  0.013  0.000  0.020  0.034
    5  0.014  0.000  0.019  0.033
    6  0.013  0.000  0.020  0.034
    7  0.013  0.000  0.020  0.034
    8  0.013  0.000  0.020  0.034
    9  0.015  0.000  0.019  0.034
   10  0.001  0.000  0.019  0.020
   11  0.000  0.000  0.023  0.024
   12  0.001  0.000  0.019  0.020
   13  0.000  0.000  0.023  0.024
   14  0.000  0.000  0.023  0.024
   15  0.000  0.000  0.019  0.019
   16  0.001  0.000  0.019  0.020
   17  0.000  0.000  0.019  0.019
   18  0.000  0.000  0.019  0.019
   19  0.000  0.000  0.010  0.010
   20  0.000  0.000  0.020  0.021
   21  0.000  0.000  0.020  0.021
   22  0.000  0.000  0.012  0.012
   23  0.000  0.000  0.020  0.021
   24  0.000  0.000  0.012  0.012
   25  0.000  0.000  0.010  0.010
   26  0.000  0.000  0.010  0.010
   27  0.000  0.000  0.012  0.012
   28  0.006  0.000  0.010  0.016
   29  0.007  0.000  0.009  0.016
   30  0.007  0.000  0.009  0.016
   31  0.007  0.000  0.009  0.016
   32  0.007  0.000  0.009  0.016
   33  0.007  0.000  0.009  0.016
   34  0.007  0.000  0.009  0.016
   35  0.006  0.000  0.011  0.017
   36  0.013  0.000  0.000  0.014
   37  0.001  0.000  0.000  0.001
tot    0.194  0.006  0.569  0.769
 
band     4 # energy   -5.14889025 # occ.  2.00000000
 
ion      s      p      d    tot
    1  0.011  0.001  0.000  0.012
    2  0.001  0.000  0.007  0.008
    3  0.001  0.000  0.007  0.008
    4  0.001  0.000  0.007  0.008
    5  0.000  0.000  0.005  0.005
    6  0.001  0.000  0.007  0.008
    7  0.001  0.000  0.007  0.008
    8  0.001  0.000  0.007  0.008
    9  0.000  0.000  0.004  0.005
   10  0.005  0.000  0.038  0.043
   11  0.000  0.000  0.021  0.021
   12  0.005  0.000  0.038  0.043
   13  0.000  0.000  0.021  0.021
   14  0.000  0.000  0.021  0.021
   15  0.008  0.001  0.002  0.011
   16  0.005  0.000  0.038  0.043
   17  0.008  0.001  0.002  0.011
   18  0.008  0.001  0.002  0.011
   19  0.000  0.001  0.031  0.032
   20  0.005  0.000  0.091  0.096
   21  0.005  0.000  0.091  0.096
   22  0.017  0.001  0.008  0.025
   23  0.005  0.000  0.091  0.096
   24  0.017  0.001  0.008  0.025
   25  0.000  0.001  0.031  0.032
   26  0.000  0.001  0.031  0.032
   27  0.017  0.001  0.008  0.025
   28  0.000  0.000  0.002  0.002
   29  0.000  0.000  0.005  0.005
   30  0.000  0.000  0.005  0.005
   31  0.000  0.000  0.005  0.005
   32  0.000  0.000  0.005  0.005
   33  0.000  0.000  0.005  0.005
   34  0.000  0.000  0.005  0.005
   35  0.004  0.001  0.003  0.009
   36  0.010  0.002  0.004  0.016
   37  0.001  0.000  0.000  0.001
tot    0.137  0.015  0.658  0.811
 
band     5 # energy   -5.11543087 # occ.  2.00000000
 
ion      s      p      d    tot
    1  0.000  0.000  0.007  0.007
    2  0.000  0.000  0.002  0.002
    3  0.001  0.000  0.003  0.004
    4  0.000  0.000  0.002  0.002
    5  0.000  0.000  0.002  0.002
    6  0.000  0.000  0.003  0.004
    7  0.001  0.000  0.003  0.004
    8  0.000  0.000  0.003  0.004
    9  0.000  0.000  0.004  0.004
   10  0.000  0.001  0.018  0.019
   11  0.000  0.000  0.027  0.028
   12  0.007  0.001  0.024  0.031
   13  0.000  0.000  0.028  0.028
   14  0.000  0.000  0.041  0.042
   15  0.009  0.001  0.015  0.025
   16  0.007  0.001  0.024  0.032
   17  0.009  0.001  0.016  0.025
   18  0.000  0.000  0.033  0.033
   19  0.019  0.001  0.031  0.051
   20  0.000  0.000  0.134  0.134
   21  0.009  0.000  0.045  0.055
   22  0.002  0.001  0.033  0.035
   23  0.010  0.000  0.042  0.052
   24  0.000  0.002  0.022  0.023
   25  0.000  0.001  0.046  0.047
   26  0.019  0.001  0.032  0.051
   27  0.002  0.001  0.033  0.035
   28  0.000  0.000  0.006  0.006
   29  0.001  0.000  0.006  0.007
   30  0.000  0.000  0.002  0.002
   31  0.001  0.000  0.006  0.007
   32  0.001  0.000  0.003  0.004
   33  0.000  0.000  0.002  0.002
   34  0.000  0.000  0.003  0.004
   35  0.000  0.000  0.001  0.001
   36  0.000  0.001  0.001  0.002
   37  0.000  0.000  0.000  0.000
tot    0.098  0.014  0.706  0.817
 
band     6 # energy   -5.11541202 # occ.  2.00000000
 
ion      s      p      d    tot
    1  0.000  0.000  0.007  0.007
    2  0.001  0.000  0.003  0.004
    3  0.000  0.000  0.003  0.003
    4  0.001  0.000  0.003  0.004
    5  0.000  0.000  0.002  0.002
    6  0.001  0.000  0.002  0.003
    7  0.000  0.000  0.003  0.003
    8  0.001  0.000  0.002  0.003
    9  0.000  0.000  0.004  0.004
   10  0.009  0.001  0.026  0.036
   11  0.000  0.000  0.037  0.037
   12  0.002  0.001  0.020  0.023
   13  0.000  0.000  0.037  0.037
   14  0.000  0.000  0.023  0.023
   15  0.003  0.000  0.028  0.031
   16  0.002  0.001  0.020  0.023
   17  0.003  0.000  0.027  0.031
   18  0.012  0.001  0.010  0.023
   19  0.006  0.001  0.042  0.049
   20  0.013  0.001  0.013  0.027
   21  0.003  0.000  0.103  0.106
   22  0.001  0.001  0.026  0.027
   23  0.003  0.000  0.105  0.109
   24  0.002  0.000  0.037  0.039
   25  0.025  0.001  0.027  0.053
   26  0.007  0.001  0.041  0.049
   27  0.001  0.001  0.025  0.027
   28  0.000  0.000  0.006  0.006
   29  0.000  0.000  0.002  0.002
   30  0.001  0.000  0.005  0.007
   31  0.000  0.000  0.002  0.002
   32  0.000  0.000  0.004  0.005
   33  0.001  0.000  0.006  0.007
   34  0.000  0.000  0.004  0.005
   35  0.000  0.000  0.001  0.001
   36  0.000  0.001  0.001  0.002
   37  0.000  0.000  0.000  0.000
tot    0.098  0.014  0.706  0.817
 
band     7 # energy   -5.10799352 # occ.  2.00000000
 
ion      s      p      d    tot
    1  0.000  0.000  0.005  0.005
    2  0.000  0.000  0.002  0.003
    3  0.001  0.000  0.006  0.007
    4  0.000  0.000  0.002  0.003
    5  0.000  0.000  0.010  0.011
    6  0.002  0.001  0.005  0.007
    7  0.001  0.000  0.006  0.007
    8  0.002  0.001  0.005  0.007
    9  0.000  0.000  0.001  0.001
   10  0.009  0.001  0.010  0.020
   11  0.010  0.001  0.052  0.063
   12  0.002  0.000  0.068  0.071
   13  0.007  0.001  0.056  0.064
   14  0.030  0.001  0.017  0.048
   15  0.002  0.001  0.015  0.018
   16  0.003  0.000  0.063  0.066
   17  0.001  0.001  0.013  0.016
   18  0.005  0.000  0.037  0.042
   19  0.000  0.001  0.024  0.024
   20  0.019  0.001  0.028  0.048
   21  0.004  0.001  0.030  0.035
   22  0.003  0.000  0.046  0.050
   23  0.005  0.001  0.030  0.036
   24  0.015  0.001  0.005  0.021
   25  0.000  0.000  0.020  0.020
   26  0.000  0.001  0.024  0.024
   27  0.004  0.000  0.042  0.047
   28  0.000  0.000  0.000  0.000
   29  0.002  0.000  0.004  0.006
   30  0.000  0.000  0.003  0.004
   31  0.002  0.000  0.004  0.007
   32  0.000  0.000  0.002  0.002
   33  0.001  0.000  0.003  0.004
   34  0.000  0.000  0.002  0.002
   35  0.000  0.000  0.007  0.007
   36  0.000  0.001  0.001  0.002
   37  0.000  0.000  0.000  0.000
tot    0.132  0.018  0.649  0.799
 
band     8 # energy   -5.10799177 # occ.  2.00000000
 
ion      s      p      d    tot
    1  0.000  0.000  0.005  0.005
    2  0.002  0.001  0.006  0.009
    3  0.001  0.000  0.003  0.004
    4  0.002  0.001  0.006  0.009
    5  0.000  0.000  0.010  0.011
    6  0.000  0.000  0.004  0.004
    7  0.001  0.000  0.003  0.005
    8  0.000  0.000  0.004  0.004
    9  0.000  0.000  0.001  0.001
   10  0.000  0.000  0.085  0.085
   11  0.022  0.001  0.031  0.054
   12  0.007  0.001  0.026  0.034
   13  0.025  0.001  0.027  0.053
   14  0.000  0.001  0.068  0.069
   15  0.004  0.001  0.028  0.032
   16  0.007  0.001  0.031  0.039
   17  0.004  0.000  0.029  0.034
   18  0.000  0.002  0.009  0.010
   19  0.000  0.000  0.022  0.022
   20  0.000  0.001  0.030  0.031
   21  0.015  0.001  0.029  0.044
   22  0.012  0.001  0.016  0.029
   23  0.013  0.001  0.029  0.043
   24  0.000  0.000  0.057  0.057
   25  0.000  0.001  0.024  0.025
   26  0.000  0.000  0.021  0.022
   27  0.011  0.001  0.020  0.032
   28  0.000  0.000  0.000  0.000
   29  0.000  0.000  0.002  0.002
   30  0.001  0.000  0.003  0.005
   31  0.000  0.000  0.002  0.002
   32  0.001  0.000  0.004  0.006
   33  0.001  0.000  0.003  0.004
   34  0.001  0.000  0.004  0.006
   35  0.000  0.000  0.007  0.007
   36  0.000  0.001  0.001  0.002
   37  0.000  0.000  0.000  0.000
tot    0.132  0.018  0.649  0.799
 
band     9 # energy   -5.10763841 # occ.  2.00000000
 
ion      s      p      d    tot
    1  0.001  0.000  0.000  0.001
    2  0.000  0.000  0.005  0.005
    3  0.000  0.000  0.005  0.005
    4  0.000  0.000  0.005  0.005
    5  0.002  0.001  0.006  0.009
    6  0.000  0.000  0.005  0.005
    7  0.000  0.000  0.005  0.005
    8  0.000  0.000  0.005  0.005
    9  0.001  0.000  0.003  0.004
   10  0.008  0.001  0.005  0.014
   11  0.013  0.001  0.052  0.066
   12  0.007  0.001  0.005  0.013
   13  0.013  0.001  0.052  0.066
   14  0.014  0.001  0.050  0.065
   15  0.001  0.000  0.054  0.055
   16  0.007  0.001  0.005  0.013
   17  0.001  0.000  0.054  0.055
   18  0.001  0.000  0.051  0.052
   19  0.008  0.000  0.037  0.045
   20  0.006  0.001  0.022  0.029
   21  0.007  0.001  0.021  0.030
   22  0.000  0.000  0.033  0.034
   23  0.007  0.001  0.021  0.030
   24  0.000  0.000  0.033  0.034
   25  0.008  0.000  0.038  0.046
   26  0.008  0.000  0.037  0.045
   27  0.000  0.000  0.033  0.034
   28  0.002  0.001  0.003  0.006
   29  0.000  0.000  0.004  0.004
   30  0.000  0.000  0.004  0.004
   31  0.000  0.000  0.004  0.004
   32  0.000  0.000  0.004  0.004
   33  0.000  0.000  0.004  0.004
   34  0.000  0.000  0.004  0.004
   35  0.001  0.000  0.002  0.003
   36  0.000  0.000  0.000  0.000
   37  0.000  0.000  0.000  0.000
tot    0.116  0.016  0.673  0.806
 
band    10 # energy   -5.08905891 # occ.  2.00000000
 
ion      s      p      d    tot
    1  0.001  0.000  0.008  0.009
    2  0.000  0.000  0.008  0.009
    3  0.000  0.000  0.008  0.009
    4  0.000  0.000  0.008  0.009
    5  0.004  0.000  0.004  0.008
    6  0.000  0.000  0.008  0.009
    7  0.000  0.000  0.008  0.009
    8  0.000  0.000  0.008  0.009
    9  0.005  0.001  0.002  0.009
   10  0.001  0.000  0.054  0.055
   11  0.001  0.000  0.043  0.044
   12  0.001  0.000  0.054  0.055
   13  0.001  0.000  0.043  0.044
   14  0.001  0.000  0.043  0.044
   15  0.007  0.000  0.011  0.018
   16  0.001  0.000  0.054  0.055
   17  0.007  0.000  0.011  0.018
   18  0.007  0.000  0.011  0.018
   19  0.005  0.000  0.008  0.014
   20  0.001  0.000  0.053  0.055
   21  0.001  0.000  0.054  0.055
   22  0.002  0.000  0.037  0.039
   23  0.001  0.000  0.054  0.055
   24  0.002  0.000  0.037  0.039
   25  0.005  0.000  0.008  0.014
   26  0.005  0.000  0.008  0.014
   27  0.002  0.000  0.037  0.039
   28  0.006  0.001  0.000  0.008
   29  0.000  0.000  0.010  0.011
   30  0.000  0.000  0.010  0.011
   31  0.000  0.000  0.010  0.011
   32  0.000  0.000  0.010  0.011
   33  0.000  0.000  0.010  0.011
   34  0.000  0.000  0.010  0.011
   35  0.000  0.000  0.007  0.008
   36  0.005  0.000  0.001  0.006
   37  0.000  0.000  0.000  0.000
tot    0.076  0.009  0.753  0.838
 
band    11 # energy   -5.06761094 # occ.  2.00000000
 
ion      s      p      d    tot
    1  0.004  0.000  0.006  0.010
    2  0.000  0.000  0.008  0.009
    3  0.000  0.000  0.008  0.009
    4  0.000  0.000  0.008  0.009
    5  0.000  0.000  0.004  0.004
    6  0.000  0.000  0.009  0.009
    7  0.000  0.000  0.008  0.009
    8  0.000  0.000  0.009  0.009
    9  0.000  0.000  0.003  0.004
   10  0.000  0.000  0.047  0.048
   11  0.004  0.000  0.008  0.013
   12  0.000  0.000  0.045  0.045
   13  0.004  0.000  0.008  0.013
   14  0.004  0.000  0.009  0.013
   15  0.002  0.000  0.054  0.056
   16  0.000  0.000  0.045  0.045
   17  0.002  0.000  0.054  0.056
   18  0.001  0.000  0.053  0.055
   19  0.004  0.000  0.051  0.056
   20  0.001  0.001  0.011  0.013
   21  0.001  0.001  0.010  0.012
   22  0.000  0.000  0.049  0.049
   23  0.001  0.001  0.010  0.012
   24  0.000  0.000  0.051  0.051
   25  0.004  0.000  0.051  0.056
   26  0.004  0.000  0.051  0.056
   27  0.000  0.000  0.049  0.049
   28  0.000  0.000  0.017  0.018
   29  0.000  0.000  0.009  0.009
   30  0.001  0.000  0.008  0.009
   31  0.000  0.000  0.009  0.009
   32  0.001  0.000  0.009  0.010
   33  0.001  0.000  0.008  0.009
   34  0.001  0.000  0.009  0.009
   35  0.000  0.000  0.000  0.001
   36  0.006  0.000  0.000  0.007
   37  0.000  0.000  0.000  0.000
tot    0.050  0.008  0.790  0.847
 
band    12 # energy   -5.06747204 # occ.  2.00000000
 
ion      s      p      d    tot
    1  0.000  0.000  0.014  0.014
    2  0.002  0.001  0.009  0.012
    3  0.003  0.001  0.006  0.010
    4  0.001  0.001  0.011  0.012
    5  0.000  0.000  0.008  0.008
    6  0.000  0.000  0.009  0.010
    7  0.003  0.001  0.005  0.009
    8  0.001  0.000  0.007  0.008
    9  0.000  0.001  0.008  0.008
   10  0.015  0.000  0.030  0.045
   11  0.000  0.000  0.025  0.025
   12  0.006  0.000  0.045  0.052
   13  0.000  0.000  0.031  0.032
   14  0.000  0.000  0.042  0.042
   15  0.002  0.000  0.102  0.104
   16  0.002  0.000  0.053  0.055
   17  0.007  0.000  0.066  0.073
   18  0.016  0.000  0.008  0.024
   19  0.000  0.000  0.030  0.030
   20  0.003  0.000  0.011  0.015
   21  0.001  0.000  0.027  0.029
   22  0.001  0.000  0.022  0.024
   23  0.000  0.000  0.036  0.036
   24  0.003  0.000  0.022  0.024
   25  0.000  0.000  0.025  0.026
   26  0.000  0.000  0.028  0.028
   27  0.000  0.000  0.021  0.021
   28  0.000  0.000  0.013  0.013
   29  0.002  0.000  0.004  0.006
   30  0.000  0.000  0.005  0.006
   31  0.003  0.000  0.004  0.007
   32  0.003  0.000  0.004  0.007
   33  0.000  0.000  0.006  0.006
   34  0.002  0.000  0.004  0.006
   35  0.000  0.000  0.006  0.006
   36  0.000  0.001  0.001  0.001
   37  0.000  0.000  0.000  0.000
tot    0.075  0.010  0.748  0.833
 
band    13 # energy   -5.06747058 # occ.  2.00000000
 
ion      s      p      d    tot
    1  0.000  0.000  0.014  0.014
    2  0.002  0.000  0.007  0.009
    3  0.000  0.000  0.010  0.011
    4  0.003  0.000  0.005  0.008
    5  0.000  0.000  0.008  0.008
    6  0.003  0.001  0.006  0.010
    7  0.000  0.000  0.011  0.012
    8  0.002  0.001  0.008  0.011
    9  0.000  0.001  0.008  0.008
   10  0.001  0.000  0.054  0.055
   11  0.000  0.000  0.041  0.041
   12  0.009  0.000  0.041  0.050
   13  0.000  0.000  0.034  0.034
   14  0.000  0.000  0.023  0.024
   15  0.014  0.000  0.015  0.030
   16  0.014  0.000  0.034  0.047
   17  0.009  0.000  0.051  0.061
   18  0.001  0.000  0.111  0.111
   19  0.000  0.000  0.025  0.026
   20  0.000  0.000  0.038  0.038
   21  0.002  0.000  0.023  0.025
   22  0.002  0.000  0.021  0.023
   23  0.003  0.000  0.014  0.017
   24  0.000  0.000  0.020  0.020
   25  0.000  0.000  0.030  0.030
   26  0.000  0.000  0.027  0.027
   27  0.002  0.000  0.023  0.026
   28  0.000  0.000  0.013  0.013
   29  0.001  0.000  0.005  0.007
   30  0.003  0.000  0.004  0.007
   31  0.000  0.000  0.005  0.006
   32  0.000  0.000  0.005  0.005
   33  0.003  0.000  0.004  0.007
   34  0.001  0.000  0.005  0.006
   35  0.000  0.000  0.006  0.006
   36  0.000  0.001  0.001  0.001
   37  0.000  0.000  0.000  0.000
tot    0.075  0.010  0.748  0.833
 
band    14 # energy   -5.05440427 # occ.  2.00000000
 
ion      s      p      d    tot
    1  0.000  0.000  0.005  0.005
    2  0.003  0.000  0.006  0.010
    3  0.000  0.000  0.009  0.009
    4  0.003  0.000  0.006  0.010
    5  0.000  0.000  0.010  0.010
    6  0.002  0.000  0.006  0.008
    7  0.000  0.000  0.009  0.009
    8  0.002  0.000  0.006  0.008
    9  0.000  0.000  0.018  0.018
   10  0.003  0.000  0.024  0.027
   11  0.001  0.000  0.046  0.048
   12  0.001  0.000  0.024  0.025
   13  0.001  0.000  0.045  0.047
   14  0.005  0.000  0.009  0.015
   15  0.000  0.000  0.028  0.028
   16  0.001  0.000  0.024  0.025
   17  0.000  0.000  0.028  0.029
   18  0.000  0.000  0.039  0.039
   19  0.002  0.000  0.068  0.070
   20  0.001  0.000  0.053  0.053
   21  0.000  0.000  0.022  0.022
   22  0.003  0.000  0.061  0.065
   23  0.000  0.000  0.021  0.021
   24  0.013  0.000  0.021  0.034
   25  0.007  0.000  0.009  0.016
   26  0.002  0.000  0.066  0.068
   27  0.003  0.000  0.063  0.066
   28  0.000  0.000  0.004  0.004
   29  0.000  0.000  0.008  0.008
   30  0.002  0.000  0.002  0.004
   31  0.000  0.000  0.008  0.008
   32  0.001  0.001  0.007  0.009
   33  0.002  0.000  0.002  0.004
   34  0.001  0.001  0.007  0.009
   35  0.000  0.000  0.010  0.010
   36  0.000  0.000  0.001  0.001
   37  0.000  0.000  0.000  0.000
tot    0.059  0.007  0.778  0.844
 
band    15 # energy   -5.05436746 # occ.  2.00000000
 
ion      s      p      d    tot
    1  0.000  0.000  0.005  0.005
    2  0.000  0.000  0.008  0.008
    3  0.003  0.000  0.005  0.009
    4  0.000  0.000  0.008  0.008
    5  0.000  0.000  0.010  0.010
    6  0.002  0.000  0.008  0.010
    7  0.003  0.000  0.005  0.009
    8  0.002  0.000  0.008  0.010
    9  0.000  0.000  0.018  0.018
   10  0.000  0.000  0.024  0.024
   11  0.004  0.000  0.021  0.025
   12  0.002  0.000  0.024  0.027
   13  0.004  0.000  0.022  0.026
   14  0.000  0.000  0.058  0.058
   15  0.000  0.000  0.035  0.036
   16  0.002  0.000  0.024  0.027
   17  0.000  0.000  0.035  0.036
   18  0.000  0.000  0.025  0.025
   19  0.006  0.000  0.027  0.033
   20  0.000  0.000  0.011  0.011
   21  0.000  0.000  0.042  0.042
   22  0.010  0.000  0.035  0.045
   23  0.000  0.000  0.043  0.043
   24  0.000  0.000  0.076  0.076
   25  0.000  0.000  0.087  0.087
   26  0.005  0.000  0.029  0.035
   27  0.010  0.000  0.034  0.044
   28  0.000  0.000  0.004  0.004
   29  0.002  0.001  0.004  0.006
   30  0.000  0.000  0.009  0.010
   31  0.002  0.001  0.004  0.006
   32  0.001  0.000  0.004  0.005
   33  0.000  0.000  0.009  0.010
   34  0.001  0.000  0.004  0.005
   35  0.000  0.000  0.010  0.010
   36  0.000  0.000  0.001  0.001
   37  0.000  0.000  0.000  0.000
tot    0.059  0.007  0.778  0.844
 
band    16 # energy   -5.05171189 # occ.  2.00000000
 
ion      s      p      d    tot
    1  0.002  0.000  0.012  0.014
    2  0.004  0.000  0.014  0.018
    3  0.004  0.000  0.014  0.018
    4  0.004  0.000  0.014  0.018
    5  0.006  0.000  0.008  0.014
    6  0.004  0.000  0.014  0.018
    7  0.004  0.000  0.014  0.018
    8  0.004  0.000  0.014  0.018
    9  0.006  0.000  0.020  0.026
   10  0.004  0.000  0.005  0.010
   11  0.001  0.000  0.006  0.007
   12  0.004  0.000  0.005  0.010
   13  0.001  0.000  0.006  0.007
   14  0.001  0.000  0.006  0.007
   15  0.001  0.000  0.017  0.018
   16  0.004  0.000  0.006  0.010
   17  0.001  0.000  0.017  0.018
   18  0.001  0.000  0.017  0.018
   19  0.001  0.001  0.012  0.014
   20  0.003  0.001  0.021  0.025
   21  0.003  0.001  0.021  0.025
   22  0.000  0.001  0.021  0.021
   23  0.003  0.001  0.021  0.025
   24  0.000  0.001  0.021  0.022
   25  0.001  0.001  0.012  0.014
   26  0.001  0.001  0.012  0.014
   27  0.000  0.001  0.021  0.021
   28  0.011  0.000  0.017  0.028
   29  0.012  0.000  0.027  0.039
   30  0.012  0.000  0.027  0.039
   31  0.012  0.000  0.027  0.039
   32  0.012  0.000  0.027  0.039
   33  0.012  0.000  0.027  0.039
   34  0.012  0.000  0.027  0.039
   35  0.020  0.000  0.031  0.051
   36  0.008  0.001  0.003  0.012
   37  0.001  0.000  0.000  0.001
tot    0.182  0.009  0.584  0.775
 
band    17 # energy   -4.92088599 # occ.  2.00000000
 
ion      s      p      d    tot
    1  0.000  0.000  0.000  0.001
    2  0.000  0.000  0.006  0.006
    3  0.000  0.000  0.006  0.006
    4  0.000  0.000  0.006  0.006
    5  0.000  0.000  0.017  0.018
    6  0.000  0.000  0.006  0.006
    7  0.000  0.000  0.006  0.006
    8  0.000  0.000  0.006  0.006
    9  0.002  0.001  0.005  0.007
   10  0.000  0.000  0.014  0.014
   11  0.000  0.001  0.079  0.080
   12  0.000  0.000  0.014  0.014
   13  0.000  0.001  0.079  0.080
   14  0.000  0.001  0.079  0.080
   15  0.000  0.001  0.034  0.035
   16  0.000  0.000  0.014  0.014
   17  0.000  0.001  0.034  0.035
   18  0.000  0.001  0.034  0.035
   19  0.000  0.000  0.024  0.025
   20  0.001  0.000  0.070  0.072
   21  0.001  0.000  0.070  0.072
   22  0.002  0.000  0.015  0.018
   23  0.001  0.000  0.070  0.072
   24  0.002  0.000  0.015  0.018
   25  0.000  0.000  0.024  0.024
   26  0.000  0.000  0.024  0.025
   27  0.002  0.000  0.015  0.018
   28  0.006  0.001  0.000  0.007
   29  0.000  0.000  0.010  0.011
   30  0.000  0.000  0.010  0.011
   31  0.000  0.000  0.010  0.011
   32  0.000  0.000  0.010  0.011
   33  0.000  0.000  0.010  0.011
   34  0.000  0.000  0.010  0.011
   35  0.001  0.000  0.000  0.001
   36  0.001  0.001  0.003  0.004
   37  0.000  0.000  0.000  0.000
tot    0.025  0.014  0.829  0.868
 
band    18 # energy   -4.90933428 # occ.  2.00000000
 
ion      s      p      d    tot
    1  0.000  0.000  0.001  0.001
    2  0.000  0.000  0.008  0.008
    3  0.001  0.001  0.005  0.007
    4  0.000  0.000  0.008  0.008
    5  0.000  0.001  0.017  0.018
    6  0.001  0.001  0.009  0.010
    7  0.001  0.001  0.005  0.007
    8  0.001  0.001  0.008  0.010
    9  0.000  0.000  0.009  0.009
   10  0.000  0.000  0.038  0.038
   11  0.002  0.000  0.056  0.058
   12  0.000  0.001  0.026  0.027
   13  0.002  0.000  0.057  0.059
   14  0.000  0.000  0.088  0.088
   15  0.002  0.001  0.028  0.031
   16  0.000  0.001  0.025  0.026
   17  0.002  0.001  0.027  0.029
   18  0.000  0.000  0.005  0.005
   19  0.002  0.001  0.029  0.031
   20  0.000  0.000  0.098  0.099
   21  0.002  0.000  0.061  0.063
   22  0.000  0.001  0.022  0.023
   23  0.002  0.000  0.059  0.061
   24  0.000  0.000  0.026  0.026
   25  0.000  0.000  0.009  0.009
   26  0.002  0.001  0.028  0.030
   27  0.000  0.001  0.022  0.023
   28  0.000  0.000  0.009  0.010
   29  0.001  0.001  0.007  0.009
   30  0.002  0.001  0.005  0.007
   31  0.001  0.001  0.008  0.009
   32  0.000  0.000  0.006  0.006
   33  0.002  0.001  0.005  0.007
   34  0.000  0.000  0.006  0.006
   35  0.000  0.000  0.001  0.001
   36  0.000  0.002  0.003  0.005
   37  0.000  0.000  0.000  0.000
tot    0.025  0.016  0.824  0.865
 
band    19 # energy   -4.90931914 # occ.  2.00000000
 
ion      s      p      d    tot
    1  0.000  0.000  0.001  0.001
    2  0.001  0.001  0.006  0.008
    3  0.000  0.000  0.009  0.010
    4  0.001  0.001  0.006  0.008
    5  0.000  0.001  0.017  0.018
    6  0.001  0.000  0.006  0.007
    7  0.000  0.000  0.009  0.010
    8  0.001  0.000  0.006  0.007
    9  0.000  0.000  0.009  0.009
   10  0.000  0.001  0.022  0.023
   11  0.001  0.000  0.079  0.079
   12  0.000  0.000  0.033  0.034
   13  0.001  0.000  0.077  0.078
   14  0.002  0.000  0.046  0.048
   15  0.001  0.000  0.012  0.013
   16  0.000  0.000  0.034  0.034
   17  0.001  0.000  0.013  0.014
   18  0.002  0.001  0.035  0.038
   19  0.001  0.000  0.015  0.016
   20  0.003  0.000  0.047  0.050
   21  0.001  0.000  0.085  0.085
   22  0.000  0.000  0.025  0.025
   23  0.001  0.000  0.086  0.087
   24  0.000  0.001  0.020  0.022
   25  0.003  0.001  0.035  0.038
   26  0.001  0.000  0.016  0.017
   27  0.000  0.000  0.025  0.025
   28  0.000  0.000  0.009  0.010
   29  0.001  0.000  0.005  0.006
   30  0.000  0.000  0.007  0.008
   31  0.001  0.000  0.005  0.006
   32  0.002  0.001  0.006  0.009
   33  0.000  0.000  0.007  0.008
   34  0.002  0.001  0.006  0.009
   35  0.000  0.000  0.001  0.001
   36  0.000  0.002  0.003  0.005
   37  0.000  0.000  0.000  0.000
tot    0.025  0.016  0.824  0.865
 
band    20 # energy   -4.89823158 # occ.  2.00000000
 
ion      s      p      d    tot
    1  0.001  0.000  0.006  0.007
    2  0.000  0.001  0.012  0.012
    3  0.000  0.001  0.012  0.012
    4  0.000  0.001  0.012  0.012
    5  0.004  0.001  0.000  0.005
    6  0.000  0.001  0.012  0.012
    7  0.000  0.001  0.012  0.012
    8  0.000  0.001  0.012  0.012
    9  0.001  0.000  0.004  0.005
   10  0.001  0.001  0.055  0.057
   11  0.000  0.000  0.019  0.019
   12  0.001  0.001  0.055  0.058
   13  0.000  0.000  0.019  0.019
   14  0.000  0.000  0.019  0.020
   15  0.003  0.000  0.029  0.032
   16  0.001  0.001  0.055  0.058
   17  0.003  0.000  0.029  0.032
   18  0.003  0.000  0.029  0.032
   19  0.001  0.000  0.051  0.053
   20  0.001  0.000  0.016  0.017
   21  0.001  0.000  0.016  0.017
   22  0.001  0.001  0.044  0.046
   23  0.001  0.000  0.016  0.017
   24  0.001  0.001  0.044  0.046
   25  0.001  0.000  0.051  0.053
   26  0.001  0.000  0.051  0.053
   27  0.001  0.001  0.044  0.046
   28  0.001  0.000  0.014  0.014
   29  0.000  0.000  0.010  0.011
   30  0.000  0.000  0.010  0.011
   31  0.000  0.000  0.010  0.011
   32  0.000  0.000  0.010  0.011
   33  0.000  0.000  0.010  0.011
   34  0.000  0.000  0.010  0.011
   35  0.003  0.001  0.003  0.007
   36  0.003  0.001  0.000  0.005
   37  0.000  0.000  0.000  0.000
tot    0.035  0.017  0.804  0.855
 
band    21 # energy   -4.88818838 # occ.  2.00000000
 
ion      s      p      d    tot
    1  0.000  0.001  0.017  0.018
    2  0.000  0.000  0.008  0.008
    3  0.001  0.000  0.004  0.006
    4  0.000  0.000  0.009  0.009
    5  0.000  0.000  0.001  0.001
    6  0.001  0.001  0.010  0.011
    7  0.001  0.001  0.004  0.006
    8  0.001  0.001  0.009  0.011
    9  0.000  0.000  0.007  0.007
   10  0.002  0.000  0.057  0.060
   11  0.000  0.000  0.010  0.011
   12  0.001  0.000  0.053  0.054
   13  0.000  0.000  0.013  0.013
   14  0.000  0.001  0.030  0.031
   15  0.000  0.000  0.071  0.071
   16  0.000  0.000  0.052  0.053
   17  0.000  0.000  0.065  0.065
   18  0.000  0.000  0.023  0.024
   19  0.000  0.000  0.060  0.060
   20  0.001  0.001  0.038  0.040
   21  0.000  0.000  0.012  0.013
   22  0.001  0.000  0.044  0.045
   23  0.000  0.000  0.008  0.009
   24  0.003  0.000  0.041  0.044
   25  0.001  0.000  0.024  0.025
   26  0.000  0.000  0.056  0.056
   27  0.001  0.000  0.044  0.045
   28  0.000  0.000  0.007  0.008
   29  0.001  0.001  0.008  0.009
   30  0.001  0.001  0.004  0.006
   31  0.000  0.000  0.008  0.009
   32  0.000  0.000  0.007  0.007
   33  0.001  0.001  0.004  0.006
   34  0.000  0.000  0.006  0.007
   35  0.000  0.001  0.015  0.016
   36  0.000  0.000  0.001  0.001