PROCAR new format
# of k-points:   10         # of bands:  252         # of ions:   37

 k-point     1 :    0.00000000 0.00000000 0.00000000     weight = 0.01562500

band     1 # energy   -9.51775924 # occ.  2.00000000
 
ion      s      p      d    tot
    1  0.006  0.001  0.000  0.007
    2  0.006  0.001  0.000  0.006
    3  0.006  0.001  0.000  0.006
    4  0.006  0.001  0.000  0.006
    5  0.006  0.001  0.000  0.006
    6  0.006  0.001  0.000  0.006
    7  0.006  0.001  0.000  0.006
    8  0.006  0.001  0.000  0.006
    9  0.006  0.001  0.000  0.006
   10  0.023  0.000  0.000  0.023
   11  0.022  0.000  0.000  0.023
   12  0.023  0.000  0.000  0.023
   13  0.022  0.000  0.000  0.023
   14  0.022  0.000  0.000  0.023
   15  0.022  0.000  0.000  0.022
   16  0.023  0.000  0.000  0.023
   17  0.022  0.000  0.000  0.022
   18  0.022  0.000  0.000  0.022
   19  0.024  0.000  0.000  0.025
   20  0.025  0.000  0.000  0.025
   21  0.025  0.000  0.000  0.025
   22  0.024  0.000  0.000  0.024
   23  0.025  0.000  0.000  0.025
   24  0.024  0.000  0.000  0.024
   25  0.024  0.000  0.000  0.025
   26  0.024  0.000  0.000  0.025
   27  0.024  0.000  0.000  0.024
   28  0.007  0.001  0.000  0.008
   29  0.008  0.001  0.000  0.009
   30  0.008  0.001  0.000  0.009
   31  0.008  0.001  0.000  0.009
   32  0.008  0.001  0.000  0.009
   33  0.008  0.001  0.000  0.009
   34  0.008  0.001  0.000  0.009
   35  0.007  0.001  0.000  0.008
   36  0.020  0.000  0.003  0.023
   37  0.015  0.001  0.000  0.016
tot    0.571  0.014  0.004  0.589
 
band     2 # energy   -8.70803522 # occ.  2.00000000
 
ion      s      p      d    tot
    1  0.004  0.000  0.000  0.004
    2  0.004  0.000  0.000  0.004
    3  0.004  0.000  0.000  0.004
    4  0.004  0.000  0.000  0.004
    5  0.004  0.000  0.000  0.004
    6  0.004  0.000  0.000  0.004
    7  0.004  0.000  0.000  0.004
    8  0.004  0.000  0.000  0.004
    9  0.004  0.000  0.000  0.004
   10  0.006  0.000  0.000  0.006
   11  0.005  0.000  0.000  0.005
   12  0.006  0.000  0.000  0.006
   13  0.005  0.000  0.000  0.005
   14  0.005  0.000  0.000  0.005
   15  0.006  0.000  0.000  0.006
   16  0.006  0.000  0.000  0.006
   17  0.006  0.000  0.000  0.006
   18  0.006  0.000  0.000  0.006
   19  0.000  0.000  0.000  0.001
   20  0.001  0.002  0.000  0.003
   21  0.001  0.002  0.000  0.003
   22  0.000  0.001  0.000  0.001
   23  0.001  0.002  0.000  0.003
   24  0.000  0.001  0.000  0.001
   25  0.000  0.000  0.000  0.001
   26  0.000  0.000  0.000  0.001
   27  0.000  0.001  0.000  0.001
   28  0.001  0.000  0.000  0.001
   29  0.003  0.000  0.000  0.003
   30  0.003  0.000  0.000  0.003
   31  0.003  0.000  0.000  0.003
   32  0.003  0.000  0.000  0.003
   33  0.003  0.000  0.000  0.003
   34  0.003  0.000  0.000  0.003
   35  0.001  0.000  0.000  0.001
   36  0.089  0.030  0.071  0.191
   37  0.365  0.007  0.000  0.372
tot    0.560  0.050  0.076  0.686
 
band     3 # energy   -8.10131166 # occ.  2.00000000
 
ion      s      p      d    tot
    1  0.015  0.001  0.000  0.016
    2  0.015  0.001  0.000  0.016
    3  0.015  0.001  0.000  0.016
    4  0.015  0.001  0.000  0.016
    5  0.015  0.001  0.000  0.016
    6  0.015  0.001  0.000  0.016
    7  0.015  0.001  0.000  0.016
    8  0.015  0.001  0.000  0.016
    9  0.015  0.001  0.001  0.016
   10  0.007  0.002  0.000  0.009
   11  0.008  0.002  0.000  0.010
   12  0.007  0.002  0.000  0.009
   13  0.008  0.002  0.000  0.010
   14  0.008  0.002  0.000  0.010
   15  0.006  0.002  0.000  0.009
   16  0.007  0.002  0.000  0.009
   17  0.006  0.002  0.000  0.009
   18  0.006  0.002  0.000  0.009
   19  0.013  0.002  0.000  0.015
   20  0.007  0.001  0.001  0.009
   21  0.007  0.001  0.001  0.009
   22  0.012  0.002  0.001  0.014
   23  0.007  0.001  0.001  0.009
   24  0.012  0.002  0.001  0.014
   25  0.013  0.002  0.000  0.015
   26  0.013  0.002  0.000  0.015
   27  0.012  0.002  0.001  0.014
   28  0.019  0.001  0.000  0.021
   29  0.015  0.001  0.001  0.017
   30  0.015  0.001  0.001  0.017
   31  0.015  0.001  0.001  0.017
   32  0.015  0.001  0.001  0.017
   33  0.015  0.001  0.001  0.017
   34  0.015  0.001  0.001  0.017
   35  0.019  0.001  0.000  0.020
   36  0.000  0.016  0.028  0.043
   37  0.083  0.001  0.000  0.083
tot    0.500  0.064  0.047  0.611
 
band     4 # energy   -6.60255716 # occ.  2.00000000
 
ion      s      p      d    tot
    1  0.017  0.000  0.005  0.022
    2  0.015  0.000  0.006  0.021
    3  0.015  0.000  0.006  0.021
    4  0.015  0.000  0.006  0.021
    5  0.008  0.000  0.006  0.015
    6  0.015  0.000  0.006  0.021
    7  0.015  0.000  0.006  0.021
    8  0.015  0.000  0.006  0.021
    9  0.022  0.000  0.004  0.027
   10  0.003  0.003  0.002  0.008
   11  0.010  0.005  0.001  0.015
   12  0.003  0.003  0.002  0.008
   13  0.010  0.005  0.001  0.015
   14  0.010  0.005  0.001  0.015
   15  0.000  0.003  0.003  0.006
   16  0.003  0.003  0.002  0.008
   17  0.000  0.003  0.003  0.006
   18  0.000  0.003  0.003  0.006
   19  0.002  0.003  0.005  0.010
   20  0.016  0.004  0.002  0.023
   21  0.016  0.004  0.002  0.023
   22  0.001  0.004  0.004  0.009
   23  0.016  0.004  0.002  0.023
   24  0.001  0.004  0.004  0.009
   25  0.002  0.003  0.005  0.010
   26  0.002  0.003  0.005  0.010
   27  0.001  0.004  0.004  0.009
   28  0.022  0.000  0.006  0.028
   29  0.017  0.000  0.008  0.026
   30  0.017  0.000  0.008  0.026
   31  0.017  0.000  0.008  0.026
   32  0.017  0.000  0.008  0.026
   33  0.017  0.000  0.008  0.026
   34  0.017  0.000  0.008  0.026
   35  0.026  0.000  0.006  0.032
   36  0.006  0.000  0.016  0.022
   37  0.001  0.000  0.000  0.001
tot    0.389  0.067  0.181  0.637
 
band     5 # energy   -6.51221372 # occ.  2.00000000
 
ion      s      p      d    tot
    1  0.000  0.003  0.004  0.007
    2  0.005  0.002  0.002  0.008
    3  0.008  0.002  0.002  0.012
    4  0.005  0.002  0.002  0.009
    5  0.000  0.000  0.002  0.002
    6  0.001  0.001  0.002  0.003
    7  0.008  0.002  0.002  0.012
    8  0.000  0.001  0.002  0.003
    9  0.000  0.002  0.005  0.006
   10  0.039  0.001  0.006  0.046
   11  0.000  0.006  0.005  0.011
   12  0.008  0.009  0.005  0.023
   13  0.000  0.006  0.005  0.012
   14  0.000  0.002  0.004  0.006
   15  0.013  0.001  0.012  0.027
   16  0.011  0.008  0.006  0.024
   17  0.010  0.001  0.013  0.024
   18  0.047  0.005  0.003  0.055
   19  0.019  0.004  0.011  0.034
   20  0.017  0.004  0.003  0.024
   21  0.004  0.003  0.011  0.018
   22  0.003  0.011  0.002  0.016
   23  0.005  0.003  0.010  0.018
   24  0.015  0.000  0.007  0.021
   25  0.066  0.004  0.005  0.074
   26  0.014  0.004  0.012  0.031
   27  0.004  0.010  0.002  0.017
   28  0.000  0.004  0.007  0.011
   29  0.005  0.002  0.003  0.009
   30  0.014  0.003  0.004  0.021
   31  0.006  0.002  0.003  0.010
   32  0.003  0.001  0.003  0.008
   33  0.014  0.003  0.004  0.021
   34  0.002  0.001  0.003  0.007
   35  0.000  0.002  0.004  0.006
   36  0.000  0.000  0.006  0.006
   37  0.000  0.000  0.000  0.000
tot    0.347  0.114  0.180  0.641
 
band     6 # energy   -6.51210758 # occ.  2.00000000
 
ion      s      p      d    tot
    1  0.000  0.003  0.004  0.007
    2  0.004  0.001  0.002  0.008
    3  0.001  0.001  0.002  0.004
    4  0.004  0.001  0.002  0.007
    5  0.000  0.000  0.002  0.002
    6  0.008  0.002  0.002  0.013
    7  0.001  0.001  0.002  0.003
    8  0.009  0.002  0.002  0.013
    9  0.000  0.002  0.005  0.006
   10  0.000  0.011  0.005  0.016
   11  0.000  0.003  0.004  0.008
   12  0.030  0.003  0.006  0.039
   13  0.000  0.003  0.004  0.007
   14  0.000  0.008  0.005  0.013
   15  0.034  0.003  0.006  0.043
   16  0.028  0.004  0.006  0.037
   17  0.037  0.004  0.005  0.046
   18  0.000  0.000  0.015  0.016
   19  0.047  0.004  0.007  0.058
   20  0.000  0.003  0.013  0.016
   21  0.013  0.004  0.005  0.022
   22  0.012  0.003  0.005  0.020
   23  0.012  0.003  0.006  0.022
   24  0.000  0.014  0.001  0.015
   25  0.000  0.004  0.014  0.018
   26  0.051  0.004  0.007  0.062
   27  0.011  0.004  0.005  0.020
   28  0.000  0.004  0.007  0.011
   29  0.010  0.002  0.004  0.016
   30  0.000  0.001  0.003  0.004
   31  0.009  0.002  0.004  0.015
   32  0.012  0.003  0.003  0.018
   33  0.000  0.001  0.003  0.004
   34  0.013  0.003  0.004  0.019
   35  0.000  0.002  0.004  0.006
   36  0.000  0.000  0.006  0.006
   37  0.000  0.000  0.000  0.000
tot    0.347  0.114  0.180  0.641
 
band     7 # energy   -6.49515468 # occ.  2.00000000
 
ion      s      p      d    tot
    1  0.019  0.003  0.001  0.023
    2  0.000  0.002  0.004  0.005
    3  0.000  0.002  0.004  0.006
    4  0.000  0.002  0.004  0.005
    5  0.002  0.000  0.000  0.003
    6  0.000  0.002  0.004  0.006
    7  0.000  0.002  0.004  0.006
    8  0.000  0.002  0.004  0.006
    9  0.009  0.001  0.000  0.010
   10  0.030  0.006  0.005  0.042
   11  0.006  0.000  0.011  0.017
   12  0.031  0.006  0.005  0.042
   13  0.006  0.000  0.011  0.017
   14  0.005  0.000  0.011  0.017
   15  0.010  0.008  0.004  0.021
   16  0.031  0.006  0.005  0.042
   17  0.010  0.008  0.004  0.021
   18  0.010  0.008  0.004  0.021
   19  0.024  0.010  0.002  0.036
   20  0.000  0.003  0.010  0.013
   21  0.000  0.003  0.010  0.013
   22  0.024  0.002  0.009  0.035
   23  0.000  0.003  0.010  0.013
   24  0.023  0.002  0.009  0.034
   25  0.025  0.010  0.002  0.036
   26  0.024  0.009  0.002  0.036
   27  0.023  0.002  0.009  0.035
   28  0.018  0.003  0.001  0.022
   29  0.000  0.002  0.005  0.007
   30  0.000  0.002  0.005  0.007
   31  0.000  0.002  0.005  0.007
   32  0.000  0.002  0.005  0.007
   33  0.000  0.002  0.005  0.007
   34  0.000  0.002  0.005  0.007
   35  0.015  0.002  0.001  0.017
   36  0.000  0.000  0.000  0.000
   37  0.000  0.000  0.000  0.000
tot    0.345  0.115  0.181  0.641
 
band     8 # energy   -6.47992398 # occ.  2.00000000
 
ion      s      p      d    tot
    1  0.000  0.000  0.004  0.004
    2  0.003  0.001  0.002  0.007
    3  0.008  0.002  0.002  0.012
    4  0.007  0.002  0.002  0.012
    5  0.000  0.003  0.006  0.009
    6  0.002  0.001  0.002  0.005
    7  0.010  0.002  0.002  0.015
    8  0.000  0.001  0.002  0.003
    9  0.000  0.001  0.003  0.004
   10  0.001  0.002  0.013  0.016
   11  0.034  0.004  0.008  0.046
   12  0.019  0.004  0.003  0.027
   13  0.055  0.003  0.005  0.064
   14  0.003  0.005  0.012  0.020
   15  0.006  0.006  0.004  0.016
   16  0.012  0.003  0.007  0.022
   17  0.009  0.001  0.006  0.017
   18  0.000  0.013  0.002  0.015
   19  0.000  0.005  0.005  0.010
   20  0.002  0.011  0.006  0.019
   21  0.042  0.002  0.007  0.051
   22  0.044  0.005  0.004  0.052
   23  0.026  0.006  0.007  0.038
   24  0.002  0.000  0.016  0.019
   25  0.000  0.009  0.005  0.014
   26  0.000  0.002  0.005  0.007
   27  0.027  0.003  0.009  0.039
   28  0.000  0.000  0.003  0.003
   29  0.002  0.001  0.002  0.006
   30  0.009  0.003  0.003  0.015
   31  0.006  0.002  0.003  0.011
   32  0.003  0.001  0.003  0.007
   33  0.010  0.003  0.003  0.016
   34  0.000  0.001  0.003  0.004
   35  0.000  0.002  0.005  0.007
   36  0.000  0.004  0.006  0.010
   37  0.000  0.000  0.000  0.000
tot    0.343  0.117  0.182  0.641
 
band     9 # energy   -6.47981441 # occ.  2.00000000
 
ion      s      p      d    tot
    1  0.000  0.000  0.004  0.004
    2  0.007  0.002  0.002  0.011
    3  0.002  0.001  0.002  0.006
    4  0.003  0.001  0.002  0.006
    5  0.000  0.003  0.006  0.009
    6  0.008  0.002  0.003  0.013
    7  0.000  0.001  0.002  0.003
    8  0.010  0.002  0.002  0.015
    9  0.000  0.001  0.003  0.004
   10  0.021  0.004  0.003  0.027
   11  0.027  0.004  0.009  0.040
   12  0.002  0.002  0.013  0.017
   13  0.006  0.005  0.012  0.023
   14  0.059  0.003  0.005  0.067
   15  0.005  0.007  0.004  0.016
   16  0.009  0.003  0.009  0.021
   17  0.001  0.012  0.002  0.015
   18  0.010  0.001  0.006  0.017
   19  0.000  0.006  0.005  0.011
   20  0.044  0.002  0.007  0.053
   21  0.004  0.010  0.006  0.021
   22  0.005  0.001  0.016  0.021
   23  0.021  0.007  0.006  0.034
   24  0.047  0.005  0.003  0.055
   25  0.000  0.002  0.005  0.006
   26  0.000  0.009  0.005  0.014
   27  0.022  0.002  0.011  0.034
   28  0.000  0.000  0.003  0.003
   29  0.008  0.002  0.003  0.014
   30  0.001  0.001  0.002  0.005
   31  0.004  0.002  0.003  0.009
   32  0.007  0.002  0.003  0.012
   33  0.000  0.001  0.003  0.003
   34  0.010  0.003  0.003  0.016
   35  0.000  0.002  0.005  0.007
   36  0.000  0.004  0.006  0.010
   37  0.000  0.000  0.000  0.000
tot    0.343  0.117  0.182  0.641
 
band    10 # energy   -6.39653209 # occ.  2.00000000
 
ion      s      p      d    tot
    1  0.000  0.000  0.001  0.001
    2  0.001  0.002  0.006  0.009
    3  0.001  0.002  0.006  0.009
    4  0.001  0.002  0.006  0.009
    5  0.035  0.003  0.000  0.038
    6  0.001  0.002  0.006  0.009
    7  0.001  0.002  0.006  0.009
    8  0.001  0.002  0.006  0.009
    9  0.006  0.002  0.003  0.012
   10  0.002  0.004  0.009  0.015
   11  0.021  0.009  0.003  0.034
   12  0.002  0.004  0.009  0.015
   13  0.021  0.009  0.003  0.034
   14  0.021  0.009  0.003  0.034
   15  0.029  0.002  0.011  0.042
   16  0.002  0.004  0.009  0.015
   17  0.029  0.002  0.011  0.042
   18  0.029  0.002  0.011  0.042
   19  0.007  0.001  0.010  0.018
   20  0.020  0.004  0.007  0.031
   21  0.020  0.004  0.007  0.031
   22  0.009  0.007  0.004  0.020
   23  0.020  0.004  0.007  0.031
   24  0.009  0.007  0.004  0.020
   25  0.007  0.001  0.010  0.018
   26  0.007  0.001  0.010  0.018
   27  0.009  0.007  0.004  0.020
   28  0.000  0.000  0.002  0.003
   29  0.002  0.001  0.004  0.006
   30  0.002  0.001  0.004  0.006
   31  0.002  0.001  0.004  0.006
   32  0.002  0.001  0.004  0.006
   33  0.002  0.001  0.004  0.006
   34  0.002  0.001  0.004  0.006
   35  0.000  0.001  0.001  0.003
   36  0.012  0.007  0.001  0.020
   37  0.007  0.000  0.000  0.007
tot    0.343  0.113  0.197  0.653
 
band    11 # energy   -5.77836359 # occ.  2.00000000
 
ion      s      p      d    tot
    1  0.000  0.004  0.010  0.014
    2  0.003  0.002  0.005  0.010
    3  0.021  0.004  0.005  0.029
    4  0.006  0.002  0.005  0.013
    5  0.000  0.000  0.011  0.011
    6  0.008  0.002  0.005  0.015
    7  0.020  0.004  0.005  0.029
    8  0.005  0.002  0.005  0.011
    9  0.000  0.005  0.008  0.013
   10  0.012  0.001  0.006  0.019
   11  0.001  0.002  0.012  0.015
   12  0.002  0.004  0.017  0.022
   13  0.001  0.003  0.013  0.016
   14  0.003  0.001  0.008  0.012
   15  0.009  0.002  0.016  0.027
   16  0.004  0.003  0.015  0.022
   17  0.005  0.001  0.019  0.025
   18  0.026  0.005  0.005  0.036
   19  0.004  0.002  0.013  0.019
   20  0.001  0.001  0.010  0.011
   21  0.000  0.002  0.013  0.015
   22  0.001  0.002  0.025  0.028
   23  0.000  0.002  0.013  0.015
   24  0.008  0.003  0.003  0.014
   25  0.013  0.007  0.009  0.028
   26  0.002  0.001  0.014  0.017
   27  0.003  0.002  0.021  0.026
   28  0.000  0.005  0.008  0.013
   29  0.004  0.002  0.008  0.014
   30  0.027  0.004  0.010  0.040
   31  0.008  0.002  0.008  0.019
   32  0.009  0.002  0.008  0.020
   33  0.026  0.004  0.010  0.040
   34  0.005  0.002  0.008  0.015
   35  0.000  0.005  0.011  0.016
   36  0.000  0.000  0.015  0.015
   37  0.000  0.000  0.000  0.000
tot    0.236  0.094  0.375  0.704
 
band    12 # energy   -5.77829405 # occ.  2.00000000
 
ion      s      p      d    tot
    1  0.000  0.004  0.010  0.014
    2  0.018  0.003  0.005  0.026
    3  0.000  0.002  0.005  0.006
    4  0.015  0.003  0.005  0.023
    5  0.000  0.000  0.011  0.011
    6  0.013  0.003  0.005  0.021
    7  0.000  0.002  0.005  0.007
    8  0.016  0.003  0.005  0.024
    9  0.000  0.005  0.008  0.013
   10  0.000  0.004  0.019  0.023
   11  0.002  0.002  0.010  0.014
   12  0.010  0.002  0.008  0.020
   13  0.003  0.002  0.009  0.013
   14  0.000  0.003  0.014  0.017
   15  0.018  0.003  0.011  0.032
   16  0.008  0.002  0.010  0.020
   17  0.022  0.004  0.008  0.034
   18  0.000  0.000  0.022  0.022
   19  0.009  0.004  0.011  0.024
   20  0.000  0.002  0.014  0.016
   21  0.001  0.001  0.011  0.012
   22  0.006  0.002  0.008  0.017
   23  0.000  0.001  0.011  0.013
   24  0.000  0.002  0.029  0.031
   25  0.000  0.000  0.015  0.015
   26  0.011  0.005  0.010  0.026
   27  0.005  0.002  0.012  0.019
   28  0.000  0.005  0.008  0.013
   29  0.022  0.003  0.009  0.035
   30  0.000  0.002  0.007  0.009
   31  0.019  0.003  0.009  0.030
   32  0.017  0.003  0.009  0.029
   33  0.000  0.002  0.007  0.009
   34  0.021  0.003  0.009  0.034
   35  0.000  0.005  0.011  0.016
   36  0.000  0.000  0.015  0.015
   37  0.000  0.000  0.000  0.000
tot    0.236  0.094  0.375  0.704
 
band    13 # energy   -5.75771091 # occ.  2.00000000
 
ion      s      p      d    tot
    1  0.006  0.000  0.010  0.016
    2  0.005  0.001  0.010  0.016
    3  0.005  0.001  0.010  0.016
    4  0.005  0.001  0.010  0.016
    5  0.001  0.001  0.010  0.012
    6  0.005  0.001  0.010  0.016
    7  0.005  0.001  0.010  0.016
    8  0.005  0.001  0.010  0.016
    9  0.013  0.000  0.008  0.021
   10  0.008  0.000  0.025  0.032
   11  0.010  0.000  0.022  0.033
   12  0.008  0.000  0.025  0.033
   13  0.010  0.000  0.022  0.033
   14  0.010  0.000  0.022  0.033
   15  0.003  0.000  0.023  0.026
   16  0.008  0.000  0.025  0.033
   17  0.003  0.000  0.023  0.026
   18  0.003  0.000  0.023  0.026
   19  0.005  0.000  0.021  0.026
   20  0.009  0.000  0.024  0.033
   21  0.009  0.000  0.024  0.033
   22  0.004  0.000  0.021  0.024
   23  0.009  0.000  0.024  0.033
   24  0.004  0.000  0.021  0.024
   25  0.005  0.000  0.021  0.026
   26  0.005  0.000  0.021  0.026
   27  0.004  0.000  0.021  0.024
   28  0.003  0.000  0.007  0.010
   29  0.004  0.001  0.009  0.013
   30  0.003  0.001  0.009  0.013
   31  0.004  0.001  0.009  0.013
   32  0.004  0.001  0.009  0.013
   33  0.003  0.001  0.009  0.013
   34  0.004  0.001  0.009  0.013
   35  0.009  0.000  0.007  0.016
   36  0.001  0.001  0.008  0.010
   37  0.000  0.000  0.000  0.000
tot    0.204  0.013  0.564  0.780
 
band    14 # energy   -5.73755309 # occ.  2.00000000
 
ion      s      p      d    tot
    1  0.032  0.003  0.000  0.035
    2  0.000  0.003  0.010  0.013
    3  0.000  0.003  0.010  0.013
    4  0.000  0.003  0.010  0.013
    5  0.000  0.000  0.000  0.001
    6  0.000  0.003  0.010  0.013
    7  0.000  0.003  0.010  0.013
    8  0.000  0.003  0.010  0.013
    9  0.029  0.004  0.001  0.033
   10  0.009  0.003  0.010  0.022
   11  0.001  0.000  0.015  0.016
   12  0.009  0.003  0.010  0.022
   13  0.001  0.000  0.015  0.016
   14  0.001  0.000  0.015  0.016
   15  0.008  0.004  0.015  0.027
   16  0.009  0.003  0.010  0.022
   17  0.008  0.004  0.015  0.027
   18  0.008  0.004  0.015  0.027
   19  0.004  0.003  0.020  0.027
   20  0.000  0.000  0.014  0.014
   21  0.000  0.000  0.014  0.014
   22  0.010  0.004  0.009  0.023
   23  0.000  0.000  0.014  0.014
   24  0.010  0.004  0.009  0.023
   25  0.004  0.003  0.020  0.027
   26  0.004  0.003  0.020  0.027
   27  0.010  0.004  0.009  0.023
   28  0.038  0.003  0.000  0.041
   29  0.000  0.003  0.013  0.017
   30  0.000  0.003  0.013  0.017
   31  0.000  0.003  0.013  0.017
   32  0.000  0.003  0.013  0.017
   33  0.000  0.003  0.013  0.017
   34  0.000  0.003  0.013  0.017
   35  0.030  0.004  0.001  0.034
   36  0.000  0.000  0.000  0.000
   37  0.000  0.000  0.000  0.000
tot    0.225  0.092  0.389  0.705
 
band    15 # energy   -5.71875840 # occ.  2.00000000
 
ion      s      p      d    tot
    1  0.000  0.002  0.009  0.011
    2  0.000  0.002  0.005  0.007
    3  0.020  0.004  0.005  0.029
    4  0.009  0.003  0.005  0.017
    5  0.000  0.006  0.009  0.015
    6  0.013  0.003  0.005  0.022
    7  0.018  0.004  0.005  0.027
    8  0.002  0.002  0.005  0.009
    9  0.000  0.001  0.012  0.013
   10  0.001  0.001  0.016  0.018
   11  0.009  0.003  0.017  0.028
   12  0.013  0.004  0.009  0.026
   13  0.019  0.004  0.006  0.029
   14  0.002  0.002  0.025  0.028
   15  0.000  0.002  0.014  0.016
   16  0.006  0.002  0.013  0.021
   17  0.001  0.000  0.008  0.009
   18  0.000  0.003  0.017  0.021
   19  0.001  0.002  0.016  0.019
   20  0.002  0.002  0.027  0.031
   21  0.019  0.005  0.007  0.031
   22  0.009  0.004  0.010  0.023
   23  0.009  0.003  0.019  0.031
   24  0.001  0.001  0.014  0.016
   25  0.000  0.003  0.021  0.025
   26  0.002  0.000  0.008  0.010
   27  0.004  0.002  0.012  0.019
   28  0.000  0.002  0.014  0.016
   29  0.001  0.001  0.006  0.008
   30  0.018  0.004  0.008  0.030
   31  0.010  0.003  0.007  0.020
   32  0.011  0.003  0.007  0.021
   33  0.018  0.004  0.007  0.029
   34  0.001  0.002  0.006  0.009
   35  0.000  0.001  0.011  0.013
   36  0.000  0.008  0.009  0.017
   37  0.000  0.000  0.000  0.000
tot    0.222  0.095  0.396  0.712
 
band    16 # energy   -5.71871037 # occ.  2.00000000
 
ion      s      p      d    tot
    1  0.000  0.002  0.009  0.011
    2  0.021  0.004  0.005  0.030
    3  0.001  0.002  0.005  0.008
    4  0.012  0.003  0.005  0.019
    5  0.000  0.006  0.009  0.015
    6  0.008  0.002  0.005  0.015
    7  0.003  0.002  0.005  0.010
    8  0.019  0.004  0.005  0.028
    9  0.000  0.001  0.012  0.013
   10  0.012  0.004  0.009  0.025
   11  0.011  0.003  0.015  0.028
   12  0.001  0.001  0.016  0.017
   13  0.001  0.002  0.026  0.028
   14  0.018  0.004  0.007  0.029
   15  0.000  0.002  0.013  0.015
   16  0.007  0.002  0.012  0.022
   17  0.000  0.004  0.018  0.022
   18  0.001  0.000  0.009  0.010
   19  0.001  0.002  0.014  0.017
   20  0.019  0.005  0.008  0.031
   21  0.001  0.001  0.029  0.031
   22  0.000  0.001  0.014  0.015
   23  0.011  0.003  0.017  0.031
   24  0.009  0.003  0.010  0.023
   25  0.002  0.000  0.009  0.011
   26  0.000  0.003  0.022  0.025
   27  0.005  0.002  0.012  0.019
   28  0.000  0.002  0.014  0.016
   29  0.019  0.004  0.008  0.031
   30  0.002  0.002  0.006  0.009
   31  0.010  0.003  0.007  0.019
   32  0.009  0.002  0.007  0.018
   33  0.002  0.002  0.006  0.010
   34  0.019  0.004  0.008  0.030
   35  0.000  0.001  0.011  0.013
   36  0.000  0.008  0.009  0.017
   37  0.000  0.000  0.000  0.000
tot    0.222  0.095  0.396  0.712
 
band    17 # energy   -5.56857274 # occ.  2.00000000
 
ion      s      p      d    tot
    1  0.016  0.002  0.000  0.018
    2  0.000  0.003  0.011  0.014
    3  0.000  0.003  0.011  0.014
    4  0.000  0.003  0.011  0.014
    5  0.044  0.004  0.000  0.048
    6  0.000  0.003  0.011  0.014
    7  0.000  0.003  0.011  0.014
    8  0.000  0.003  0.011  0.014
    9  0.004  0.001  0.001  0.005
   10  0.001  0.001  0.027  0.029
   11  0.004  0.004  0.020  0.028
   12  0.001  0.001  0.027  0.029
   13  0.004  0.004  0.020  0.028
   14  0.004  0.004  0.020  0.028
   15  0.003  0.001  0.009  0.013
   16  0.001  0.001  0.027  0.029
   17  0.003  0.001  0.009  0.013
   18  0.003  0.001  0.009  0.013
   19  0.010  0.001  0.022  0.032
   20  0.012  0.004  0.006  0.021
   21  0.012  0.004  0.006  0.021
   22  0.002  0.001  0.018  0.021
   23  0.012  0.004  0.006  0.021
   24  0.002  0.001  0.018  0.021
   25  0.010  0.001  0.022  0.032
   26  0.010  0.001  0.022  0.032
   27  0.002  0.001  0.018  0.021
   28  0.003  0.002  0.005  0.009
   29  0.001  0.002  0.012  0.015
   30  0.001  0.002  0.012  0.015
   31  0.001  0.002  0.012  0.015
   32  0.001  0.002  0.012  0.015
   33  0.001  0.002  0.012  0.015
   34  0.001  0.002  0.012  0.015
   35  0.004  0.001  0.001  0.006
   36  0.028  0.012  0.001  0.041
   37  0.007  0.001  0.000  0.008
tot    0.208  0.088  0.449  0.746
 
band    18 # energy   -5.09707141 # occ.  2.00000000
 
ion      s      p      d    tot
    1  0.000  0.001  0.029  0.030
    2  0.013  0.001  0.008  0.023
    3  0.013  0.001  0.008  0.023
    4  0.010  0.001  0.009  0.019
    5  0.000  0.001  0.016  0.017
    6  0.010  0.001  0.009  0.019
    7  0.000  0.001  0.008  0.009
    8  0.000  0.001  0.008  0.009
    9  0.000  0.003  0.003  0.006
   10  0.000  0.000  0.047  0.047
   11  0.000  0.004  0.020  0.024
   12  0.000  0.000  0.046  0.047
   13  0.000  0.001  0.013  0.014
   14  0.000  0.001  0.013  0.014
   15  0.000  0.007  0.013  0.020
   16  0.000  0.000  0.004  0.004
   17  0.000  0.002  0.022  0.024
   18  0.000  0.002  0.022  0.024
   19  0.004  0.005  0.020  0.029
   20  0.000  0.000  0.041  0.042
   21  0.000  0.000  0.041  0.041
   22  0.001  0.001  0.022  0.024
   23  0.000  0.000  0.010  0.010
   24  0.001  0.001  0.023  0.024
   25  0.001  0.001  0.018  0.021
   26  0.001  0.001  0.018  0.021
   27  0.004  0.003  0.010  0.017
   28  0.000  0.002  0.009  0.010
   29  0.003  0.001  0.017  0.021
   30  0.003  0.001  0.017  0.020
   31  0.015  0.001  0.023  0.039
   32  0.015  0.001  0.023  0.039
   33  0.005  0.001  0.014  0.020
   34  0.005  0.001  0.014  0.020
   35  0.000  0.002  0.014  0.016
   36  0.000  0.000  0.022  0.022
   37  0.000  0.000  0.000  0.000
tot    0.105  0.049  0.654  0.808
 
band    19 # energy   -5.09705455 # occ.  2.00000000
 
ion      s      p      d    tot
    1  0.000  0.001  0.029  0.030
    2  0.002  0.001  0.008  0.011
    3  0.002  0.001  0.008  0.012
    4  0.006  0.001  0.008  0.015
    5  0.000  0.001  0.016  0.017
    6  0.006  0.001  0.008  0.015
    7  0.015  0.001  0.008  0.025
    8  0.015  0.001  0.008  0.025
    9  0.000  0.003  0.003  0.006
   10  0.000  0.000  0.018  0.018
   11  0.000  0.000  0.010  0.010
   12  0.000  0.000  0.018  0.019
   13  0.000  0.003  0.017  0.020
   14  0.000  0.003  0.017  0.021
   15  0.000  0.000  0.025  0.025
   16  0.000  0.000  0.061  0.061
   17  0.000  0.005  0.016  0.022
   18  0.000  0.005  0.016  0.022
   19  0.000  0.000  0.018  0.018
   20  0.000  0.000  0.020  0.020
   21  0.000  0.000  0.020  0.021
   22  0.003  0.002  0.014  0.019
   23  0.000  0.000  0.052  0.052
   24  0.003  0.002  0.014  0.019
   25  0.003  0.004  0.019  0.026
   26  0.003  0.004  0.019  0.026
   27  0.000  0.000  0.027  0.027
   28  0.000  0.002  0.009  0.010
   29  0.012  0.001  0.019  0.032
   30  0.012  0.001  0.019  0.032
   31  0.000  0.001  0.013  0.014
   32  0.000  0.001  0.013  0.014
   33  0.011  0.001  0.022  0.033
   34  0.011  0.001  0.022  0.033
   35  0.000  0.002  0.014  0.016
   36  0.000  0.000  0.022  0.022
   37  0.000  0.000  0.000  0.000
tot    0.105  0.049  0.654  0.808
 
band    20 # energy   -5.06911554 # occ.  2.00000000
 
ion      s      p      d    tot
    1  0.003  0.000  0.001  0.003
    2  0.000  0.001  0.016  0.017
    3  0.000  0.001  0.016  0.017
    4  0.000  0.001  0.016  0.017
    5  0.013  0.001  0.000  0.014
    6  0.000  0.001  0.016  0.017
    7  0.000  0.001  0.016  0.017
    8  0.000  0.001  0.016  0.017
    9  0.028  0.001  0.001  0.030
   10  0.000  0.001  0.007  0.009
   11  0.000  0.000  0.020  0.020
   12  0.000  0.001  0.007  0.009
   13  0.000  0.000  0.020  0.020
   14  0.000  0.000  0.020  0.020
   15  0.000  0.003  0.037  0.040
   16  0.000  0.001  0.007  0.009
   17  0.000  0.003  0.037  0.040
   18  0.000  0.003  0.037  0.040
   19  0.000  0.001  0.022  0.024
   20  0.001  0.000  0.011  0.012
   21  0.001  0.000  0.011  0.012
   22  0.002  0.003  0.031  0.035
   23  0.001  0.000  0.011  0.012
   24  0.002  0.003  0.031  0.035
   25  0.000  0.001  0.022  0.024
   26  0.000  0.001  0.022  0.024
   27  0.002  0.003  0.031  0.035
   28  0.022  0.000  0.003  0.024
   29  0.000  0.001  0.029  0.030
   30  0.000  0.001  0.029  0.030
   31  0.000  0.001  0.029  0.030
   32  0.000  0.001  0.029  0.030
   33  0.000  0.001  0.029  0.030
   34  0.000  0.001  0.029  0.030
   35  0.021  0.000  0.006  0.027
   36  0.000  0.000  0.000  0.000
   37  0.000  0.000  0.000  0.000
tot    0.095  0.046  0.666  0.807
 
band    21 # energy   -5.04006115 # occ.  2.00000000
 
ion      s      p      d    tot
    1  0.000  0.002  0.003  0.005
    2  0.015  0.001  0.009  0.025
    3  0.012  0.001  0.009  0.022
    4  0.011  0.001  0.009  0.022
    5  0.000  0.002  0.018  0.020
    6  0.006  0.001  0.009  0.017
    7  0.002  0.001  0.009  0.011
    8  0.000  0.001  0.009  0.009
    9  0.000  0.000  0.031  0.031
   10  0.001  0.006  0.019  0.026
   11  0.000  0.000  0.049  0.049
   12  0.000  0.004  0.015  0.019
   13  0.000  0.002  0.023  0.025
   14  0.001  0.003  0.011  0.014
   15  0.000  0.000  0.039  0.039
   16  0.000  0.000  0.006  0.006
   17  0.000  0.001  0.022  0.023
   18  0.000  0.001  0.014  0.015
   19  0.000  0.000  0.056  0.056
   20  0.002  0.005  0.019  0.026
   21  0.001  0.004  0.018  0.023
   22  0.000  0.002  0.019  0.021
   23  0.000  0.000  0.017  0.017
   24  0.000  0.003  0.016  0.019
   25  0.001  0.001  0.011  0.012
   26  0.000  0.000  0.025  0.026
   27  0.000  0.000  0.024  0.024
   28  0.000  0.001  0.037  0.038
   29  0.005  0.001  0.014  0.020
   30  0.002  0.001  0.014  0.016
   31  0.014  0.001  0.014  0.029
   32  0.014  0.001  0.014  0.029
   33  0.002  0.001  0.013  0.016
   34  0.006  0.001  0.013  0.020
   35  0.000  0.000  0.030  0.031
   36  0.000  0.004  0.001  0.004