PROCAR new format
# of k-points:   10         # of bands:  252         # of ions:   38

 k-point     1 :    0.00000000 0.00000000 0.00000000     weight = 0.01562500

band     1 # energy  -48.43968723 # occ.  2.00000000
 
ion      s      p      d    tot
    1  0.000  0.000  0.000  0.000
    2  0.000  0.000  0.000  0.000
    3  0.000  0.000  0.000  0.000
    4  0.000  0.000  0.000  0.000
    5  0.000  0.000  0.000  0.000
    6  0.000  0.000  0.000  0.000
    7  0.000  0.000  0.000  0.000
    8  0.000  0.000  0.000  0.000
    9  0.000  0.000  0.000  0.000
   10  0.000  0.000  0.000  0.000
   11  0.000  0.000  0.000  0.000
   12  0.000  0.000  0.000  0.000
   13  0.000  0.000  0.000  0.000
   14  0.000  0.000  0.000  0.000
   15  0.000  0.000  0.000  0.000
   16  0.000  0.000  0.000  0.000
   17  0.000  0.000  0.000  0.000
   18  0.000  0.000  0.000  0.000
   19  0.000  0.000  0.000  0.000
   20  0.000  0.000  0.000  0.000
   21  0.000  0.000  0.000  0.000
   22  0.000  0.000  0.000  0.000
   23  0.000  0.000  0.000  0.000
   24  0.000  0.000  0.000  0.000
   25  0.000  0.000  0.000  0.000
   26  0.000  0.000  0.000  0.000
   27  0.000  0.000  0.000  0.000
   28  0.000  0.000  0.000  0.000
   29  0.000  0.000  0.000  0.000
   30  0.000  0.000  0.000  0.000
   31  0.000  0.000  0.000  0.000
   32  0.000  0.000  0.000  0.000
   33  0.000  0.000  0.000  0.000
   34  0.000  0.000  0.000  0.000
   35  0.000  0.000  0.000  0.000
   36  0.993  0.000  0.000  0.993
   37  0.000  0.000  0.000  0.000
   38  0.000  0.000  0.000  0.000
tot    0.993  0.000  0.000  0.993
 
band     2 # energy  -26.53103301 # occ.  2.00000000
 
ion      s      p      d    tot
    1  0.000  0.000  0.000  0.000
    2  0.000  0.000  0.000  0.000
    3  0.000  0.000  0.000  0.000
    4  0.000  0.000  0.000  0.000
    5  0.000  0.000  0.000  0.000
    6  0.000  0.000  0.000  0.000
    7  0.000  0.000  0.000  0.000
    8  0.000  0.000  0.000  0.000
    9  0.000  0.000  0.000  0.000
   10  0.000  0.000  0.000  0.000
   11  0.000  0.000  0.000  0.000
   12  0.000  0.000  0.000  0.000
   13  0.000  0.000  0.000  0.000
   14  0.000  0.000  0.000  0.000
   15  0.000  0.000  0.000  0.000
   16  0.000  0.000  0.000  0.000
   17  0.000  0.000  0.000  0.000
   18  0.000  0.000  0.000  0.000
   19  0.000  0.000  0.000  0.000
   20  0.000  0.000  0.000  0.000
   21  0.000  0.000  0.000  0.000
   22  0.000  0.000  0.000  0.000
   23  0.000  0.000  0.000  0.000
   24  0.000  0.000  0.000  0.000
   25  0.000  0.000  0.000  0.000
   26  0.000  0.000  0.000  0.000
   27  0.000  0.000  0.000  0.000
   28  0.000  0.000  0.000  0.000
   29  0.000  0.000  0.000  0.000
   30  0.000  0.000  0.000  0.000
   31  0.000  0.000  0.000  0.000
   32  0.000  0.000  0.000  0.000
   33  0.000  0.000  0.000  0.000
   34  0.000  0.000  0.000  0.000
   35  0.000  0.000  0.000  0.000
   36  0.000  0.971  0.000  0.971
   37  0.000  0.000  0.000  0.000
   38  0.000  0.000  0.000  0.000
tot    0.000  0.972  0.001  0.973
 
band     3 # energy  -26.53102537 # occ.  2.00000000
 
ion      s      p      d    tot
    1  0.000  0.000  0.000  0.000
    2  0.000  0.000  0.000  0.000
    3  0.000  0.000  0.000  0.000
    4  0.000  0.000  0.000  0.000
    5  0.000  0.000  0.000  0.000
    6  0.000  0.000  0.000  0.000
    7  0.000  0.000  0.000  0.000
    8  0.000  0.000  0.000  0.000
    9  0.000  0.000  0.000  0.000
   10  0.000  0.000  0.000  0.000
   11  0.000  0.000  0.000  0.000
   12  0.000  0.000  0.000  0.000
   13  0.000  0.000  0.000  0.000
   14  0.000  0.000  0.000  0.000
   15  0.000  0.000  0.000  0.000
   16  0.000  0.000  0.000  0.000
   17  0.000  0.000  0.000  0.000
   18  0.000  0.000  0.000  0.000
   19  0.000  0.000  0.000  0.000
   20  0.000  0.000  0.000  0.000
   21  0.000  0.000  0.000  0.000
   22  0.000  0.000  0.000  0.000
   23  0.000  0.000  0.000  0.000
   24  0.000  0.000  0.000  0.000
   25  0.000  0.000  0.000  0.000
   26  0.000  0.000  0.000  0.000
   27  0.000  0.000  0.000  0.000
   28  0.000  0.000  0.000  0.000
   29  0.000  0.000  0.000  0.000
   30  0.000  0.000  0.000  0.001
   31  0.000  0.000  0.000  0.000
   32  0.000  0.000  0.000  0.000
   33  0.000  0.000  0.000  0.001
   34  0.000  0.000  0.000  0.000
   35  0.000  0.000  0.000  0.000
   36  0.000  0.971  0.000  0.971
   37  0.000  0.000  0.000  0.000
   38  0.000  0.000  0.000  0.000
tot    0.000  0.972  0.001  0.973
 
band     4 # energy  -26.41253716 # occ.  2.00000000
 
ion      s      p      d    tot
    1  0.000  0.000  0.000  0.000
    2  0.000  0.000  0.000  0.000
    3  0.000  0.000  0.000  0.000
    4  0.000  0.000  0.000  0.000
    5  0.000  0.000  0.000  0.000
    6  0.000  0.000  0.000  0.000
    7  0.000  0.000  0.000  0.000
    8  0.000  0.000  0.000  0.000
    9  0.000  0.000  0.000  0.000
   10  0.000  0.000  0.000  0.000
   11  0.000  0.000  0.000  0.000
   12  0.000  0.000  0.000  0.000
   13  0.000  0.000  0.000  0.000
   14  0.000  0.000  0.000  0.000
   15  0.000  0.000  0.000  0.000
   16  0.000  0.000  0.000  0.000
   17  0.000  0.000  0.000  0.000
   18  0.000  0.000  0.000  0.000
   19  0.000  0.000  0.000  0.000
   20  0.000  0.000  0.000  0.000
   21  0.000  0.000  0.000  0.000
   22  0.000  0.000  0.000  0.000
   23  0.000  0.000  0.000  0.000
   24  0.000  0.000  0.000  0.000
   25  0.000  0.000  0.000  0.000
   26  0.000  0.000  0.000  0.000
   27  0.000  0.000  0.000  0.000
   28  0.000  0.000  0.000  0.000
   29  0.000  0.000  0.000  0.000
   30  0.000  0.000  0.000  0.000
   31  0.000  0.000  0.000  0.000
   32  0.000  0.000  0.000  0.000
   33  0.000  0.000  0.000  0.000
   34  0.000  0.000  0.000  0.000
   35  0.000  0.000  0.000  0.000
   36  0.000  0.965  0.000  0.965
   37  0.002  0.001  0.000  0.003
   38  0.000  0.000  0.000  0.000
tot    0.002  0.967  0.001  0.970
 
band     5 # energy  -22.84689749 # occ.  2.00000000
 
ion      s      p      d    tot
    1  0.000  0.000  0.000  0.000
    2  0.000  0.000  0.000  0.000
    3  0.000  0.000  0.000  0.000
    4  0.000  0.000  0.000  0.000
    5  0.000  0.000  0.000  0.000
    6  0.000  0.000  0.000  0.000
    7  0.000  0.000  0.000  0.000
    8  0.000  0.000  0.000  0.000
    9  0.000  0.000  0.000  0.000
   10  0.000  0.000  0.000  0.000
   11  0.000  0.000  0.000  0.000
   12  0.000  0.000  0.000  0.000
   13  0.000  0.000  0.000  0.000
   14  0.000  0.000  0.000  0.000
   15  0.000  0.000  0.000  0.000
   16  0.000  0.000  0.000  0.000
   17  0.000  0.000  0.000  0.000
   18  0.000  0.000  0.000  0.000
   19  0.000  0.000  0.000  0.000
   20  0.000  0.000  0.000  0.000
   21  0.000  0.000  0.000  0.000
   22  0.000  0.000  0.000  0.000
   23  0.000  0.000  0.000  0.000
   24  0.000  0.000  0.000  0.000
   25  0.000  0.000  0.000  0.000
   26  0.000  0.000  0.000  0.000
   27  0.000  0.000  0.000  0.000
   28  0.000  0.000  0.000  0.000
   29  0.000  0.000  0.000  0.000
   30  0.000  0.000  0.000  0.000
   31  0.000  0.000  0.000  0.000
   32  0.000  0.000  0.000  0.000
   33  0.000  0.000  0.000  0.000
   34  0.000  0.000  0.000  0.000
   35  0.000  0.000  0.000  0.000
   36  0.000  0.001  0.000  0.001
   37  0.156  0.117  0.000  0.273
   38  0.642  0.094  0.000  0.736
tot    0.798  0.212  0.000  1.010
 
band     6 # energy   -8.18628721 # occ.  2.00000000
 
ion      s      p      d    tot
    1  0.000  0.000  0.000  0.000
    2  0.000  0.000  0.000  0.000
    3  0.000  0.000  0.000  0.000
    4  0.000  0.000  0.000  0.000
    5  0.000  0.000  0.000  0.000
    6  0.000  0.000  0.000  0.000
    7  0.000  0.000  0.000  0.000
    8  0.000  0.000  0.000  0.000
    9  0.000  0.000  0.000  0.000
   10  0.000  0.000  0.000  0.000
   11  0.000  0.000  0.000  0.000
   12  0.000  0.000  0.000  0.000
   13  0.000  0.000  0.000  0.000
   14  0.000  0.000  0.000  0.000
   15  0.000  0.000  0.000  0.000
   16  0.000  0.000  0.000  0.000
   17  0.000  0.000  0.000  0.000
   18  0.000  0.000  0.000  0.000
   19  0.000  0.000  0.000  0.000
   20  0.000  0.000  0.000  0.000
   21  0.000  0.000  0.000  0.000
   22  0.000  0.000  0.000  0.000
   23  0.000  0.000  0.000  0.000
   24  0.000  0.000  0.000  0.000
   25  0.000  0.000  0.000  0.000
   26  0.000  0.000  0.000  0.000
   27  0.000  0.000  0.000  0.000
   28  0.000  0.000  0.000  0.000
   29  0.000  0.000  0.000  0.000
   30  0.000  0.000  0.000  0.000
   31  0.000  0.000  0.000  0.000
   32  0.000  0.000  0.000  0.000
   33  0.000  0.000  0.000  0.000
   34  0.000  0.000  0.000  0.000
   35  0.000  0.000  0.000  0.000
   36  0.005  0.004  0.010  0.020
   37  0.248  0.001  0.000  0.248
   38  0.160  0.327  0.000  0.487
tot    0.414  0.332  0.011  0.758
 
band     7 # energy   -6.22265576 # occ.  2.00000000
 
ion      s      p      d    tot
    1  0.006  0.001  0.000  0.006
    2  0.006  0.001  0.000  0.006
    3  0.006  0.001  0.000  0.006
    4  0.006  0.001  0.000  0.006
    5  0.006  0.001  0.000  0.006
    6  0.006  0.001  0.000  0.006
    7  0.006  0.001  0.000  0.006
    8  0.006  0.001  0.000  0.006
    9  0.006  0.001  0.000  0.006
   10  0.023  0.000  0.000  0.023
   11  0.023  0.000  0.000  0.023
   12  0.023  0.000  0.000  0.023
   13  0.023  0.000  0.000  0.023
   14  0.023  0.000  0.000  0.023
   15  0.022  0.000  0.000  0.022
   16  0.023  0.000  0.000  0.023
   17  0.022  0.000  0.000  0.022
   18  0.022  0.000  0.000  0.022
   19  0.023  0.000  0.000  0.023
   20  0.024  0.000  0.000  0.025
   21  0.024  0.000  0.000  0.025
   22  0.022  0.000  0.000  0.022
   23  0.025  0.000  0.000  0.025
   24  0.022  0.000  0.000  0.022
   25  0.023  0.000  0.000  0.023
   26  0.023  0.000  0.000  0.023
   27  0.022  0.000  0.000  0.022
   28  0.006  0.001  0.000  0.006
   29  0.006  0.001  0.000  0.006
   30  0.006  0.001  0.000  0.006
   31  0.006  0.001  0.000  0.006
   32  0.006  0.001  0.000  0.006
   33  0.006  0.001  0.000  0.006
   34  0.006  0.001  0.000  0.006
   35  0.006  0.001  0.000  0.006
   36  0.005  0.000  0.000  0.005
   37  0.000  0.003  0.000  0.003
   38  0.001  0.006  0.000  0.006
tot    0.514  0.021  0.006  0.541
 
band     8 # energy   -5.58673961 # occ.  2.00000000
 
ion      s      p      d    tot
    1  0.000  0.000  0.000  0.000
    2  0.000  0.000  0.000  0.000
    3  0.000  0.000  0.000  0.000
    4  0.000  0.000  0.000  0.000
    5  0.000  0.000  0.000  0.000
    6  0.000  0.000  0.000  0.000
    7  0.000  0.000  0.000  0.000
    8  0.000  0.000  0.000  0.000
    9  0.000  0.000  0.000  0.000
   10  0.000  0.000  0.000  0.000
   11  0.000  0.000  0.000  0.000
   12  0.000  0.000  0.000  0.000
   13  0.000  0.000  0.000  0.000
   14  0.000  0.000  0.000  0.000
   15  0.000  0.000  0.000  0.000
   16  0.000  0.000  0.000  0.000
   17  0.000  0.000  0.000  0.000
   18  0.000  0.000  0.000  0.000
   19  0.000  0.000  0.000  0.000
   20  0.000  0.000  0.000  0.000
   21  0.000  0.000  0.000  0.000
   22  0.000  0.000  0.000  0.000
   23  0.000  0.000  0.000  0.000
   24  0.000  0.000  0.000  0.000
   25  0.000  0.000  0.000  0.000
   26  0.000  0.000  0.000  0.000
   27  0.000  0.000  0.000  0.000
   28  0.000  0.000  0.000  0.000
   29  0.000  0.000  0.001  0.001
   30  0.000  0.000  0.000  0.000
   31  0.000  0.000  0.001  0.001
   32  0.000  0.000  0.001  0.001
   33  0.000  0.000  0.000  0.000
   34  0.000  0.000  0.001  0.001
   35  0.000  0.000  0.000  0.000
   36  0.000  0.000  0.004  0.004
   37  0.000  0.168  0.000  0.168
   38  0.000  0.501  0.000  0.501
tot    0.001  0.669  0.008  0.678
 
band     9 # energy   -5.58665359 # occ.  2.00000000
 
ion      s      p      d    tot
    1  0.000  0.000  0.000  0.000
    2  0.000  0.000  0.000  0.000
    3  0.000  0.000  0.000  0.000
    4  0.000  0.000  0.000  0.000
    5  0.000  0.000  0.000  0.000
    6  0.000  0.000  0.000  0.000
    7  0.000  0.000  0.000  0.000
    8  0.000  0.000  0.000  0.000
    9  0.000  0.000  0.000  0.000
   10  0.000  0.000  0.000  0.000
   11  0.000  0.000  0.000  0.000
   12  0.000  0.000  0.000  0.000
   13  0.000  0.000  0.000  0.000
   14  0.000  0.000  0.000  0.000
   15  0.000  0.000  0.000  0.000
   16  0.000  0.000  0.000  0.000
   17  0.000  0.000  0.000  0.000
   18  0.000  0.000  0.000  0.000
   19  0.000  0.000  0.000  0.000
   20  0.000  0.000  0.000  0.000
   21  0.000  0.000  0.000  0.000
   22  0.000  0.000  0.000  0.000
   23  0.000  0.000  0.000  0.000
   24  0.000  0.000  0.000  0.000
   25  0.000  0.000  0.000  0.000
   26  0.000  0.000  0.000  0.000
   27  0.000  0.000  0.000  0.000
   28  0.000  0.000  0.000  0.000
   29  0.000  0.000  0.000  0.000
   30  0.000  0.000  0.001  0.001
   31  0.000  0.000  0.000  0.000
   32  0.000  0.000  0.000  0.000
   33  0.000  0.000  0.001  0.001
   34  0.000  0.000  0.000  0.000
   35  0.000  0.000  0.000  0.000
   36  0.000  0.000  0.004  0.004
   37  0.000  0.168  0.000  0.168
   38  0.000  0.501  0.000  0.501
tot    0.001  0.669  0.008  0.678
 
band    10 # energy   -5.40872350 # occ.  2.00000000
 
ion      s      p      d    tot
    1  0.007  0.000  0.000  0.008
    2  0.008  0.000  0.000  0.009
    3  0.008  0.000  0.000  0.009
    4  0.008  0.000  0.000  0.009
    5  0.008  0.000  0.000  0.009
    6  0.008  0.000  0.000  0.009
    7  0.008  0.000  0.000  0.009
    8  0.008  0.000  0.000  0.009
    9  0.008  0.000  0.000  0.009
   10  0.010  0.001  0.012  0.023
   11  0.012  0.001  0.009  0.021
   12  0.010  0.001  0.012  0.023
   13  0.012  0.001  0.009  0.021
   14  0.012  0.001  0.009  0.021
   15  0.012  0.001  0.008  0.021
   16  0.010  0.001  0.012  0.023
   17  0.012  0.001  0.008  0.021
   18  0.012  0.001  0.008  0.021
   19  0.006  0.001  0.008  0.016
   20  0.010  0.001  0.014  0.026
   21  0.010  0.001  0.014  0.026
   22  0.005  0.001  0.007  0.013
   23  0.010  0.001  0.014  0.026
   24  0.005  0.001  0.007  0.013
   25  0.006  0.001  0.008  0.016
   26  0.006  0.001  0.008  0.016
   27  0.005  0.001  0.007  0.013
   28  0.007  0.000  0.001  0.008
   29  0.008  0.000  0.002  0.010
   30  0.008  0.000  0.002  0.010
   31  0.008  0.000  0.002  0.010
   32  0.008  0.000  0.002  0.010
   33  0.008  0.000  0.002  0.010
   34  0.008  0.000  0.002  0.010
   35  0.006  0.000  0.001  0.007
   36  0.017  0.000  0.007  0.025
   37  0.008  0.042  0.000  0.050
   38  0.002  0.045  0.000  0.047
tot    0.324  0.109  0.199  0.632
 
band    11 # energy   -5.16764771 # occ.  2.00000000
 
ion      s      p      d    tot
    1  0.000  0.000  0.004  0.004
    2  0.000  0.000  0.002  0.002
    3  0.000  0.000  0.002  0.002
    4  0.000  0.000  0.002  0.002
    5  0.001  0.000  0.001  0.001
    6  0.000  0.000  0.002  0.002
    7  0.000  0.000  0.002  0.002
    8  0.000  0.000  0.002  0.002
    9  0.001  0.000  0.001  0.002
   10  0.004  0.000  0.011  0.014
   11  0.001  0.000  0.018  0.019
   12  0.004  0.000  0.011  0.014
   13  0.001  0.000  0.018  0.019
   14  0.001  0.000  0.018  0.019
   15  0.000  0.000  0.013  0.013
   16  0.004  0.000  0.011  0.014
   17  0.000  0.000  0.013  0.013
   18  0.000  0.000  0.013  0.013
   19  0.005  0.000  0.022  0.028
   20  0.001  0.000  0.051  0.052
   21  0.001  0.000  0.051  0.052
   22  0.011  0.000  0.017  0.028
   23  0.001  0.000  0.051  0.052
   24  0.011  0.000  0.017  0.028
   25  0.005  0.000  0.022  0.028
   26  0.005  0.000  0.022  0.028
   27  0.011  0.000  0.017  0.028
   28  0.000  0.000  0.008  0.009
   29  0.002  0.000  0.010  0.012
   30  0.002  0.000  0.010  0.012
   31  0.002  0.000  0.010  0.012
   32  0.002  0.000  0.010  0.012
   33  0.002  0.000  0.010  0.012
   34  0.002  0.000  0.010  0.012
   35  0.000  0.000  0.007  0.007
   36  0.021  0.002  0.012  0.035
   37  0.019  0.076  0.000  0.095
   38  0.002  0.073  0.000  0.075
tot    0.117  0.156  0.498  0.771
 
band    12 # energy   -5.05357953 # occ.  2.00000000
 
ion      s      p      d    tot
    1  0.019  0.000  0.010  0.029
    2  0.010  0.000  0.015  0.025
    3  0.010  0.000  0.015  0.025
    4  0.010  0.000  0.015  0.025
    5  0.007  0.000  0.015  0.021
    6  0.010  0.000  0.015  0.025
    7  0.010  0.000  0.015  0.025
    8  0.010  0.000  0.015  0.025
    9  0.007  0.000  0.014  0.021
   10  0.001  0.000  0.025  0.026
   11  0.000  0.000  0.006  0.007
   12  0.001  0.000  0.025  0.026
   13  0.000  0.000  0.006  0.007
   14  0.000  0.000  0.006  0.007
   15  0.001  0.001  0.004  0.006
   16  0.001  0.000  0.025  0.026
   17  0.001  0.001  0.004  0.006
   18  0.001  0.001  0.004  0.006
   19  0.000  0.001  0.018  0.018
   20  0.001  0.000  0.042  0.044
   21  0.001  0.000  0.042  0.044
   22  0.005  0.000  0.003  0.009
   23  0.001  0.000  0.042  0.044
   24  0.005  0.000  0.003  0.009
   25  0.000  0.001  0.018  0.018
   26  0.000  0.001  0.018  0.018
   27  0.005  0.000  0.003  0.009
   28  0.009  0.000  0.004  0.013
   29  0.007  0.000  0.009  0.016
   30  0.007  0.000  0.009  0.016
   31  0.007  0.000  0.009  0.016
   32  0.007  0.000  0.009  0.016
   33  0.007  0.000  0.009  0.016
   34  0.007  0.000  0.009  0.016
   35  0.015  0.000  0.005  0.021
   36  0.001  0.000  0.019  0.020
   37  0.007  0.023  0.000  0.029
   38  0.001  0.019  0.000  0.020
tot    0.192  0.052  0.506  0.750
 
band    13 # energy   -4.95190398 # occ.  2.00000000
 
ion      s      p      d    tot
    1  0.000  0.000  0.007  0.007
    2  0.001  0.000  0.002  0.003
    3  0.001  0.000  0.002  0.003
    4  0.000  0.000  0.003  0.003
    5  0.000  0.000  0.002  0.002
    6  0.000  0.000  0.003  0.003
    7  0.001  0.000  0.003  0.004
    8  0.001  0.000  0.003  0.004
    9  0.000  0.000  0.004  0.004
   10  0.002  0.001  0.022  0.025
   11  0.000  0.000  0.020  0.021
   12  0.002  0.001  0.021  0.024
   13  0.000  0.000  0.032  0.032
   14  0.000  0.000  0.030  0.031
   15  0.010  0.001  0.009  0.020
   16  0.008  0.001  0.026  0.035
   17  0.002  0.000  0.021  0.023
   18  0.003  0.000  0.020  0.023
   19  0.027  0.001  0.027  0.055
   20  0.004  0.000  0.104  0.108
   21  0.002  0.000  0.118  0.120
   22  0.001  0.001  0.021  0.023
   23  0.012  0.001  0.016  0.028
   24  0.001  0.001  0.023  0.025
   25  0.008  0.001  0.047  0.056
   26  0.005  0.001  0.050  0.057
   27  0.003  0.000  0.037  0.040
   28  0.000  0.000  0.007  0.007
   29  0.000  0.000  0.005  0.005
   30  0.000  0.000  0.005  0.006
   31  0.001  0.000  0.006  0.007
   32  0.001  0.000  0.007  0.008
   33  0.000  0.000  0.002  0.002
   34  0.000  0.000  0.002  0.002
   35  0.000  0.000  0.000  0.000
   36  0.000  0.000  0.001  0.001
   37  0.000  0.000  0.000  0.000
   38  0.000  0.001  0.000  0.001
tot    0.096  0.014  0.708  0.818
 
band    14 # energy   -4.95189587 # occ.  2.00000000
 
ion      s      p      d    tot
    1  0.000  0.000  0.007  0.007
    2  0.000  0.000  0.003  0.003
    3  0.000  0.000  0.003  0.003
    4  0.001  0.000  0.002  0.003
    5  0.000  0.000  0.002  0.002
    6  0.001  0.000  0.002  0.004
    7  0.000  0.000  0.002  0.002
    8  0.000  0.000  0.002  0.002
    9  0.000  0.000  0.004  0.004
   10  0.006  0.001  0.024  0.031
   11  0.000  0.000  0.035  0.035
   12  0.006  0.001  0.025  0.032
   13  0.000  0.000  0.023  0.023
   14  0.000  0.000  0.025  0.025
   15  0.000  0.000  0.024  0.024
   16  0.000  0.001  0.020  0.021
   17  0.008  0.001  0.012  0.021
   18  0.007  0.001  0.014  0.022
   19  0.000  0.001  0.056  0.057
   20  0.008  0.000  0.054  0.063
   21  0.010  0.000  0.041  0.051
   22  0.002  0.000  0.033  0.036
   23  0.000  0.000  0.143  0.143
   24  0.002  0.001  0.031  0.034
   25  0.019  0.001  0.036  0.056
   26  0.022  0.001  0.033  0.055
   27  0.000  0.002  0.017  0.018
   28  0.000  0.000  0.007  0.007
   29  0.001  0.000  0.004  0.005
   30  0.000  0.000  0.003  0.004
   31  0.000  0.000  0.003  0.003
   32  0.000  0.000  0.002  0.002
   33  0.001  0.000  0.007  0.008
   34  0.001  0.000  0.007  0.008
   35  0.000  0.000  0.000  0.000
   36  0.000  0.000  0.001  0.001
   37  0.000  0.000  0.000  0.000
   38  0.000  0.001  0.000  0.001
tot    0.096  0.014  0.708  0.818
 
band    15 # energy   -4.94323278 # occ.  2.00000000
 
ion      s      p      d    tot
    1  0.004  0.000  0.010  0.013
    2  0.005  0.000  0.014  0.020
    3  0.005  0.000  0.014  0.020
    4  0.005  0.000  0.014  0.020
    5  0.005  0.000  0.022  0.028
    6  0.005  0.000  0.014  0.020
    7  0.005  0.000  0.014  0.020
    8  0.005  0.000  0.014  0.020
    9  0.008  0.000  0.006  0.014
   10  0.000  0.001  0.003  0.004
   11  0.007  0.001  0.032  0.040
   12  0.000  0.001  0.003  0.004
   13  0.007  0.001  0.032  0.040
   14  0.007  0.001  0.032  0.040
   15  0.000  0.000  0.034  0.034
   16  0.000  0.001  0.003  0.004
   17  0.000  0.000  0.034  0.034
   18  0.000  0.000  0.034  0.034
   19  0.000  0.000  0.038  0.039
   20  0.009  0.001  0.050  0.059
   21  0.009  0.001  0.050  0.059
   22  0.001  0.001  0.002  0.004
   23  0.009  0.001  0.050  0.059
   24  0.001  0.001  0.002  0.004
   25  0.000  0.000  0.038  0.039
   26  0.000  0.000  0.038  0.039
   27  0.001  0.001  0.002  0.004
   28  0.002  0.000  0.001  0.003
   29  0.002  0.000  0.009  0.012
   30  0.002  0.000  0.009  0.012
   31  0.002  0.000  0.009  0.012
   32  0.002  0.000  0.009  0.012
   33  0.002  0.000  0.009  0.012
   34  0.002  0.000  0.009  0.012
   35  0.003  0.000  0.002  0.005
   36  0.002  0.001  0.002  0.004
   37  0.000  0.002  0.000  0.002
   38  0.000  0.002  0.000  0.002
tot    0.123  0.014  0.663  0.800
 
band    16 # energy   -4.93964677 # occ.  2.00000000
 
ion      s      p      d    tot
    1  0.000  0.000  0.007  0.007
    2  0.000  0.000  0.002  0.003
    3  0.001  0.000  0.006  0.007
    4  0.000  0.000  0.002  0.003
    5  0.000  0.000  0.008  0.009
    6  0.002  0.001  0.006  0.009
    7  0.001  0.000  0.006  0.007
    8  0.002  0.001  0.006  0.008
    9  0.000  0.000  0.000  0.000
   10  0.015  0.001  0.007  0.023
   11  0.008  0.001  0.051  0.061
   12  0.004  0.000  0.086  0.090
   13  0.008  0.001  0.052  0.061
   14  0.032  0.001  0.023  0.055
   15  0.001  0.001  0.020  0.022
   16  0.004  0.000  0.083  0.087
   17  0.001  0.001  0.019  0.021
   18  0.003  0.000  0.036  0.039
   19  0.000  0.001  0.020  0.020
   20  0.016  0.001  0.027  0.044
   21  0.004  0.001  0.031  0.036
   22  0.002  0.000  0.029  0.031
   23  0.004  0.001  0.031  0.036
   24  0.010  0.001  0.006  0.017
   25  0.000  0.000  0.022  0.022
   26  0.000  0.001  0.020  0.020
   27  0.003  0.000  0.028  0.031
   28  0.000  0.000  0.001  0.001
   29  0.001  0.000  0.004  0.006
   30  0.001  0.000  0.003  0.005
   31  0.001  0.000  0.004  0.006
   32  0.000  0.000  0.003  0.003
   33  0.001  0.000  0.003  0.005
   34  0.000  0.000  0.003  0.003
   35  0.000  0.000  0.005  0.005
   36  0.000  0.000  0.002  0.002
   37  0.000  0.000  0.000  0.000
   38  0.000  0.000  0.000  0.000
tot    0.124  0.017  0.661  0.802
 
band    17 # energy   -4.93964312 # occ.  2.00000000
 
ion      s      p      d    tot
    1  0.000  0.000  0.007  0.007
    2  0.001  0.001  0.007  0.009
    3  0.001  0.001  0.004  0.005
    4  0.001  0.001  0.007  0.009
    5  0.000  0.000  0.008  0.009
    6  0.000  0.000  0.003  0.003
    7  0.001  0.001  0.004  0.006
    8  0.000  0.000  0.003  0.004
    9  0.000  0.000  0.000  0.000
   10  0.000  0.000  0.110  0.110
   11  0.023  0.001  0.033  0.057
   12  0.011  0.001  0.031  0.043
   13  0.024  0.001  0.032  0.057
   14  0.000  0.001  0.062  0.063
   15  0.002  0.000  0.030  0.033
   16  0.011  0.001  0.034  0.046
   17  0.002  0.000  0.031  0.033
   18  0.000  0.002  0.014  0.015
   19  0.000  0.000  0.021  0.022
   20  0.000  0.001  0.032  0.033
   21  0.013  0.001  0.028  0.042
   22  0.007  0.001  0.013  0.021
   23  0.012  0.001  0.028  0.041
   24  0.000  0.000  0.036  0.036
   25  0.000  0.001  0.019  0.020
   26  0.000  0.000  0.021  0.022
   27  0.007  0.001  0.014  0.022
   28  0.000  0.000  0.001  0.001
   29  0.000  0.000  0.003  0.003
   30  0.001  0.000  0.003  0.004
   31  0.000  0.000  0.003  0.003
   32  0.002  0.000  0.004  0.006
   33  0.001  0.000  0.003  0.004
   34  0.002  0.000  0.004  0.006
   35  0.000  0.000  0.005  0.005
   36  0.000  0.000  0.002  0.002
   37  0.000  0.000  0.000  0.000
   38  0.000  0.000  0.000  0.000
tot    0.124  0.017  0.661  0.802
 
band    18 # energy   -4.93168987 # occ.  2.00000000
 
ion      s      p      d    tot
    1  0.000  0.000  0.007  0.007
    2  0.002  0.000  0.010  0.013
    3  0.002  0.000  0.010  0.013
    4  0.002  0.000  0.010  0.013
    5  0.012  0.001  0.000  0.013
    6  0.002  0.000  0.010  0.013
    7  0.002  0.000  0.010  0.013
    8  0.002  0.000  0.010  0.013
    9  0.000  0.000  0.015  0.015
   10  0.011  0.001  0.006  0.018
   11  0.007  0.000  0.037  0.044
   12  0.011  0.001  0.006  0.018
   13  0.007  0.000  0.037  0.044
   14  0.007  0.000  0.037  0.044
   15  0.001  0.000  0.036  0.037
   16  0.011  0.001  0.006  0.018
   17  0.001  0.000  0.036  0.037
   18  0.001  0.000  0.036  0.037
   19  0.016  0.001  0.013  0.029
   20  0.001  0.001  0.019  0.022
   21  0.001  0.001  0.019  0.022
   22  0.001  0.000  0.043  0.044
   23  0.001  0.001  0.019  0.022
   24  0.001  0.000  0.043  0.044
   25  0.016  0.001  0.013  0.029
   26  0.016  0.001  0.013  0.029
   27  0.001  0.000  0.043  0.044
   28  0.001  0.001  0.009  0.011
   29  0.002  0.000  0.009  0.011
   30  0.002  0.000  0.009  0.011
   31  0.002  0.000  0.009  0.011
   32  0.002  0.000  0.009  0.011
   33  0.002  0.000  0.009  0.011
   34  0.002  0.000  0.009  0.011
   35  0.007  0.000  0.000  0.008
   36  0.002  0.000  0.000  0.002
   37  0.000  0.001  0.000  0.002
   38  0.000  0.001  0.000  0.001
tot    0.154  0.019  0.610  0.784
 
band    19 # energy   -4.92053600 # occ.  2.00000000
 
ion      s      p      d    tot
    1  0.000  0.000  0.019  0.020
    2  0.000  0.000  0.007  0.008
    3  0.000  0.000  0.007  0.008
    4  0.000  0.000  0.007  0.008
    5  0.001  0.000  0.000  0.001
    6  0.000  0.000  0.007  0.008
    7  0.000  0.000  0.007  0.008
    8  0.000  0.000  0.007  0.008
    9  0.006  0.001  0.002  0.010
   10  0.002  0.000  0.089  0.092
   11  0.003  0.000  0.028  0.032
   12  0.002  0.000  0.090  0.092
   13  0.003  0.000  0.028  0.032
   14  0.003  0.000  0.028  0.032
   15  0.009  0.000  0.019  0.029
   16  0.002  0.000  0.089  0.092
   17  0.009  0.000  0.019  0.029
   18  0.009  0.000  0.019  0.029
   19  0.000  0.000  0.029  0.029
   20  0.001  0.000  0.022  0.023
   21  0.001  0.000  0.022  0.023
   22  0.001  0.000  0.013  0.014
   23  0.001  0.000  0.022  0.023
   24  0.001  0.000  0.013  0.014
   25  0.000  0.000  0.029  0.029
   26  0.000  0.000  0.029  0.029
   27  0.001  0.000  0.013  0.014
   28  0.010  0.000  0.006  0.016
   29  0.001  0.000  0.013  0.014
   30  0.001  0.000  0.013  0.014
   31  0.001  0.000  0.013  0.014
   32  0.001  0.000  0.013  0.014
   33  0.001  0.000  0.013  0.014
   34  0.001  0.000  0.013  0.014
   35  0.000  0.000  0.003  0.003
   36  0.000  0.000  0.000  0.000
   37  0.000  0.000  0.000  0.000
   38  0.000  0.000  0.000  0.000
tot    0.074  0.008  0.754  0.836
 
band    20 # energy   -4.90092364 # occ.  2.00000000
 
ion      s      p      d    tot
    1  0.000  0.000  0.009  0.009
    2  0.001  0.001  0.009  0.011
    3  0.003  0.000  0.005  0.008
    4  0.003  0.001  0.007  0.011
    5  0.000  0.000  0.011  0.011
    6  0.001  0.000  0.007  0.008
    7  0.004  0.001  0.005  0.010
    8  0.000  0.000  0.009  0.009
    9  0.000  0.000  0.008  0.008
   10  0.012  0.000  0.021  0.034
   11  0.000  0.000  0.028  0.029
   12  0.001  0.000  0.039  0.040
   13  0.000  0.000  0.023  0.023
   14  0.000  0.000  0.032  0.033
   15  0.008  0.000  0.039  0.048
   16  0.007  0.000  0.028  0.035
   17  0.001  0.000  0.073  0.074
   18  0.013  0.000  0.013  0.026
   19  0.000  0.000  0.029  0.030
   20  0.006  0.000  0.023  0.030
   21  0.000  0.000  0.034  0.035
   22  0.001  0.000  0.053  0.054
   23  0.004  0.000  0.029  0.034
   24  0.012  0.000  0.013  0.026
   25  0.001  0.000  0.030  0.031
   26  0.000  0.000  0.031  0.031
   27  0.007  0.000  0.030  0.037
   28  0.000  0.000  0.016  0.016
   29  0.003  0.001  0.007  0.011
   30  0.002  0.000  0.007  0.009
   31  0.001  0.000  0.009  0.010
   32  0.003  0.000  0.006  0.010
   33  0.000  0.000  0.009  0.009
   34  0.004  0.001  0.006  0.011
   35  0.000  0.000  0.007  0.007
   36  0.000  0.000  0.001  0.002
   37  0.000  0.000  0.000  0.000
   38  0.000  0.000  0.000  0.000
tot    0.100  0.011  0.709  0.820
 
band    21 # energy   -4.90092005 # occ.  2.00000000
 
ion      s      p      d    tot
    1  0.000  0.000  0.009  0.009
    2  0.003  0.001  0.005  0.008
    3  0.001  0.001  0.009  0.011
    4  0.001  0.000  0.007  0.008
    5  0.000  0.000  0.011  0.011
    6  0.003  0.001  0.007  0.011
    7  0.000  0.000  0.009  0.009
    8  0.004  0.001  0.005  0.010
    9  0.000  0.000  0.008  0.008
   10  0.001  0.000  0.039  0.040
   11  0.000  0.000  0.027  0.028
   12  0.013  0.000  0.020  0.032
   13  0.000  0.000  0.033  0.033
   14  0.000  0.000  0.023  0.023
   15  0.007  0.000  0.044  0.051
   16  0.006  0.000  0.030  0.037